 Gaussian 16, Revision A.03,
 Gaussian 16:  ES64L-G16RevA.03 25-Dec-2016

 --------------------------------
 #p wB97XD/Def2SVP td=(nstates=5)
 --------------------------------

 --------------------------------------------------
 step_1_chromophore_19 TDDFT with wB97XD functional
 --------------------------------------------------
 Symbolic Z-matrix:
 Charge =  0 Multiplicity = 1

                         Standard orientation:
 ---------------------------------------------------------------------
 Center     Atomic      Atomic             Coordinates (Angstroms)
 Number     Number       Type             X           Y           Z
 ---------------------------------------------------------------------
      1         12           0       -5.741834    0.461631   -0.159544
      2          6           0       -3.625530   -2.232099   -0.134337
      3          6           0       -3.154386    2.517824    0.366339
      4          6           0       -7.977496    2.977133    0.033380
      5          6           0       -8.540246   -1.859158   -0.205377
      6          7           0       -3.617081    0.105727    0.360686
      7          6           0       -2.946020   -1.041330    0.201010
      8          6           0       -1.362884   -0.809885    0.415036
      9          6           0       -1.336397    0.757962    0.556934
     10          6           0       -2.811183    1.199034    0.466074
     11          6           0       -0.567491    1.254949    1.796586
     12          6           0       -0.486655   -1.344746   -0.753064
     13          6           0        1.000674   -0.870508   -0.841748
     14          6           0        2.119442   -1.879354   -0.379277
     15          8           0        1.933934   -2.954964    0.192434
     16          8           0        3.385106   -1.298903   -0.615764
     17          7           0       -5.585740    2.485299    0.208375
     18          6           0       -4.456394    3.156796    0.295774
     19          6           0       -4.766775    4.572058    0.429507
     20          6           0       -6.181565    4.759777    0.449544
     21          6           0       -6.646688    3.374358    0.219247
     22          6           0       -3.755652    5.676396    0.689734
     23          6           0       -7.016864    6.013144    0.689180
     24          8           0       -8.211831    5.935603    0.959496
     25          6           0       -6.354886    7.343143    0.594204
     26          7           0       -7.957071    0.532463   -0.049746
     27          6           0       -8.610968    1.687717   -0.024770
     28          6           0      -10.126520    1.497953   -0.202518
     29          6           0      -10.196089   -0.001603   -0.479283
     30          6           0       -8.816789   -0.464989   -0.191986
     31          6           0      -11.051378    1.983512    0.923506
     32          6           0      -10.848705   -0.356628   -1.791305
     33          6           0      -12.180798   -1.183438   -1.702181
     34          7           0       -6.053046   -1.558027   -0.220133
     35          6           0       -7.226383   -2.378531   -0.320328
     36          6           0       -6.876776   -3.770632   -0.498893
     37          6           0       -5.457058   -3.699295   -0.441327
     38          6           0       -5.035563   -2.375255   -0.265722
     39          6           0       -7.703133   -4.962445   -0.832087
     40          6           0       -4.320411   -4.548148   -0.695095
     41          8           0       -4.181476   -5.700498   -1.131719
     42          6           0       -3.084472   -3.736208   -0.398336
     43          6           0       -2.471043   -4.248226    0.923567
     44          8           0       -3.068397   -4.555938    1.966404
     45          8           0       -1.119193   -4.300969    0.755447
     46          6           0       -0.294490   -4.807169    1.898063
     47          6           0        4.377949   -2.215824   -0.118890
     48          6           0        5.835527   -1.822235   -0.496116
     49          6           0        6.640713   -0.966232    0.210766
     50          6           0        6.241511   -0.132570    1.353983
     51          6           0        7.972582   -0.687014   -0.451011
     52          6           0        7.805417    0.364645   -1.603224
     53          6           0        8.438075    1.819153   -1.275140
     54          6           0        9.620870    2.260727   -2.206805
     55          6           0        8.980077    3.117729   -3.378669
     56          6           0       10.477184    1.053627   -2.732913
     57          6           0       12.009805    1.267707   -2.969162
     58          6           0       13.076972    0.314972   -2.208836
     59          6           0       13.779222    0.932335   -0.910538
     60          6           0       15.310701    0.995274   -0.960675
     61          6           0       13.232407    0.282732    0.386766
     62          6           0       11.779222    0.733537    0.682568
     63          6           0       11.430271    0.989069    2.175438
     64          6           0       11.776689   -0.208715    3.144236
     65          6           0       10.837557   -1.398599    3.076031
     66          6           0       11.888325    0.300581    4.576288
     67          1           0       -2.393247    3.299463    0.413085
     68          1           0       -8.766612    3.689400    0.283246
     69          1           0       -9.423916   -2.482266   -0.354346
     70          1           0       -1.157267   -1.300259    1.365847
     71          1           0       -0.858943    1.158315   -0.337384
     72          1           0        0.035958    2.102836    1.474324
     73          1           0        0.126406    0.503979    2.174434
     74          1           0       -1.255436    1.550946    2.588650
     75          1           0       -0.913418   -0.899395   -1.651736
     76          1           0       -0.463790   -2.434254   -0.732549
     77          1           0        1.113454   -0.055519   -0.126045
     78          1           0        1.223005   -0.613495   -1.876846
     79          1           0       -2.739707    5.283734    0.731242
     80          1           0       -3.978561    6.158627    1.641193
     81          1           0       -3.790510    6.447965   -0.078352
     82          1           0       -5.806819    7.320462   -0.348130
     83          1           0       -5.649199    7.710127    1.338855
     84          1           0       -7.066036    8.168271    0.575002
     85          1           0      -10.422612    2.044030   -1.097540
     86          1           0      -10.842203   -0.438455    0.281954
     87          1           0      -11.903558    2.411773    0.396370
     88          1           0      -10.522883    2.668549    1.586307
     89          1           0      -11.342517    1.208430    1.632370
     90          1           0      -10.132344   -1.032076   -2.257874
     91          1           0      -11.073728    0.507497   -2.415742
     92          1           0      -12.416562   -1.398584   -0.659617
     93          1           0      -12.005721   -2.131372   -2.211900
     94          1           0      -13.034078   -0.754828   -2.228025
     95          1           0       -8.717479   -4.656301   -1.086614
     96          1           0       -7.803309   -5.509103    0.104877
     97          1           0       -7.181078   -5.437977   -1.663661
     98          1           0       -2.431683   -3.925192   -1.250750
     99          1           0       -0.544511   -4.387100    2.872604
    100          1           0        0.781359   -4.720129    1.749790
    101          1           0       -0.546753   -5.863612    1.988071
    102          1           0        4.204484   -3.217311   -0.513142
    103          1           0        4.242104   -2.336149    0.956140
    104          1           0        6.311911   -2.419634   -1.273354
    105          1           0        5.171952    0.074661    1.316787
    106          1           0        6.758048    0.791085    1.093653
    107          1           0        6.612080   -0.433464    2.333854
    108          1           0        8.425728   -1.579719   -0.881952
    109          1           0        8.724149   -0.300829    0.238509
    110          1           0        6.734401    0.501459   -1.753533
    111          1           0        8.137222   -0.131062   -2.515570
    112          1           0        8.847814    1.854678   -0.265870
    113          1           0        7.647577    2.568499   -1.309770
    114          1           0       10.285899    2.835716   -1.562159
    115          1           0        8.820122    4.120793   -2.983200
    116          1           0        7.981450    2.787455   -3.663486
    117          1           0        9.730463    3.086637   -4.168044
    118          1           0       10.143065    0.756417   -3.727225
    119          1           0       10.431318    0.206004   -2.048716
    120          1           0       12.314307    2.290218   -2.743808
    121          1           0       12.147154    1.200243   -4.048035
    122          1           0       13.824461   -0.142284   -2.857143
    123          1           0       12.565956   -0.539455   -1.765023
    124          1           0       13.476939    1.974091   -0.803166
    125          1           0       15.719605    0.276498   -0.249731
    126          1           0       15.599941    1.997214   -0.643670
    127          1           0       15.667301    0.825333   -1.976109
    128          1           0       13.903064    0.591942    1.188382
    129          1           0       13.279460   -0.798953    0.262407
    130          1           0       11.173181   -0.119687    0.378439
    131          1           0       11.494262    1.595593    0.079633
    132          1           0       10.361229    1.185582    2.244552
    133          1           0       11.994238    1.871577    2.476864
    134          1           0       12.798883   -0.549530    2.983519
    135          1           0        9.998077   -1.268652    3.758977
    136          1           0       11.432740   -2.286059    3.291977
    137          1           0       10.571007   -1.495719    2.023404
    138          1           0       11.405664   -0.493116    5.147128
    139          1           0       11.463377    1.301753    4.643519
    140          1           0       12.930057    0.513188    4.818828
 ---------------------------------------------------------------------

 SCF Done:  E(RwB97XD) =  -3007.88256408     A.U. after   19 cycles

 Excitation energies and oscillator strengths:

 Excited State   1:      Singlet-A      1.6648 eV  744.76 nm  f=0.3914  <S**2>=0.000
     245 -> 248        0.18231
     246 -> 247        0.68152
     245 <- 248        0.11268
 This state for optimization and/or second-order correction.
 Total Energy, E(TD-HF/TD-DFT) =  -3007.82138561
 Copying the excited state density for this state as the 1-particle RhoCI density.

 Excited State   2:      Singlet-A      2.2193 eV  558.65 nm  f=0.1164  <S**2>=0.000
     245 -> 247        0.63691
     246 -> 248       -0.28951

 Excited State   3:      Singlet-A      3.4068 eV  363.93 nm  f=0.0023  <S**2>=0.000
     242 -> 247       -0.13800
     242 -> 249        0.11087
     242 -> 250        0.14499
     243 -> 247       -0.11709
     244 -> 247        0.55850
     244 -> 249       -0.20537
     244 -> 250       -0.21038

 Excited State   4:      Singlet-A      3.4835 eV  355.92 nm  f=0.0351  <S**2>=0.000
     242 -> 247        0.60063
     242 -> 249       -0.10517
     244 -> 247        0.17667
     246 -> 248        0.22398

 Excited State   5:      Singlet-A      3.5529 eV  348.97 nm  f=0.6946  <S**2>=0.000
     241 -> 247        0.18228
     242 -> 247       -0.17946
     244 -> 247       -0.10352
     245 -> 247        0.27952
     246 -> 248        0.58351
     245 <- 247       -0.10618

 The electronic state is 1-A.
 Alpha  occ. eigenvalues --  -46.95430 -19.30778 -19.29803 -19.26410 -19.24486
 Alpha  occ. eigenvalues --  -19.23697 -19.22520 -14.46549 -14.46192 -14.44578
 Alpha  occ. eigenvalues --  -14.43759 -10.44287 -10.42700 -10.39990 -10.37115
 Alpha  occ. eigenvalues --  -10.35635 -10.35180 -10.34927 -10.34452 -10.34363
 Alpha  occ. eigenvalues --  -10.34311 -10.34224 -10.33935 -10.33892 -10.32656
 Alpha  occ. eigenvalues --  -10.32619 -10.32457 -10.32450 -10.32034 -10.32005
 Alpha  occ. eigenvalues --  -10.31855 -10.31797 -10.31548 -10.31470 -10.31410
 Alpha  occ. eigenvalues --  -10.30955 -10.30904 -10.30844 -10.30656 -10.30488
 Alpha  occ. eigenvalues --  -10.30431 -10.30342 -10.30157 -10.30151 -10.30109
 Alpha  occ. eigenvalues --  -10.29993 -10.29883 -10.29689 -10.29666 -10.29646
 Alpha  occ. eigenvalues --  -10.29588 -10.29550 -10.29515 -10.29496 -10.29467
 Alpha  occ. eigenvalues --  -10.29422 -10.29420 -10.29261 -10.29182 -10.29147
 Alpha  occ. eigenvalues --  -10.28931 -10.28896 -10.28616 -10.28296 -10.28242
 Alpha  occ. eigenvalues --  -10.27982  -3.21398  -1.94979  -1.94513  -1.94381
 Alpha  occ. eigenvalues --   -1.18511  -1.16799  -1.12526  -1.10649  -1.09930
 Alpha  occ. eigenvalues --   -1.07946  -1.07625  -1.06307  -1.05796  -1.04888
 Alpha  occ. eigenvalues --   -0.93038  -0.92334  -0.91685  -0.91523  -0.91056
 Alpha  occ. eigenvalues --   -0.90090  -0.90055  -0.89417  -0.89167  -0.89079
 Alpha  occ. eigenvalues --   -0.88847  -0.86901  -0.85349  -0.85043  -0.84836
 Alpha  occ. eigenvalues --   -0.84197  -0.83822  -0.82983  -0.82519  -0.81983
 Alpha  occ. eigenvalues --   -0.81702  -0.80387  -0.79833  -0.79261  -0.77894
 Alpha  occ. eigenvalues --   -0.77729  -0.77449  -0.77166  -0.76867  -0.76162
 Alpha  occ. eigenvalues --   -0.74842  -0.74358  -0.73534  -0.72042  -0.71199
 Alpha  occ. eigenvalues --   -0.70417  -0.69878  -0.69436  -0.69213  -0.68243
 Alpha  occ. eigenvalues --   -0.67663  -0.67482  -0.66623  -0.65924  -0.65229
 Alpha  occ. eigenvalues --   -0.64734  -0.64031  -0.63690  -0.63154  -0.62633
 Alpha  occ. eigenvalues --   -0.61599  -0.61397  -0.60806  -0.60541  -0.59982
 Alpha  occ. eigenvalues --   -0.59207  -0.58853  -0.58289  -0.58131  -0.57502
 Alpha  occ. eigenvalues --   -0.56783  -0.56550  -0.56238  -0.56166  -0.55781
 Alpha  occ. eigenvalues --   -0.55415  -0.55371  -0.55286  -0.54968  -0.54882
 Alpha  occ. eigenvalues --   -0.54624  -0.54378  -0.54216  -0.53815  -0.53569
 Alpha  occ. eigenvalues --   -0.53307  -0.52833  -0.52774  -0.52603  -0.52372
 Alpha  occ. eigenvalues --   -0.52296  -0.52222  -0.51936  -0.51824  -0.51640
 Alpha  occ. eigenvalues --   -0.51517  -0.51272  -0.51147  -0.50933  -0.50812
 Alpha  occ. eigenvalues --   -0.50753  -0.50510  -0.50043  -0.49909  -0.49751
 Alpha  occ. eigenvalues --   -0.49648  -0.49281  -0.48793  -0.48601  -0.48507
 Alpha  occ. eigenvalues --   -0.48442  -0.48099  -0.47990  -0.47744  -0.47494
 Alpha  occ. eigenvalues --   -0.47033  -0.46972  -0.46788  -0.46736  -0.46545
 Alpha  occ. eigenvalues --   -0.46276  -0.46226  -0.46142  -0.46021  -0.45821
 Alpha  occ. eigenvalues --   -0.45715  -0.45524  -0.45466  -0.45122  -0.44933
 Alpha  occ. eigenvalues --   -0.44705  -0.44608  -0.44348  -0.44333  -0.44037
 Alpha  occ. eigenvalues --   -0.43772  -0.43701  -0.43336  -0.43237  -0.43060
 Alpha  occ. eigenvalues --   -0.42909  -0.42834  -0.42574  -0.42154  -0.41786
 Alpha  occ. eigenvalues --   -0.41660  -0.41095  -0.40918  -0.40827  -0.40366
 Alpha  occ. eigenvalues --   -0.40180  -0.39674  -0.39554  -0.39545  -0.39010
 Alpha  occ. eigenvalues --   -0.38999  -0.38804  -0.38614  -0.38272  -0.38160
 Alpha  occ. eigenvalues --   -0.37983  -0.37658  -0.37578  -0.37306  -0.37042
 Alpha  occ. eigenvalues --   -0.36158  -0.35688  -0.35158  -0.33833  -0.33196
 Alpha  occ. eigenvalues --   -0.32685  -0.31762  -0.31654  -0.31624  -0.25712
 Alpha  occ. eigenvalues --   -0.22815
 Alpha virt. eigenvalues --   -0.06783   0.00253   0.02736   0.04782   0.05166
 Alpha virt. eigenvalues --    0.06289   0.06734   0.08436   0.08840   0.09591
 Alpha virt. eigenvalues --    0.10432   0.10894   0.11239   0.12013   0.12075

 Mulliken charges:
               1
     1  Mg   0.970443
     2  C   -0.075782
     3  C   -0.078912
     4  C   -0.049781
     5  C   -0.066678
     6  N   -0.355076
     7  C   -0.020097
     8  C   -0.024537
     9  C   -0.149949
    10  C    0.120493
    11  C    0.022740
    12  C    0.031492
    13  C   -0.028950
    14  C    0.226770
    15  O   -0.262329
    16  O   -0.365808
    17  N   -0.438305
    18  C    0.116235
    19  C   -0.187369
    20  C   -0.059381
    21  C    0.130721
    22  C    0.069909
    23  C    0.087421
    24  O   -0.227546
    25  C   -0.033122
    26  N   -0.274282
    27  C   -0.007541
    28  C   -0.114606
    29  C   -0.055508
    30  C    0.010038
    31  C    0.036133
    32  C    0.000510
    33  C   -0.068069
    34  N   -0.457128
    35  C    0.123957
    36  C   -0.170518
    37  C   -0.075956
    38  C    0.204947
    39  C    0.109260
    40  C    0.103361
    41  O   -0.238324
    42  C   -0.055968
    43  C    0.292891
    44  O   -0.269063
    45  O   -0.359714
    46  C    0.139047
    47  C    0.218393
    48  C   -0.119172
    49  C   -0.194923
    50  C    0.063305
    51  C   -0.004491
    52  C   -0.044765
    53  C   -0.003971
    54  C   -0.173401
    55  C   -0.000465
    56  C   -0.011933
    57  C   -0.028388
    58  C    0.019033
    59  C   -0.218913
    60  C    0.023703
    61  C   -0.013733
    62  C   -0.030010
    63  C    0.000028
    64  C   -0.252555
    65  C    0.017767
    66  C    0.015736
    67  H   -0.020672
    68  H    0.029222
    69  H    0.003998
    70  H    0.046032
    71  H    0.038185
    72  H    0.033827
    73  H    0.039718
    74  H    0.051539
    75  H    0.023499
    76  H    0.073017
    77  H    0.058361
    78  H    0.070165
    79  H    0.031033
    80  H    0.051110
    81  H    0.040755
    82  H    0.048581
    83  H    0.062865
    84  H    0.052155
    85  H    0.038621
    86  H    0.021293
    87  H    0.046270
    88  H    0.044237
    89  H    0.029668
    90  H    0.030519
    91  H    0.036773
    92  H    0.033091
    93  H    0.033421
    94  H    0.041781
    95  H    0.018953
    96  H    0.065731
    97  H    0.081152
    98  H    0.070283
    99  H    0.049851
   100  H    0.076137
   101  H    0.047598
   102  H    0.038275
   103  H    0.033475
   104  H    0.022683
   105  H    0.047866
   106  H    0.024251
   107  H    0.062060
   108  H    0.030619
   109  H    0.015206
   110  H    0.033617
   111  H    0.033282
   112  H    0.015707
   113  H    0.019646
   114  H    0.026513
   115  H    0.029703
   116  H    0.038963
   117  H    0.033738
   118  H    0.026591
   119  H    0.015576
   120  H    0.016974
   121  H    0.019925
   122  H    0.021295
   123  H    0.005005
   124  H    0.012848
   125  H    0.027614
   126  H    0.029301
   127  H    0.027822
   128  H    0.017842
   129  H    0.023762
   130  H    0.012930
   131  H    0.024454
   132  H    0.018406
   133  H    0.019724
   134  H    0.023667
   135  H    0.038468
   136  H    0.033215
   137  H    0.019872
   138  H    0.027860
   139  H    0.019973
   140  H    0.025191
 Sum of Mulliken charges =  -0.00000

 Dipole moment (field-independent basis, Debye):
    X=              3.5385    Y=              6.1772    Z=             -1.6437  Tot=              7.3062
 Quadrupole moment (field-independent basis, Debye-Ang):
   XX=           -361.5703   YY=           -427.3413   ZZ=           -403.7009
   XY=             -4.3074   XZ=             21.3896   YZ=             -2.4507

 Normal termination of Gaussian 16 at Fri Apr 29 06:07:19 2022.
