 Gaussian 16, Revision A.03,
 Gaussian 16:  ES64L-G16RevA.03 25-Dec-2016

 --------------------
 #p ZINDO=(nstates=5)
 --------------------

 ---------------------------
 step_1_chromophore_19 ZINDO
 ---------------------------
 Symbolic Z-matrix:
 Charge =  0 Multiplicity = 1

                         Standard orientation:
 ---------------------------------------------------------------------
 Center     Atomic      Atomic             Coordinates (Angstroms)
 Number     Number       Type             X           Y           Z
 ---------------------------------------------------------------------
      1         12           0       -5.741834    0.461631   -0.159544
      2          6           0       -3.625530   -2.232099   -0.134337
      3          6           0       -3.154386    2.517824    0.366339
      4          6           0       -7.977496    2.977133    0.033380
      5          6           0       -8.540246   -1.859158   -0.205377
      6          7           0       -3.617081    0.105727    0.360686
      7          6           0       -2.946020   -1.041330    0.201010
      8          6           0       -1.362884   -0.809885    0.415036
      9          6           0       -1.336397    0.757962    0.556934
     10          6           0       -2.811183    1.199034    0.466074
     11          6           0       -0.567491    1.254949    1.796586
     12          6           0       -0.486655   -1.344746   -0.753064
     13          6           0        1.000674   -0.870508   -0.841748
     14          6           0        2.119442   -1.879354   -0.379277
     15          8           0        1.933934   -2.954964    0.192434
     16          8           0        3.385106   -1.298903   -0.615764
     17          7           0       -5.585740    2.485299    0.208375
     18          6           0       -4.456394    3.156796    0.295774
     19          6           0       -4.766775    4.572058    0.429507
     20          6           0       -6.181565    4.759777    0.449544
     21          6           0       -6.646688    3.374358    0.219247
     22          6           0       -3.755652    5.676396    0.689734
     23          6           0       -7.016864    6.013144    0.689180
     24          8           0       -8.211831    5.935603    0.959496
     25          6           0       -6.354886    7.343143    0.594204
     26          7           0       -7.957071    0.532463   -0.049746
     27          6           0       -8.610968    1.687717   -0.024770
     28          6           0      -10.126520    1.497953   -0.202518
     29          6           0      -10.196089   -0.001603   -0.479283
     30          6           0       -8.816789   -0.464989   -0.191986
     31          6           0      -11.051378    1.983512    0.923506
     32          6           0      -10.848705   -0.356628   -1.791305
     33          6           0      -12.180798   -1.183438   -1.702181
     34          7           0       -6.053046   -1.558027   -0.220133
     35          6           0       -7.226383   -2.378531   -0.320328
     36          6           0       -6.876776   -3.770632   -0.498893
     37          6           0       -5.457058   -3.699295   -0.441327
     38          6           0       -5.035563   -2.375255   -0.265722
     39          6           0       -7.703133   -4.962445   -0.832087
     40          6           0       -4.320411   -4.548148   -0.695095
     41          8           0       -4.181476   -5.700498   -1.131719
     42          6           0       -3.084472   -3.736208   -0.398336
     43          6           0       -2.471043   -4.248226    0.923567
     44          8           0       -3.068397   -4.555938    1.966404
     45          8           0       -1.119193   -4.300969    0.755447
     46          6           0       -0.294490   -4.807169    1.898063
     47          6           0        4.377949   -2.215824   -0.118890
     48          6           0        5.835527   -1.822235   -0.496116
     49          6           0        6.640713   -0.966232    0.210766
     50          6           0        6.241511   -0.132570    1.353983
     51          6           0        7.972582   -0.687014   -0.451011
     52          6           0        7.805417    0.364645   -1.603224
     53          6           0        8.438075    1.819153   -1.275140
     54          6           0        9.620870    2.260727   -2.206805
     55          6           0        8.980077    3.117729   -3.378669
     56          6           0       10.477184    1.053627   -2.732913
     57          6           0       12.009805    1.267707   -2.969162
     58          6           0       13.076972    0.314972   -2.208836
     59          6           0       13.779222    0.932335   -0.910538
     60          6           0       15.310701    0.995274   -0.960675
     61          6           0       13.232407    0.282732    0.386766
     62          6           0       11.779222    0.733537    0.682568
     63          6           0       11.430271    0.989069    2.175438
     64          6           0       11.776689   -0.208715    3.144236
     65          6           0       10.837557   -1.398599    3.076031
     66          6           0       11.888325    0.300581    4.576288
     67          1           0       -2.393247    3.299463    0.413085
     68          1           0       -8.766612    3.689400    0.283246
     69          1           0       -9.423916   -2.482266   -0.354346
     70          1           0       -1.157267   -1.300259    1.365847
     71          1           0       -0.858943    1.158315   -0.337384
     72          1           0        0.035958    2.102836    1.474324
     73          1           0        0.126406    0.503979    2.174434
     74          1           0       -1.255436    1.550946    2.588650
     75          1           0       -0.913418   -0.899395   -1.651736
     76          1           0       -0.463790   -2.434254   -0.732549
     77          1           0        1.113454   -0.055519   -0.126045
     78          1           0        1.223005   -0.613495   -1.876846
     79          1           0       -2.739707    5.283734    0.731242
     80          1           0       -3.978561    6.158627    1.641193
     81          1           0       -3.790510    6.447965   -0.078352
     82          1           0       -5.806819    7.320462   -0.348130
     83          1           0       -5.649199    7.710127    1.338855
     84          1           0       -7.066036    8.168271    0.575002
     85          1           0      -10.422612    2.044030   -1.097540
     86          1           0      -10.842203   -0.438455    0.281954
     87          1           0      -11.903558    2.411773    0.396370
     88          1           0      -10.522883    2.668549    1.586307
     89          1           0      -11.342517    1.208430    1.632370
     90          1           0      -10.132344   -1.032076   -2.257874
     91          1           0      -11.073728    0.507497   -2.415742
     92          1           0      -12.416562   -1.398584   -0.659617
     93          1           0      -12.005721   -2.131372   -2.211900
     94          1           0      -13.034078   -0.754828   -2.228025
     95          1           0       -8.717479   -4.656301   -1.086614
     96          1           0       -7.803309   -5.509103    0.104877
     97          1           0       -7.181078   -5.437977   -1.663661
     98          1           0       -2.431683   -3.925192   -1.250750
     99          1           0       -0.544511   -4.387100    2.872604
    100          1           0        0.781359   -4.720129    1.749790
    101          1           0       -0.546753   -5.863612    1.988071
    102          1           0        4.204484   -3.217311   -0.513142
    103          1           0        4.242104   -2.336149    0.956140
    104          1           0        6.311911   -2.419634   -1.273354
    105          1           0        5.171952    0.074661    1.316787
    106          1           0        6.758048    0.791085    1.093653
    107          1           0        6.612080   -0.433464    2.333854
    108          1           0        8.425728   -1.579719   -0.881952
    109          1           0        8.724149   -0.300829    0.238509
    110          1           0        6.734401    0.501459   -1.753533
    111          1           0        8.137222   -0.131062   -2.515570
    112          1           0        8.847814    1.854678   -0.265870
    113          1           0        7.647577    2.568499   -1.309770
    114          1           0       10.285899    2.835716   -1.562159
    115          1           0        8.820122    4.120793   -2.983200
    116          1           0        7.981450    2.787455   -3.663486
    117          1           0        9.730463    3.086637   -4.168044
    118          1           0       10.143065    0.756417   -3.727225
    119          1           0       10.431318    0.206004   -2.048716
    120          1           0       12.314307    2.290218   -2.743808
    121          1           0       12.147154    1.200243   -4.048035
    122          1           0       13.824461   -0.142284   -2.857143
    123          1           0       12.565956   -0.539455   -1.765023
    124          1           0       13.476939    1.974091   -0.803166
    125          1           0       15.719605    0.276498   -0.249731
    126          1           0       15.599941    1.997214   -0.643670
    127          1           0       15.667301    0.825333   -1.976109
    128          1           0       13.903064    0.591942    1.188382
    129          1           0       13.279460   -0.798953    0.262407
    130          1           0       11.173181   -0.119687    0.378439
    131          1           0       11.494262    1.595593    0.079633
    132          1           0       10.361229    1.185582    2.244552
    133          1           0       11.994238    1.871577    2.476864
    134          1           0       12.798883   -0.549530    2.983519
    135          1           0        9.998077   -1.268652    3.758977
    136          1           0       11.432740   -2.286059    3.291977
    137          1           0       10.571007   -1.495719    2.023404
    138          1           0       11.405664   -0.493116    5.147128
    139          1           0       11.463377    1.301753    4.643519
    140          1           0       12.930057    0.513188    4.818828
 ---------------------------------------------------------------------

 SCF Done:  E(RZINDO/S) =  -474.127591360     A.U. after   19 cycles

 Excitation energies and oscillator strengths:

 Excited State   1:      Singlet-A      1.2457 eV  995.28 nm  f=0.6043  <S**2>=0.000
     175 ->178        -0.19064
     176 ->177         0.66139
 This state for optimization and/or second-order correction.
 Total Energy, E(CIS/TDA) =  -474.081811904
 Copying the excited state density for this state as the 1-particle RhoCI density.

 Excited State   2:      Singlet-A      1.9781 eV  626.78 nm  f=0.0457  <S**2>=0.000
     175 ->177         0.55208
     176 ->178         0.41765

 Excited State   3:      Singlet-A      2.9498 eV  420.31 nm  f=0.1524  <S**2>=0.000
     170 ->177         0.33956
     170 ->179        -0.30349
     170 ->181         0.29467
     170 ->186        -0.20118
     170 ->187        -0.14817
     175 ->177         0.14226
     176 ->178        -0.20813
     176 ->179        -0.13043

 Excited State   4:      Singlet-A      2.9620 eV  418.58 nm  f=0.7798  <S**2>=0.000
     170 ->177         0.15392
     170 ->179        -0.14501
     170 ->181         0.13267
     175 ->177        -0.32804
     176 ->178         0.46366
     176 ->179         0.22587

 Excited State   5:      Singlet-A      3.0599 eV  405.18 nm  f=0.0260  <S**2>=0.000
     168 ->177        -0.27161
     168 ->178        -0.21793
     168 ->179        -0.36464
     168 ->181        -0.35221
     168 ->186        -0.20921
     168 ->187         0.11490
     168 ->195         0.10633

 The electronic state is 1-A.
 Alpha  occ. eigenvalues --   -1.84987  -1.82653  -1.80828  -1.73348  -1.71717
 Alpha  occ. eigenvalues --   -1.69410  -1.64978  -1.59811  -1.58748  -1.57738
 Alpha  occ. eigenvalues --   -1.55277  -1.51310  -1.49591  -1.48448  -1.45521
 Alpha  occ. eigenvalues --   -1.43588  -1.42118  -1.40154  -1.38686  -1.35765
 Alpha  occ. eigenvalues --   -1.35412  -1.34500  -1.32114  -1.31415  -1.28574
 Alpha  occ. eigenvalues --   -1.27798  -1.24556  -1.22181  -1.20902  -1.18320
 Alpha  occ. eigenvalues --   -1.17541  -1.16053  -1.14956  -1.13692  -1.13290
 Alpha  occ. eigenvalues --   -1.12432  -1.10844  -1.10506  -1.04748  -1.03906
 Alpha  occ. eigenvalues --   -1.01916  -1.00374  -0.99211  -0.97911  -0.96897
 Alpha  occ. eigenvalues --   -0.95811  -0.95350  -0.93993  -0.93400  -0.91999
 Alpha  occ. eigenvalues --   -0.90672  -0.90611  -0.88736  -0.87072  -0.85783
 Alpha  occ. eigenvalues --   -0.83076  -0.83014  -0.82713  -0.81767  -0.80410
 Alpha  occ. eigenvalues --   -0.79521  -0.79181  -0.77934  -0.77043  -0.76207
 Alpha  occ. eigenvalues --   -0.76030  -0.75265  -0.74578  -0.74491  -0.73785
 Alpha  occ. eigenvalues --   -0.73262  -0.73086  -0.72306  -0.71284  -0.70857
 Alpha  occ. eigenvalues --   -0.70353  -0.69315  -0.68995  -0.68137  -0.68027
 Alpha  occ. eigenvalues --   -0.67452  -0.66749  -0.66432  -0.66067  -0.65689
 Alpha  occ. eigenvalues --   -0.65177  -0.64525  -0.64471  -0.64276  -0.63496
 Alpha  occ. eigenvalues --   -0.63106  -0.62710  -0.62313  -0.61800  -0.61465
 Alpha  occ. eigenvalues --   -0.61069  -0.60752  -0.60384  -0.60198  -0.60076
 Alpha  occ. eigenvalues --   -0.59833  -0.59561  -0.58715  -0.58450  -0.58009
 Alpha  occ. eigenvalues --   -0.57776  -0.57596  -0.57143  -0.56884  -0.56745
 Alpha  occ. eigenvalues --   -0.56316  -0.56098  -0.55725  -0.55063  -0.54617
 Alpha  occ. eigenvalues --   -0.54438  -0.54073  -0.53939  -0.53060  -0.52966
 Alpha  occ. eigenvalues --   -0.52797  -0.52411  -0.52207  -0.52096  -0.51630
 Alpha  occ. eigenvalues --   -0.51551  -0.51111  -0.50851  -0.50366  -0.50062
 Alpha  occ. eigenvalues --   -0.49888  -0.49838  -0.49439  -0.49147  -0.48749
 Alpha  occ. eigenvalues --   -0.48599  -0.48458  -0.48257  -0.47526  -0.47369
 Alpha  occ. eigenvalues --   -0.47272  -0.46950  -0.46915  -0.46588  -0.46153
 Alpha  occ. eigenvalues --   -0.46065  -0.45512  -0.45416  -0.45311  -0.45179
 Alpha  occ. eigenvalues --   -0.45089  -0.44981  -0.44432  -0.44301  -0.43991
 Alpha  occ. eigenvalues --   -0.43792  -0.43674  -0.43422  -0.43183  -0.42932
 Alpha  occ. eigenvalues --   -0.42209  -0.41821  -0.40782  -0.39609  -0.38870
 Alpha  occ. eigenvalues --   -0.37773  -0.37128  -0.36068  -0.35129  -0.33993
 Alpha  occ. eigenvalues --   -0.33166  -0.32754  -0.32202  -0.31843  -0.26509
 Alpha  occ. eigenvalues --   -0.21785
 Alpha virt. eigenvalues --   -0.08393  -0.02025  -0.00237   0.01159   0.01574
 Alpha virt. eigenvalues --    0.01747   0.03125   0.03337   0.04134   0.04789
 Alpha virt. eigenvalues --    0.06316   0.06831   0.07148   0.07722   0.07952

 Mulliken charges:
               1
     1  Mg   0.435674
     2  C   -0.084638
     3  C   -0.101790
     4  C   -0.055117
     5  C   -0.051866
     6  N   -0.299011
     7  C    0.144348
     8  C    0.000883
     9  C   -0.000129
    10  C    0.138159
    11  C   -0.048344
    12  C   -0.026543
    13  C   -0.001256
    14  C    0.453049
    15  O   -0.502078
    16  O   -0.265471
    17  N   -0.296671
    18  C    0.124731
    19  C   -0.015216
    20  C   -0.046432
    21  C    0.107409
    22  C   -0.047890
    23  C    0.346684
    24  O   -0.516045
    25  C   -0.029931
    26  N   -0.232391
    27  C    0.111388
    28  C    0.002596
    29  C    0.006627
    30  C    0.121774
    31  C   -0.051613
    32  C   -0.029170
    33  C   -0.064638
    34  N   -0.327435
    35  C    0.072809
    36  C    0.049249
    37  C   -0.064540
    38  C    0.165004
    39  C   -0.030509
    40  C    0.331271
    41  O   -0.548035
    42  C    0.048381
    43  C    0.486751
    44  O   -0.528399
    45  O   -0.265475
    46  C    0.071417
    47  C    0.101179
    48  C   -0.119986
    49  C    0.018792
    50  C   -0.038496
    51  C   -0.021453
    52  C   -0.037714
    53  C   -0.039361
    54  C   -0.015995
    55  C   -0.058436
    56  C   -0.034483
    57  C   -0.042511
    58  C   -0.044436
    59  C   -0.021230
    60  C   -0.057137
    61  C   -0.030100
    62  C   -0.042874
    63  C   -0.032945
    64  C   -0.019582
    65  C   -0.053805
    66  C   -0.067802
    67  H    0.019632
    68  H    0.041143
    69  H    0.037681
    70  H    0.044994
    71  H    0.023779
    72  H    0.015492
    73  H    0.022142
    74  H    0.029526
    75  H    0.021426
    76  H    0.044986
    77  H    0.046880
    78  H    0.046016
    79  H    0.019472
    80  H    0.028288
    81  H    0.026751
    82  H    0.029289
    83  H    0.045682
    84  H    0.030745
    85  H    0.028310
    86  H    0.024470
    87  H    0.026274
    88  H    0.027571
    89  H    0.021000
    90  H    0.019458
    91  H    0.027272
    92  H    0.023012
    93  H    0.013896
    94  H    0.023540
    95  H    0.019491
    96  H    0.046878
    97  H    0.052052
    98  H    0.063392
    99  H    0.043159
   100  H    0.048101
   101  H    0.037379
   102  H    0.039812
   103  H    0.042611
   104  H    0.032693
   105  H    0.029485
   106  H    0.020012
   107  H    0.041400
   108  H    0.020261
   109  H    0.016566
   110  H    0.016712
   111  H    0.027875
   112  H    0.015887
   113  H    0.018377
   114  H    0.023860
   115  H    0.015791
   116  H    0.028524
   117  H    0.023377
   118  H    0.019883
   119  H    0.022943
   120  H    0.016785
   121  H    0.013932
   122  H    0.025454
   123  H    0.014794
   124  H    0.013203
   125  H    0.020794
   126  H    0.016493
   127  H    0.021313
   128  H    0.015850
   129  H    0.021619
   130  H    0.013489
   131  H    0.023708
   132  H    0.017268
   133  H    0.017353
   134  H    0.018701
   135  H    0.029652
   136  H    0.017816
   137  H    0.014809
   138  H    0.029202
   139  H    0.018066
   140  H    0.015250
 Sum of Mulliken charges =  -0.00000

 Dipole moment (field-independent basis, Debye):
    X=              3.7365    Y=              8.1525    Z=             -3.1107  Tot=              9.4922
 N-N= 4.293853121136D+03 E-N= 0.000000000000D+00  KE=-9.261978442430D+03
 Leave Link  601 at Fri Apr 29 06:20:03 2022, MaxMem=  6710886400 cpu:               3.0 elap:               0.1
 (Enter /sw/apps/gaussian-16.0/g16/l9999.exe)
 1\1\GINC-BP1-COMPUTE137\SP\RZINDO CIS\STO-3G\C55H74Mg1N4O6\OF15641\29-
 Apr-2022\0\\#p ZINDO=(nstates=5)\\step_1_chromophore_19 ZINDO\\0,1\Mg,
 0,26.065,50.953,26.706\C,0,23.951,52.215,29.088\C,0,28.121,49.839,29.1
 \C,0,28.157,49.986,24.246\C,0,24.066,52.636,24.178\N,0,26.141,51.278,2
 8.897\C,0,25.135,51.71,29.667\C,0,25.495,51.528,31.23\C,0,26.854,50.74
 3,31.104\C,0,27.116,50.625,29.589\C,0,28.001,51.353,31.933\C,0,24.408,
 50.766,32.04\C,0,24.787,50.214,33.453\C,0,24.268,51.007,34.712\O,0,23.

 Normal termination of Gaussian 16 at Fri Apr 29 06:20:03 2022.
