 Gaussian 16, Revision A.03,
 Gaussian 16:  ES64L-G16RevA.03 25-Dec-2016

 ------------------------------
 #p blyp/Def2SVP td=(nstates=5)
 ------------------------------

 ------------------------------------------------
 step_1_chromophore_16 TDDFT with blyp functional
 ------------------------------------------------
 Symbolic Z-matrix:
 Charge =  0 Multiplicity = 1

                         Standard orientation:
 ---------------------------------------------------------------------
 Center     Atomic      Atomic             Coordinates (Angstroms)
 Number     Number       Type             X           Y           Z
 ---------------------------------------------------------------------
      1         12           0        6.145651    0.540386    0.013028
      2          6           0        3.786815   -2.262675   -0.114026
      3          6           0        3.353706    2.629408   -0.328979
      4          6           0        8.194483    3.063516   -0.239326
      5          6           0        8.706026   -1.683466    0.523799
      6          7           0        3.894316    0.218640   -0.401192
      7          6           0        3.109782   -1.004577   -0.286524
      8          6           0        1.594369   -0.794242   -0.492682
      9          6           0        1.587282    0.820580   -0.762499
     10          6           0        3.029424    1.299430   -0.504640
     11          6           0        1.068530    1.209420   -2.133268
     12          6           0        0.794559   -1.320597    0.737269
     13          6           0       -0.645737   -0.908127    0.791135
     14          6           0       -1.704370   -1.923205    1.160707
     15          8           0       -1.809772   -2.478089    2.238562
     16          8           0       -2.562232   -2.063976    0.123008
     17          7           0        5.847515    2.604232   -0.274965
     18          6           0        4.629455    3.284443   -0.385548
     19          6           0        4.876758    4.719920   -0.507748
     20          6           0        6.322159    4.883682   -0.477201
     21          6           0        6.891386    3.493892   -0.323680
     22          6           0        3.760128    5.826395   -0.556105
     23          6           0        7.178610    6.090399   -0.616175
     24          8           0        8.400059    6.096498   -0.540187
     25          6           0        6.561811    7.421351   -0.744615
     26          7           0        8.095546    0.685962    0.212368
     27          6           0        8.758988    1.812580   -0.053859
     28          6           0       10.290501    1.652766    0.091913
     29          6           0       10.377909    0.292726    0.752739
     30          6           0        8.967893   -0.335900    0.426690
     31          6           0       11.032190    1.719275   -1.238126
     32          6           0       10.705977    0.111040    2.212117
     33          6           0        9.685735    0.706571    3.158676
     34          7           0        6.289065   -1.536345    0.079162
     35          6           0        7.427420   -2.296234    0.403461
     36          6           0        7.066265   -3.692333    0.421751
     37          6           0        5.653984   -3.645968    0.295753
     38          6           0        5.216399   -2.326107    0.075006
     39          6           0        7.931182   -4.880458    0.726419
     40          6           0        4.466396   -4.554234    0.338144
     41          8           0        4.374551   -5.768932    0.616739
     42          6           0        3.258639   -3.668321    0.040814
     43          6           0        2.490194   -4.217323   -1.163098
     44          8           0        2.843942   -4.338841   -2.373045
     45          8           0        1.213290   -4.449029   -0.744541
     46          6           0        0.269065   -4.910445   -1.787322
     47          6           0       -3.542354   -3.209611    0.274334
     48          6           0       -4.860750   -2.518937    0.553270
     49          6           0       -6.066204   -2.921480    0.063895
     50          6           0       -6.228763   -4.211071   -0.705817
     51          6           0       -7.361865   -2.107560    0.401564
     52          6           0       -7.331815   -0.747738   -0.331513
     53          6           0       -7.857535    0.420325    0.542428
     54          6           0       -9.074381    1.047817   -0.129583
     55          6           0       -9.236476    2.428889    0.523640
     56          6           0      -10.397137    0.169512   -0.123484
     57          6           0      -10.745486   -0.442048   -1.480031
     58          6           0      -11.710970    0.392502   -2.317566
     59          6           0      -13.118629    0.550445   -1.695988
     60          6           0      -14.145649   -0.136670   -2.559365
     61          6           0      -13.429196    2.081958   -1.356963
     62          6           0      -14.431973    2.285347   -0.195143
     63          6           0      -13.785881    2.755319    1.096347
     64          6           0      -14.285406    1.992007    2.292401
     65          6           0      -13.125073    1.393756    3.023507
     66          6           0      -15.147361    2.998517    3.168673
     67          1           0        2.480010    3.275565   -0.230788
     68          1           0        8.900784    3.883502   -0.384654
     69          1           0        9.472614   -2.449735    0.657443
     70          1           0        1.330416   -1.443853   -1.327157
     71          1           0        1.027436    1.307225    0.036182
     72          1           0        0.209924    1.868851   -2.003389
     73          1           0        0.742762    0.285517   -2.609839
     74          1           0        1.800407    1.507640   -2.883638
     75          1           0        1.395985   -1.058241    1.608337
     76          1           0        0.820297   -2.410287    0.724479
     77          1           0       -1.087572   -0.531348   -0.131031
     78          1           0       -0.775585   -0.168232    1.580418
     79          1           0        3.931071    6.428486    0.336757
     80          1           0        2.747983    5.423994   -0.517297
     81          1           0        3.931003    6.387802   -1.474738
     82          1           0        5.716418    7.451251   -1.432322
     83          1           0        7.370763    8.039188   -1.132869
     84          1           0        6.120377    7.596237    0.236062
     85          1           0       10.637005    2.474441    0.718821
     86          1           0       11.152045   -0.331154    0.305101
     87          1           0       11.947703    2.291746   -1.093622
     88          1           0       10.431823    2.213965   -2.000888
     89          1           0       11.396843    0.729676   -1.515827
     90          1           0       11.718420    0.481502    2.375132
     91          1           0       10.654741   -0.940095    2.495519
     92          1           0       10.155232    1.277937    3.958594
     93          1           0        9.104874   -0.051992    3.683828
     94          1           0        8.980379    1.390790    2.686896
     95          1           0        7.466149   -5.479654    1.508857
     96          1           0        8.967164   -4.750115    1.039136
     97          1           0        7.978660   -5.476720   -0.185040
     98          1           0        2.567378   -3.746596    0.880425
     99          1           0       -0.342932   -4.074434   -2.125281
    100          1           0       -0.230386   -5.696257   -1.220602
    101          1           0        0.771328   -5.431038   -2.603692
    102          1           0       -3.378749   -3.907054    1.095466
    103          1           0       -3.566440   -3.880690   -0.583322
    104          1           0       -4.847757   -1.578954    1.104638
    105          1           0       -5.443005   -4.911454   -0.421320
    106          1           0       -6.172115   -4.016733   -1.776820
    107          1           0       -7.208942   -4.621485   -0.463020
    108          1           0       -7.430004   -2.037870    1.486612
    109          1           0       -8.208912   -2.724447    0.098401
    110          1           0       -7.956171   -0.863666   -1.217145
    111          1           0       -6.340058   -0.448062   -0.671788
    112          1           0       -6.971064    1.049954    0.608405
    113          1           0       -8.115249    0.072657    1.543156
    114          1           0       -8.839846    1.213888   -1.181560
    115          1           0       -9.516621    2.198147    1.551463
    116          1           0      -10.116356    2.811922    0.007144
    117          1           0       -8.362544    3.060645    0.369755
    118          1           0      -11.167751    0.772140    0.357887
    119          1           0      -10.281416   -0.625168    0.613994
    120          1           0      -11.186034   -1.422493   -1.297857
    121          1           0       -9.824595   -0.594067   -2.041192
    122          1           0      -11.702398    0.017216   -3.341427
    123          1           0      -11.166946    1.332919   -2.407786
    124          1           0      -13.112861    0.146868   -0.683198
    125          1           0      -14.908854    0.566702   -2.892713
    126          1           0      -14.591571   -0.971057   -2.017987
    127          1           0      -13.621819   -0.596459   -3.397841
    128          1           0      -13.833717    2.585171   -2.234227
    129          1           0      -12.435901    2.459022   -1.110595
    130          1           0      -14.859656    1.298033   -0.018995
    131          1           0      -15.257460    2.976423   -0.364675
    132          1           0      -14.082197    3.802060    1.175690
    133          1           0      -12.696293    2.743090    1.099404
    134          1           0      -14.799723    1.045140    2.128310
    135          1           0      -12.526592    0.671803    2.467319
    136          1           0      -13.483159    0.908110    3.930886
    137          1           0      -12.410377    2.168799    3.298457
    138          1           0      -14.610377    3.817683    3.646852
    139          1           0      -15.645576    2.440952    3.961594
    140          1           0      -15.990048    3.484882    2.677021
 ---------------------------------------------------------------------

 SCF Done:  E(RB-LYP) =  -3007.38368378     A.U. after   22 cycles

 Excitation energies and oscillator strengths:

 Excited State   1:      Singlet-A      1.7635 eV  703.05 nm  f=0.0163  <S**2>=0.000
     244 -> 247        0.66850
     245 -> 247       -0.17713
     246 -> 247        0.13314
 This state for optimization and/or second-order correction.
 Total Energy, E(TD-HF/TD-DFT) =  -3007.31887585
 Copying the excited state density for this state as the 1-particle RhoCI density.

 Excited State   2:      Singlet-A      1.7850 eV  694.59 nm  f=0.2896  <S**2>=0.000
     243 -> 247        0.13210
     245 -> 247        0.11381
     245 -> 248        0.17886
     246 -> 247        0.66660
     246 <- 247       -0.15059

 Excited State   3:      Singlet-A      1.8268 eV  678.71 nm  f=0.0190  <S**2>=0.000
     243 -> 247        0.67254
     244 -> 247        0.11092
     245 -> 247        0.12402
     246 -> 247       -0.13447

 Excited State   4:      Singlet-A      1.9859 eV  624.33 nm  f=0.0952  <S**2>=0.000
     243 -> 247       -0.16214
     244 -> 247        0.17162
     245 -> 247        0.61034
     246 -> 248       -0.21761

 Excited State   5:      Singlet-A      2.0203 eV  613.68 nm  f=0.0010  <S**2>=0.000
     242 -> 247        0.70294

 The electronic state is 1-A.
 Alpha  occ. eigenvalues --  -46.26285 -18.82988 -18.82827 -18.76766 -18.76389
 Alpha  occ. eigenvalues --  -18.75474 -18.75247 -14.03594 -14.03305 -14.01298
 Alpha  occ. eigenvalues --  -14.00658 -10.04575 -10.03761  -9.99466  -9.99261
 Alpha  occ. eigenvalues --   -9.98485  -9.98111  -9.97496  -9.96798  -9.96547
 Alpha  occ. eigenvalues --   -9.96479  -9.96416  -9.95931  -9.95441  -9.95260
 Alpha  occ. eigenvalues --   -9.95035  -9.94785  -9.94679  -9.94631  -9.94357
 Alpha  occ. eigenvalues --   -9.94289  -9.93470  -9.93465  -9.93458  -9.93407
 Alpha  occ. eigenvalues --   -9.93329  -9.93272  -9.93173  -9.93041  -9.92723
 Alpha  occ. eigenvalues --   -9.92586  -9.92539  -9.92339  -9.92266  -9.92176
 Alpha  occ. eigenvalues --   -9.91952  -9.91884  -9.91854  -9.91796  -9.91615
 Alpha  occ. eigenvalues --   -9.91609  -9.91571  -9.91541  -9.91526  -9.91203
 Alpha  occ. eigenvalues --   -9.91118  -9.91111  -9.91059  -9.91052  -9.90916
 Alpha  occ. eigenvalues --   -9.90912  -9.90855  -9.90797  -9.90764  -9.90632
 Alpha  occ. eigenvalues --   -9.90336  -2.91109  -1.71542  -1.70988  -1.70825
 Alpha  occ. eigenvalues --   -0.98140  -0.97719  -0.91654  -0.89838  -0.89641
 Alpha  occ. eigenvalues --   -0.88050  -0.87325  -0.85505  -0.84465  -0.83106
 Alpha  occ. eigenvalues --   -0.75329  -0.73871  -0.73325  -0.73020  -0.72973
 Alpha  occ. eigenvalues --   -0.72387  -0.72073  -0.71338  -0.70764  -0.70135
 Alpha  occ. eigenvalues --   -0.69564  -0.69323  -0.68213  -0.67990  -0.67604
 Alpha  occ. eigenvalues --   -0.66828  -0.66107  -0.65774  -0.65448  -0.64927
 Alpha  occ. eigenvalues --   -0.64252  -0.62693  -0.62251  -0.61821  -0.60824
 Alpha  occ. eigenvalues --   -0.60561  -0.60341  -0.60233  -0.59715  -0.59258
 Alpha  occ. eigenvalues --   -0.58371  -0.57629  -0.57021  -0.55920  -0.55452
 Alpha  occ. eigenvalues --   -0.53980  -0.53708  -0.52785  -0.52371  -0.51357
 Alpha  occ. eigenvalues --   -0.50841  -0.50780  -0.50601  -0.50042  -0.50026
 Alpha  occ. eigenvalues --   -0.49830  -0.49593  -0.48480  -0.48335  -0.46478
 Alpha  occ. eigenvalues --   -0.46166  -0.45752  -0.45685  -0.45321  -0.44333
 Alpha  occ. eigenvalues --   -0.44078  -0.43575  -0.43076  -0.42673  -0.42462
 Alpha  occ. eigenvalues --   -0.42405  -0.42203  -0.42102  -0.41633  -0.41535
 Alpha  occ. eigenvalues --   -0.41323  -0.40794  -0.40542  -0.40476  -0.40210
 Alpha  occ. eigenvalues --   -0.40116  -0.40051  -0.39801  -0.39494  -0.39358
 Alpha  occ. eigenvalues --   -0.39273  -0.38860  -0.38525  -0.38234  -0.38150
 Alpha  occ. eigenvalues --   -0.38020  -0.37991  -0.37897  -0.37652  -0.37608
 Alpha  occ. eigenvalues --   -0.37134  -0.36935  -0.36647  -0.36516  -0.36373
 Alpha  occ. eigenvalues --   -0.36339  -0.36172  -0.36028  -0.35860  -0.35666
 Alpha  occ. eigenvalues --   -0.35604  -0.35540  -0.35173  -0.34926  -0.34836
 Alpha  occ. eigenvalues --   -0.34666  -0.34641  -0.34457  -0.34250  -0.34093
 Alpha  occ. eigenvalues --   -0.33955  -0.33911  -0.33635  -0.33540  -0.33196
 Alpha  occ. eigenvalues --   -0.32888  -0.32733  -0.32691  -0.32592  -0.32377
 Alpha  occ. eigenvalues --   -0.32145  -0.32021  -0.31879  -0.31707  -0.31422
 Alpha  occ. eigenvalues --   -0.31331  -0.31248  -0.30908  -0.30883  -0.30782
 Alpha  occ. eigenvalues --   -0.30597  -0.30425  -0.30147  -0.30068  -0.30023
 Alpha  occ. eigenvalues --   -0.29687  -0.29635  -0.29569  -0.29290  -0.29012
 Alpha  occ. eigenvalues --   -0.28724  -0.28619  -0.28294  -0.28102  -0.27978
 Alpha  occ. eigenvalues --   -0.27790  -0.27587  -0.27253  -0.27149  -0.26614
 Alpha  occ. eigenvalues --   -0.26480  -0.25987  -0.25701  -0.25615  -0.25502
 Alpha  occ. eigenvalues --   -0.25190  -0.24583  -0.24133  -0.23984  -0.23913
 Alpha  occ. eigenvalues --   -0.23368  -0.22510  -0.21611  -0.21546  -0.20783
 Alpha  occ. eigenvalues --   -0.20151  -0.19449  -0.18663  -0.18454  -0.17447
 Alpha  occ. eigenvalues --   -0.16168
 Alpha virt. eigenvalues --   -0.12026  -0.06946  -0.06158  -0.04707  -0.03485
 Alpha virt. eigenvalues --   -0.02631  -0.02325  -0.02033  -0.00795  -0.00102
 Alpha virt. eigenvalues --    0.00947   0.01160   0.02046   0.02224   0.02586

 Mulliken charges:
               1
     1  Mg   0.699209
     2  C   -0.000281
     3  C   -0.059864
     4  C   -0.063511
     5  C   -0.068422
     6  N   -0.235950
     7  C   -0.087069
     8  C    0.009747
     9  C    0.003449
    10  C    0.040022
    11  C    0.164687
    12  C    0.098427
    13  C    0.175353
    14  C    0.021006
    15  O   -0.186222
    16  O   -0.267256
    17  N   -0.298724
    18  C    0.133795
    19  C   -0.153699
    20  C    0.060989
    21  C    0.097861
    22  C    0.164286
    23  C   -0.110668
    24  O   -0.171283
    25  C    0.146041
    26  N   -0.270095
    27  C    0.070644
    28  C    0.030309
    29  C    0.026472
    30  C    0.094002
    31  C    0.144319
    32  C    0.110298
    33  C    0.051192
    34  N   -0.272360
    35  C    0.062407
    36  C   -0.140542
    37  C    0.028804
    38  C    0.104159
    39  C    0.160906
    40  C   -0.016482
    41  O   -0.159138
    42  C    0.087991
    43  C    0.127339
    44  O   -0.216886
    45  O   -0.272039
    46  C    0.195906
    47  C    0.311176
    48  C   -0.073747
    49  C   -0.205591
    50  C    0.143227
    51  C    0.132519
    52  C    0.083414
    53  C    0.114270
    54  C   -0.126340
    55  C    0.122240
    56  C    0.102205
    57  C    0.066822
    58  C    0.122186
    59  C   -0.109798
    60  C    0.161055
    61  C    0.094501
    62  C    0.074869
    63  C    0.122059
    64  C   -0.065469
    65  C    0.074280
    66  C    0.081888
    67  H   -0.067720
    68  H   -0.047406
    69  H   -0.061152
    70  H   -0.004704
    71  H   -0.022713
    72  H    0.000199
    73  H   -0.025832
    74  H   -0.002507
    75  H   -0.022254
    76  H    0.006183
    77  H   -0.015127
    78  H   -0.004579
    79  H    0.013364
    80  H   -0.008886
    81  H    0.021243
    82  H   -0.023057
    83  H    0.005101
    84  H    0.010930
    85  H   -0.023004
    86  H   -0.050601
    87  H   -0.012705
    88  H    0.001294
    89  H   -0.010470
    90  H   -0.018330
    91  H   -0.025670
    92  H   -0.020354
    93  H   -0.012326
    94  H    0.002651
    95  H    0.014750
    96  H   -0.019457
    97  H    0.007195
    98  H    0.010742
    99  H    0.031626
   100  H    0.019813
   101  H    0.033186
   102  H    0.015999
   103  H   -0.005002
   104  H   -0.039231
   105  H   -0.006208
   106  H    0.004922
   107  H   -0.006980
   108  H   -0.008816
   109  H   -0.039892
   110  H   -0.038623
   111  H   -0.020221
   112  H   -0.040007
   113  H   -0.032627
   114  H   -0.040955
   115  H   -0.012922
   116  H   -0.017204
   117  H   -0.009757
   118  H   -0.032763
   119  H   -0.043492
   120  H   -0.039772
   121  H   -0.022910
   122  H   -0.038186
   123  H   -0.047965
   124  H   -0.033492
   125  H   -0.012397
   126  H   -0.021917
   127  H   -0.024417
   128  H   -0.037483
   129  H   -0.027419
   130  H   -0.032903
   131  H   -0.031217
   132  H   -0.040017
   133  H   -0.029306
   134  H   -0.027978
   135  H   -0.011992
   136  H   -0.025291
   137  H   -0.024547
   138  H   -0.011842
   139  H   -0.030167
   140  H   -0.019318
 Sum of Mulliken charges =  -0.00000

 Dipole moment (field-independent basis, Debye):
    X=             -3.6515    Y=              2.9979    Z=             -0.7100  Tot=              4.7775
 Quadrupole moment (field-independent basis, Debye-Ang):
   XX=           -377.7907   YY=           -428.3787   ZZ=           -415.4706
   XY=              5.4483   XZ=             18.8180   YZ=              4.9577

 Normal termination of Gaussian 16 at Fri Apr 29 05:49:29 2022.
