 Gaussian 16, Revision A.03,
 Gaussian 16:  ES64L-G16RevA.03 25-Dec-2016

 -----------------------------------
 #p cam-b3lyp/Def2SVP td=(nstates=5)
 -----------------------------------

 -----------------------------------------------------
 step_1_chromophore_16 TDDFT with cam-b3lyp functional
 -----------------------------------------------------
 Symbolic Z-matrix:
 Charge =  0 Multiplicity = 1

                         Standard orientation:
 ---------------------------------------------------------------------
 Center     Atomic      Atomic             Coordinates (Angstroms)
 Number     Number       Type             X           Y           Z
 ---------------------------------------------------------------------
      1         12           0        6.145651    0.540386    0.013028
      2          6           0        3.786815   -2.262675   -0.114026
      3          6           0        3.353706    2.629408   -0.328979
      4          6           0        8.194483    3.063516   -0.239326
      5          6           0        8.706026   -1.683466    0.523799
      6          7           0        3.894316    0.218640   -0.401192
      7          6           0        3.109782   -1.004577   -0.286524
      8          6           0        1.594369   -0.794242   -0.492682
      9          6           0        1.587282    0.820580   -0.762499
     10          6           0        3.029424    1.299430   -0.504640
     11          6           0        1.068530    1.209420   -2.133268
     12          6           0        0.794559   -1.320597    0.737269
     13          6           0       -0.645737   -0.908127    0.791135
     14          6           0       -1.704370   -1.923205    1.160707
     15          8           0       -1.809772   -2.478089    2.238562
     16          8           0       -2.562232   -2.063976    0.123008
     17          7           0        5.847515    2.604232   -0.274965
     18          6           0        4.629455    3.284443   -0.385548
     19          6           0        4.876758    4.719920   -0.507748
     20          6           0        6.322159    4.883682   -0.477201
     21          6           0        6.891386    3.493892   -0.323680
     22          6           0        3.760128    5.826395   -0.556105
     23          6           0        7.178610    6.090399   -0.616175
     24          8           0        8.400059    6.096498   -0.540187
     25          6           0        6.561811    7.421351   -0.744615
     26          7           0        8.095546    0.685962    0.212368
     27          6           0        8.758988    1.812580   -0.053859
     28          6           0       10.290501    1.652766    0.091913
     29          6           0       10.377909    0.292726    0.752739
     30          6           0        8.967893   -0.335900    0.426690
     31          6           0       11.032190    1.719275   -1.238126
     32          6           0       10.705977    0.111040    2.212117
     33          6           0        9.685735    0.706571    3.158676
     34          7           0        6.289065   -1.536345    0.079162
     35          6           0        7.427420   -2.296234    0.403461
     36          6           0        7.066265   -3.692333    0.421751
     37          6           0        5.653984   -3.645968    0.295753
     38          6           0        5.216399   -2.326107    0.075006
     39          6           0        7.931182   -4.880458    0.726419
     40          6           0        4.466396   -4.554234    0.338144
     41          8           0        4.374551   -5.768932    0.616739
     42          6           0        3.258639   -3.668321    0.040814
     43          6           0        2.490194   -4.217323   -1.163098
     44          8           0        2.843942   -4.338841   -2.373045
     45          8           0        1.213290   -4.449029   -0.744541
     46          6           0        0.269065   -4.910445   -1.787322
     47          6           0       -3.542354   -3.209611    0.274334
     48          6           0       -4.860750   -2.518937    0.553270
     49          6           0       -6.066204   -2.921480    0.063895
     50          6           0       -6.228763   -4.211071   -0.705817
     51          6           0       -7.361865   -2.107560    0.401564
     52          6           0       -7.331815   -0.747738   -0.331513
     53          6           0       -7.857535    0.420325    0.542428
     54          6           0       -9.074381    1.047817   -0.129583
     55          6           0       -9.236476    2.428889    0.523640
     56          6           0      -10.397137    0.169512   -0.123484
     57          6           0      -10.745486   -0.442048   -1.480031
     58          6           0      -11.710970    0.392502   -2.317566
     59          6           0      -13.118629    0.550445   -1.695988
     60          6           0      -14.145649   -0.136670   -2.559365
     61          6           0      -13.429196    2.081958   -1.356963
     62          6           0      -14.431973    2.285347   -0.195143
     63          6           0      -13.785881    2.755319    1.096347
     64          6           0      -14.285406    1.992007    2.292401
     65          6           0      -13.125073    1.393756    3.023507
     66          6           0      -15.147361    2.998517    3.168673
     67          1           0        2.480010    3.275565   -0.230788
     68          1           0        8.900784    3.883502   -0.384654
     69          1           0        9.472614   -2.449735    0.657443
     70          1           0        1.330416   -1.443853   -1.327157
     71          1           0        1.027436    1.307225    0.036182
     72          1           0        0.209924    1.868851   -2.003389
     73          1           0        0.742762    0.285517   -2.609839
     74          1           0        1.800407    1.507640   -2.883638
     75          1           0        1.395985   -1.058241    1.608337
     76          1           0        0.820297   -2.410287    0.724479
     77          1           0       -1.087572   -0.531348   -0.131031
     78          1           0       -0.775585   -0.168232    1.580418
     79          1           0        3.931071    6.428486    0.336757
     80          1           0        2.747983    5.423994   -0.517297
     81          1           0        3.931003    6.387802   -1.474738
     82          1           0        5.716418    7.451251   -1.432322
     83          1           0        7.370763    8.039188   -1.132869
     84          1           0        6.120377    7.596237    0.236062
     85          1           0       10.637005    2.474441    0.718821
     86          1           0       11.152045   -0.331154    0.305101
     87          1           0       11.947703    2.291746   -1.093622
     88          1           0       10.431823    2.213965   -2.000888
     89          1           0       11.396843    0.729676   -1.515827
     90          1           0       11.718420    0.481502    2.375132
     91          1           0       10.654741   -0.940095    2.495519
     92          1           0       10.155232    1.277937    3.958594
     93          1           0        9.104874   -0.051992    3.683828
     94          1           0        8.980379    1.390790    2.686896
     95          1           0        7.466149   -5.479654    1.508857
     96          1           0        8.967164   -4.750115    1.039136
     97          1           0        7.978660   -5.476720   -0.185040
     98          1           0        2.567378   -3.746596    0.880425
     99          1           0       -0.342932   -4.074434   -2.125281
    100          1           0       -0.230386   -5.696257   -1.220602
    101          1           0        0.771328   -5.431038   -2.603692
    102          1           0       -3.378749   -3.907054    1.095466
    103          1           0       -3.566440   -3.880690   -0.583322
    104          1           0       -4.847757   -1.578954    1.104638
    105          1           0       -5.443005   -4.911454   -0.421320
    106          1           0       -6.172115   -4.016733   -1.776820
    107          1           0       -7.208942   -4.621485   -0.463020
    108          1           0       -7.430004   -2.037870    1.486612
    109          1           0       -8.208912   -2.724447    0.098401
    110          1           0       -7.956171   -0.863666   -1.217145
    111          1           0       -6.340058   -0.448062   -0.671788
    112          1           0       -6.971064    1.049954    0.608405
    113          1           0       -8.115249    0.072657    1.543156
    114          1           0       -8.839846    1.213888   -1.181560
    115          1           0       -9.516621    2.198147    1.551463
    116          1           0      -10.116356    2.811922    0.007144
    117          1           0       -8.362544    3.060645    0.369755
    118          1           0      -11.167751    0.772140    0.357887
    119          1           0      -10.281416   -0.625168    0.613994
    120          1           0      -11.186034   -1.422493   -1.297857
    121          1           0       -9.824595   -0.594067   -2.041192
    122          1           0      -11.702398    0.017216   -3.341427
    123          1           0      -11.166946    1.332919   -2.407786
    124          1           0      -13.112861    0.146868   -0.683198
    125          1           0      -14.908854    0.566702   -2.892713
    126          1           0      -14.591571   -0.971057   -2.017987
    127          1           0      -13.621819   -0.596459   -3.397841
    128          1           0      -13.833717    2.585171   -2.234227
    129          1           0      -12.435901    2.459022   -1.110595
    130          1           0      -14.859656    1.298033   -0.018995
    131          1           0      -15.257460    2.976423   -0.364675
    132          1           0      -14.082197    3.802060    1.175690
    133          1           0      -12.696293    2.743090    1.099404
    134          1           0      -14.799723    1.045140    2.128310
    135          1           0      -12.526592    0.671803    2.467319
    136          1           0      -13.483159    0.908110    3.930886
    137          1           0      -12.410377    2.168799    3.298457
    138          1           0      -14.610377    3.817683    3.646852
    139          1           0      -15.645576    2.440952    3.961594
    140          1           0      -15.990048    3.484882    2.677021
 ---------------------------------------------------------------------

 SCF Done:  E(RCAM-B3LYP) =  -3007.17629487     A.U. after   19 cycles

 Excitation energies and oscillator strengths:

 Excited State   1:      Singlet-A      1.6641 eV  745.04 nm  f=0.3926  <S**2>=0.000
     245 -> 248        0.16635
     246 -> 247        0.68880
     245 <- 248        0.10549
 This state for optimization and/or second-order correction.
 Total Energy, E(TD-HF/TD-DFT) =  -3007.11513919
 Copying the excited state density for this state as the 1-particle RhoCI density.

 Excited State   2:      Singlet-A      2.1712 eV  571.04 nm  f=0.1458  <S**2>=0.000
     245 -> 247        0.65254
     246 -> 248       -0.25509

 Excited State   3:      Singlet-A      3.2242 eV  384.54 nm  f=0.0053  <S**2>=0.000
     241 -> 247        0.13683
     242 -> 247       -0.19886
     243 -> 247        0.64441
     244 -> 247       -0.10095

 Excited State   4:      Singlet-A      3.3903 eV  365.70 nm  f=0.0071  <S**2>=0.000
     239 -> 247        0.13280
     241 -> 247       -0.31828
     242 -> 247        0.51816
     243 -> 247        0.22972
     246 -> 248        0.20847

 Excited State   5:      Singlet-A      3.4484 eV  359.54 nm  f=0.0036  <S**2>=0.000
     241 -> 247        0.48960
     241 -> 249       -0.22474
     241 -> 250        0.18581
     242 -> 247        0.31125
     242 -> 249       -0.17074
     242 -> 250        0.13752

 The electronic state is 1-A.
 Alpha  occ. eigenvalues --  -46.87760 -19.25869 -19.25704 -19.19706 -19.19322
 Alpha  occ. eigenvalues --  -19.18765 -19.18456 -14.42520 -14.42168 -14.39963
 Alpha  occ. eigenvalues --  -14.38864 -10.40024 -10.38958 -10.34738 -10.34643
 Alpha  occ. eigenvalues --  -10.32653 -10.32070 -10.32000 -10.31522 -10.31378
 Alpha  occ. eigenvalues --  -10.31097 -10.30697 -10.30617 -10.30474 -10.29265
 Alpha  occ. eigenvalues --  -10.29113 -10.28906 -10.28895 -10.28657 -10.28610
 Alpha  occ. eigenvalues --  -10.28588 -10.28255 -10.27546 -10.27504 -10.27382
 Alpha  occ. eigenvalues --  -10.27311 -10.27155 -10.27009 -10.26962 -10.26916
 Alpha  occ. eigenvalues --  -10.26297 -10.26206 -10.25952 -10.25880 -10.25824
 Alpha  occ. eigenvalues --  -10.25726 -10.25715 -10.25627 -10.25608 -10.25552
 Alpha  occ. eigenvalues --  -10.25515 -10.25504 -10.25351 -10.25277 -10.24900
 Alpha  occ. eigenvalues --  -10.24824 -10.24744 -10.24719 -10.24703 -10.24588
 Alpha  occ. eigenvalues --  -10.24532 -10.24478 -10.24428 -10.24307 -10.24230
 Alpha  occ. eigenvalues --  -10.23945  -3.16500  -1.91405  -1.90966  -1.90802
 Alpha  occ. eigenvalues --   -1.16585  -1.16101  -1.10385  -1.07791  -1.07681
 Alpha  occ. eigenvalues --   -1.05841  -1.05052  -1.02827  -1.02278  -1.00640
 Alpha  occ. eigenvalues --   -0.92330  -0.90774  -0.90146  -0.89741  -0.89682
 Alpha  occ. eigenvalues --   -0.89130  -0.88850  -0.87957  -0.87339  -0.87012
 Alpha  occ. eigenvalues --   -0.86012  -0.85615  -0.84477  -0.84076  -0.83785
 Alpha  occ. eigenvalues --   -0.82887  -0.82404  -0.81738  -0.81330  -0.80846
 Alpha  occ. eigenvalues --   -0.80072  -0.78658  -0.77807  -0.77279  -0.76175
 Alpha  occ. eigenvalues --   -0.75946  -0.75706  -0.75552  -0.75008  -0.74526
 Alpha  occ. eigenvalues --   -0.73390  -0.72592  -0.71950  -0.70778  -0.70047
 Alpha  occ. eigenvalues --   -0.68605  -0.68420  -0.67167  -0.66791  -0.65493
 Alpha  occ. eigenvalues --   -0.64999  -0.64745  -0.64653  -0.64118  -0.63927
 Alpha  occ. eigenvalues --   -0.63849  -0.63310  -0.62314  -0.61990  -0.60236
 Alpha  occ. eigenvalues --   -0.59710  -0.59246  -0.59172  -0.58746  -0.57778
 Alpha  occ. eigenvalues --   -0.57499  -0.56795  -0.56316  -0.55769  -0.55710
 Alpha  occ. eigenvalues --   -0.55404  -0.55250  -0.55014  -0.54925  -0.54621
 Alpha  occ. eigenvalues --   -0.54015  -0.53654  -0.53407  -0.53192  -0.53093
 Alpha  occ. eigenvalues --   -0.52788  -0.52659  -0.52496  -0.52033  -0.51943
 Alpha  occ. eigenvalues --   -0.51815  -0.51325  -0.51121  -0.50758  -0.50520
 Alpha  occ. eigenvalues --   -0.50418  -0.50199  -0.50185  -0.49876  -0.49854
 Alpha  occ. eigenvalues --   -0.49517  -0.49342  -0.49094  -0.48839  -0.48792
 Alpha  occ. eigenvalues --   -0.48562  -0.48428  -0.48353  -0.48153  -0.47871
 Alpha  occ. eigenvalues --   -0.47700  -0.47571  -0.47473  -0.46903  -0.46682
 Alpha  occ. eigenvalues --   -0.46626  -0.46463  -0.46363  -0.46132  -0.45902
 Alpha  occ. eigenvalues --   -0.45747  -0.45636  -0.45412  -0.45224  -0.45003
 Alpha  occ. eigenvalues --   -0.44599  -0.44538  -0.44342  -0.44260  -0.44174
 Alpha  occ. eigenvalues --   -0.43942  -0.43572  -0.43485  -0.43344  -0.43122
 Alpha  occ. eigenvalues --   -0.42981  -0.42655  -0.42585  -0.42366  -0.42144
 Alpha  occ. eigenvalues --   -0.42130  -0.41807  -0.41597  -0.41540  -0.41212
 Alpha  occ. eigenvalues --   -0.41186  -0.40935  -0.40776  -0.40411  -0.40074
 Alpha  occ. eigenvalues --   -0.39747  -0.39619  -0.39233  -0.39112  -0.38959
 Alpha  occ. eigenvalues --   -0.38657  -0.38525  -0.38101  -0.37968  -0.37382
 Alpha  occ. eigenvalues --   -0.37308  -0.37181  -0.37005  -0.36655  -0.36478
 Alpha  occ. eigenvalues --   -0.36051  -0.35050  -0.34646  -0.34458  -0.34414
 Alpha  occ. eigenvalues --   -0.34206  -0.33605  -0.33071  -0.31536  -0.31272
 Alpha  occ. eigenvalues --   -0.30398  -0.30322  -0.29170  -0.29115  -0.24259
 Alpha  occ. eigenvalues --   -0.21491
 Alpha virt. eigenvalues --   -0.09298  -0.01682   0.00313   0.02212   0.03472
 Alpha virt. eigenvalues --    0.04446   0.04892   0.05166   0.05874   0.06437
 Alpha virt. eigenvalues --    0.07664   0.08063   0.08295   0.08487   0.08902

 Mulliken charges:
               1
     1  Mg   0.834442
     2  C   -0.021564
     3  C   -0.079983
     4  C   -0.082615
     5  C   -0.070089
     6  N   -0.301105
     7  C   -0.044587
     8  C   -0.029951
     9  C   -0.056979
    10  C    0.065279
    11  C    0.100898
    12  C    0.046883
    13  C    0.099117
    14  C    0.108346
    15  O   -0.227933
    16  O   -0.332579
    17  N   -0.386386
    18  C    0.146962
    19  C   -0.156079
    20  C   -0.010650
    21  C    0.125090
    22  C    0.113797
    23  C   -0.027287
    24  O   -0.211638
    25  C    0.063936
    26  N   -0.345338
    27  C    0.087683
    28  C   -0.030077
    29  C   -0.026352
    30  C    0.096075
    31  C    0.087940
    32  C    0.059742
    33  C   -0.013344
    34  N   -0.360328
    35  C    0.065083
    36  C   -0.139022
    37  C   -0.053375
    38  C    0.135678
    39  C    0.107399
    40  C    0.084332
    41  O   -0.199499
    42  C    0.005726
    43  C    0.216506
    44  O   -0.257474
    45  O   -0.336451
    46  C    0.159935
    47  C    0.271044
    48  C   -0.087926
    49  C   -0.227199
    50  C    0.078155
    51  C    0.079766
    52  C    0.027810
    53  C    0.061035
    54  C   -0.179408
    55  C    0.069519
    56  C    0.051896
    57  C    0.013035
    58  C    0.067755
    59  C   -0.163735
    60  C    0.098855
    61  C    0.049577
    62  C    0.021511
    63  C    0.063275
    64  C   -0.128412
    65  C    0.021541
    66  C    0.024740
    67  H   -0.033087
    68  H   -0.005256
    69  H   -0.025077
    70  H    0.026047
    71  H    0.011399
    72  H    0.024044
    73  H    0.001153
    74  H    0.025485
    75  H    0.010739
    76  H    0.033416
    77  H    0.019777
    78  H    0.027345
    79  H    0.039355
    80  H    0.020318
    81  H    0.045730
    82  H    0.005799
    83  H    0.040871
    84  H    0.037850
    85  H    0.013859
    86  H   -0.013273
    87  H    0.012852
    88  H    0.026465
    89  H    0.015530
    90  H    0.009183
    91  H    0.004126
    92  H    0.005303
    93  H    0.012882
    94  H    0.021923
    95  H    0.039623
    96  H    0.005178
    97  H    0.032460
    98  H    0.055263
    99  H    0.049742
   100  H    0.042169
   101  H    0.059877
   102  H    0.049680
   103  H    0.022727
   104  H   -0.006061
   105  H    0.015971
   106  H    0.030088
   107  H    0.017666
   108  H    0.020447
   109  H   -0.011186
   110  H   -0.012304
   111  H    0.010436
   112  H   -0.009197
   113  H   -0.005257
   114  H   -0.009976
   115  H    0.007648
   116  H    0.002750
   117  H    0.015577
   118  H   -0.012534
   119  H   -0.013793
   120  H   -0.010743
   121  H    0.003981
   122  H   -0.007585
   123  H   -0.019812
   124  H   -0.004897
   125  H    0.011475
   126  H    0.002886
   127  H    0.000660
   128  H   -0.008446
   129  H   -0.004632
   130  H   -0.005907
   131  H   -0.001788
   132  H   -0.008095
   133  H   -0.004689
   134  H    0.002805
   135  H    0.010205
   136  H    0.000500
   137  H   -0.002264
   138  H    0.011807
   139  H   -0.005213
   140  H    0.005007
 Sum of Mulliken charges =  -0.00000

 Dipole moment (field-independent basis, Debye):
    X=             -3.7926    Y=              4.1986    Z=             -0.8225  Tot=              5.7174
 Quadrupole moment (field-independent basis, Debye-Ang):
   XX=           -377.5355   YY=           -422.9717   ZZ=           -416.1228
   XY=             12.2918   XZ=             18.1884   YZ=              4.4827

 Normal termination of Gaussian 16 at Fri Apr 29 04:49:49 2022.
