 Gaussian 16, Revision A.03,
 Gaussian 16:  ES64L-G16RevA.03 25-Dec-2016

 ---------------------------------
 #p PBE1PBE/Def2SVP td=(nstates=5)
 ---------------------------------

 ---------------------------------------------------
 step_1_chromophore_16 TDDFT with PBE1PBE functional
 ---------------------------------------------------
 Symbolic Z-matrix:
 Charge =  0 Multiplicity = 1

                         Standard orientation:
 ---------------------------------------------------------------------
 Center     Atomic      Atomic             Coordinates (Angstroms)
 Number     Number       Type             X           Y           Z
 ---------------------------------------------------------------------
      1         12           0        6.145651    0.540386    0.013028
      2          6           0        3.786815   -2.262675   -0.114026
      3          6           0        3.353706    2.629408   -0.328979
      4          6           0        8.194483    3.063516   -0.239326
      5          6           0        8.706026   -1.683466    0.523799
      6          7           0        3.894316    0.218640   -0.401192
      7          6           0        3.109782   -1.004577   -0.286524
      8          6           0        1.594369   -0.794242   -0.492682
      9          6           0        1.587282    0.820580   -0.762499
     10          6           0        3.029424    1.299430   -0.504640
     11          6           0        1.068530    1.209420   -2.133268
     12          6           0        0.794559   -1.320597    0.737269
     13          6           0       -0.645737   -0.908127    0.791135
     14          6           0       -1.704370   -1.923205    1.160707
     15          8           0       -1.809772   -2.478089    2.238562
     16          8           0       -2.562232   -2.063976    0.123008
     17          7           0        5.847515    2.604232   -0.274965
     18          6           0        4.629455    3.284443   -0.385548
     19          6           0        4.876758    4.719920   -0.507748
     20          6           0        6.322159    4.883682   -0.477201
     21          6           0        6.891386    3.493892   -0.323680
     22          6           0        3.760128    5.826395   -0.556105
     23          6           0        7.178610    6.090399   -0.616175
     24          8           0        8.400059    6.096498   -0.540187
     25          6           0        6.561811    7.421351   -0.744615
     26          7           0        8.095546    0.685962    0.212368
     27          6           0        8.758988    1.812580   -0.053859
     28          6           0       10.290501    1.652766    0.091913
     29          6           0       10.377909    0.292726    0.752739
     30          6           0        8.967893   -0.335900    0.426690
     31          6           0       11.032190    1.719275   -1.238126
     32          6           0       10.705977    0.111040    2.212117
     33          6           0        9.685735    0.706571    3.158676
     34          7           0        6.289065   -1.536345    0.079162
     35          6           0        7.427420   -2.296234    0.403461
     36          6           0        7.066265   -3.692333    0.421751
     37          6           0        5.653984   -3.645968    0.295753
     38          6           0        5.216399   -2.326107    0.075006
     39          6           0        7.931182   -4.880458    0.726419
     40          6           0        4.466396   -4.554234    0.338144
     41          8           0        4.374551   -5.768932    0.616739
     42          6           0        3.258639   -3.668321    0.040814
     43          6           0        2.490194   -4.217323   -1.163098
     44          8           0        2.843942   -4.338841   -2.373045
     45          8           0        1.213290   -4.449029   -0.744541
     46          6           0        0.269065   -4.910445   -1.787322
     47          6           0       -3.542354   -3.209611    0.274334
     48          6           0       -4.860750   -2.518937    0.553270
     49          6           0       -6.066204   -2.921480    0.063895
     50          6           0       -6.228763   -4.211071   -0.705817
     51          6           0       -7.361865   -2.107560    0.401564
     52          6           0       -7.331815   -0.747738   -0.331513
     53          6           0       -7.857535    0.420325    0.542428
     54          6           0       -9.074381    1.047817   -0.129583
     55          6           0       -9.236476    2.428889    0.523640
     56          6           0      -10.397137    0.169512   -0.123484
     57          6           0      -10.745486   -0.442048   -1.480031
     58          6           0      -11.710970    0.392502   -2.317566
     59          6           0      -13.118629    0.550445   -1.695988
     60          6           0      -14.145649   -0.136670   -2.559365
     61          6           0      -13.429196    2.081958   -1.356963
     62          6           0      -14.431973    2.285347   -0.195143
     63          6           0      -13.785881    2.755319    1.096347
     64          6           0      -14.285406    1.992007    2.292401
     65          6           0      -13.125073    1.393756    3.023507
     66          6           0      -15.147361    2.998517    3.168673
     67          1           0        2.480010    3.275565   -0.230788
     68          1           0        8.900784    3.883502   -0.384654
     69          1           0        9.472614   -2.449735    0.657443
     70          1           0        1.330416   -1.443853   -1.327157
     71          1           0        1.027436    1.307225    0.036182
     72          1           0        0.209924    1.868851   -2.003389
     73          1           0        0.742762    0.285517   -2.609839
     74          1           0        1.800407    1.507640   -2.883638
     75          1           0        1.395985   -1.058241    1.608337
     76          1           0        0.820297   -2.410287    0.724479
     77          1           0       -1.087572   -0.531348   -0.131031
     78          1           0       -0.775585   -0.168232    1.580418
     79          1           0        3.931071    6.428486    0.336757
     80          1           0        2.747983    5.423994   -0.517297
     81          1           0        3.931003    6.387802   -1.474738
     82          1           0        5.716418    7.451251   -1.432322
     83          1           0        7.370763    8.039188   -1.132869
     84          1           0        6.120377    7.596237    0.236062
     85          1           0       10.637005    2.474441    0.718821
     86          1           0       11.152045   -0.331154    0.305101
     87          1           0       11.947703    2.291746   -1.093622
     88          1           0       10.431823    2.213965   -2.000888
     89          1           0       11.396843    0.729676   -1.515827
     90          1           0       11.718420    0.481502    2.375132
     91          1           0       10.654741   -0.940095    2.495519
     92          1           0       10.155232    1.277937    3.958594
     93          1           0        9.104874   -0.051992    3.683828
     94          1           0        8.980379    1.390790    2.686896
     95          1           0        7.466149   -5.479654    1.508857
     96          1           0        8.967164   -4.750115    1.039136
     97          1           0        7.978660   -5.476720   -0.185040
     98          1           0        2.567378   -3.746596    0.880425
     99          1           0       -0.342932   -4.074434   -2.125281
    100          1           0       -0.230386   -5.696257   -1.220602
    101          1           0        0.771328   -5.431038   -2.603692
    102          1           0       -3.378749   -3.907054    1.095466
    103          1           0       -3.566440   -3.880690   -0.583322
    104          1           0       -4.847757   -1.578954    1.104638
    105          1           0       -5.443005   -4.911454   -0.421320
    106          1           0       -6.172115   -4.016733   -1.776820
    107          1           0       -7.208942   -4.621485   -0.463020
    108          1           0       -7.430004   -2.037870    1.486612
    109          1           0       -8.208912   -2.724447    0.098401
    110          1           0       -7.956171   -0.863666   -1.217145
    111          1           0       -6.340058   -0.448062   -0.671788
    112          1           0       -6.971064    1.049954    0.608405
    113          1           0       -8.115249    0.072657    1.543156
    114          1           0       -8.839846    1.213888   -1.181560
    115          1           0       -9.516621    2.198147    1.551463
    116          1           0      -10.116356    2.811922    0.007144
    117          1           0       -8.362544    3.060645    0.369755
    118          1           0      -11.167751    0.772140    0.357887
    119          1           0      -10.281416   -0.625168    0.613994
    120          1           0      -11.186034   -1.422493   -1.297857
    121          1           0       -9.824595   -0.594067   -2.041192
    122          1           0      -11.702398    0.017216   -3.341427
    123          1           0      -11.166946    1.332919   -2.407786
    124          1           0      -13.112861    0.146868   -0.683198
    125          1           0      -14.908854    0.566702   -2.892713
    126          1           0      -14.591571   -0.971057   -2.017987
    127          1           0      -13.621819   -0.596459   -3.397841
    128          1           0      -13.833717    2.585171   -2.234227
    129          1           0      -12.435901    2.459022   -1.110595
    130          1           0      -14.859656    1.298033   -0.018995
    131          1           0      -15.257460    2.976423   -0.364675
    132          1           0      -14.082197    3.802060    1.175690
    133          1           0      -12.696293    2.743090    1.099404
    134          1           0      -14.799723    1.045140    2.128310
    135          1           0      -12.526592    0.671803    2.467319
    136          1           0      -13.483159    0.908110    3.930886
    137          1           0      -12.410377    2.168799    3.298457
    138          1           0      -14.610377    3.817683    3.646852
    139          1           0      -15.645576    2.440952    3.961594
    140          1           0      -15.990048    3.484882    2.677021
 ---------------------------------------------------------------------

 SCF Done:  E(RPBE1PBE) =  -3005.36573656     A.U. after   16 cycles

 Excitation energies and oscillator strengths:

 Excited State   1:      Singlet-A      1.8188 eV  681.69 nm  f=0.3802  <S**2>=0.000
     245 -> 248        0.16288
     246 -> 247        0.69587
     246 <- 247       -0.11374
 This state for optimization and/or second-order correction.
 Total Energy, E(TD-HF/TD-DFT) =  -3005.29889769
 Copying the excited state density for this state as the 1-particle RhoCI density.

 Excited State   2:      Singlet-A      2.1799 eV  568.75 nm  f=0.1374  <S**2>=0.000
     245 -> 247        0.66147
     246 -> 248       -0.23418

 Excited State   3:      Singlet-A      2.8543 eV  434.38 nm  f=0.0023  <S**2>=0.000
     242 -> 247        0.29845
     243 -> 247        0.62212

 Excited State   4:      Singlet-A      2.8764 eV  431.04 nm  f=0.0014  <S**2>=0.000
     242 -> 247        0.61261
     242 -> 249        0.12476
     243 -> 247       -0.30926

 Excited State   5:      Singlet-A      2.9379 eV  422.02 nm  f=0.0001  <S**2>=0.000
     240 -> 247        0.35114
     241 -> 247        0.58254
     241 -> 249       -0.10888

 The electronic state is 1-A.
 Alpha  occ. eigenvalues --  -46.91175 -19.26617 -19.26464 -19.20080 -19.19651
 Alpha  occ. eigenvalues --  -19.18896 -19.18781 -14.42116 -14.41669 -14.39532
 Alpha  occ. eigenvalues --  -14.38682 -10.37163 -10.36034 -10.31988 -10.31619
 Alpha  occ. eigenvalues --  -10.30107 -10.29948 -10.29361 -10.29078 -10.28810
 Alpha  occ. eigenvalues --  -10.28660 -10.28582 -10.28156 -10.27867 -10.27323
 Alpha  occ. eigenvalues --  -10.26992 -10.26836 -10.26658 -10.26567 -10.26340
 Alpha  occ. eigenvalues --  -10.25823 -10.25719 -10.25480 -10.25128 -10.25117
 Alpha  occ. eigenvalues --  -10.24975 -10.24843 -10.24714 -10.24693 -10.24612
 Alpha  occ. eigenvalues --  -10.23714 -10.23598 -10.23536 -10.23522 -10.23323
 Alpha  occ. eigenvalues --  -10.23314 -10.23271 -10.23271 -10.23180 -10.23077
 Alpha  occ. eigenvalues --  -10.23066 -10.22928 -10.22926 -10.22820 -10.22729
 Alpha  occ. eigenvalues --  -10.22480 -10.22406 -10.22295 -10.22169 -10.22156
 Alpha  occ. eigenvalues --  -10.22008 -10.21955 -10.21837 -10.21679 -10.21605
 Alpha  occ. eigenvalues --  -10.21491  -3.13492  -1.86339  -1.85879  -1.85717
 Alpha  occ. eigenvalues --   -1.11449  -1.10967  -1.04905  -1.02689  -1.02600
 Alpha  occ. eigenvalues --   -1.00731  -0.99669  -0.97713  -0.96742  -0.95196
 Alpha  occ. eigenvalues --   -0.86793  -0.84858  -0.84304  -0.83994  -0.83921
 Alpha  occ. eigenvalues --   -0.83285  -0.83128  -0.82092  -0.81644  -0.81102
 Alpha  occ. eigenvalues --   -0.80385  -0.79963  -0.78664  -0.78419  -0.78054
 Alpha  occ. eigenvalues --   -0.77095  -0.76478  -0.76024  -0.75581  -0.75045
 Alpha  occ. eigenvalues --   -0.74350  -0.72779  -0.72186  -0.71640  -0.70577
 Alpha  occ. eigenvalues --   -0.70030  -0.69916  -0.69841  -0.69152  -0.68686
 Alpha  occ. eigenvalues --   -0.67825  -0.67016  -0.66332  -0.65083  -0.64436
 Alpha  occ. eigenvalues --   -0.62855  -0.62736  -0.61713  -0.61012  -0.59963
 Alpha  occ. eigenvalues --   -0.59302  -0.59257  -0.59210  -0.58462  -0.58242
 Alpha  occ. eigenvalues --   -0.57981  -0.57876  -0.56630  -0.56515  -0.54680
 Alpha  occ. eigenvalues --   -0.54088  -0.53825  -0.53806  -0.53341  -0.52359
 Alpha  occ. eigenvalues --   -0.52031  -0.51249  -0.50860  -0.50247  -0.50240
 Alpha  occ. eigenvalues --   -0.49919  -0.49751  -0.49497  -0.49386  -0.49290
 Alpha  occ. eigenvalues --   -0.48426  -0.48143  -0.47877  -0.47669  -0.47519
 Alpha  occ. eigenvalues --   -0.47347  -0.47205  -0.47076  -0.46712  -0.46462
 Alpha  occ. eigenvalues --   -0.46307  -0.45883  -0.45800  -0.45154  -0.45101
 Alpha  occ. eigenvalues --   -0.45009  -0.44834  -0.44786  -0.44539  -0.44396
 Alpha  occ. eigenvalues --   -0.43959  -0.43920  -0.43711  -0.43495  -0.43466
 Alpha  occ. eigenvalues --   -0.43251  -0.42919  -0.42914  -0.42784  -0.42493
 Alpha  occ. eigenvalues --   -0.42392  -0.42167  -0.42083  -0.41581  -0.41472
 Alpha  occ. eigenvalues --   -0.41387  -0.41183  -0.41084  -0.40897  -0.40595
 Alpha  occ. eigenvalues --   -0.40539  -0.40243  -0.40168  -0.39798  -0.39761
 Alpha  occ. eigenvalues --   -0.39349  -0.39261  -0.39150  -0.39078  -0.38896
 Alpha  occ. eigenvalues --   -0.38798  -0.38369  -0.38245  -0.38087  -0.37872
 Alpha  occ. eigenvalues --   -0.37800  -0.37500  -0.37342  -0.37216  -0.36954
 Alpha  occ. eigenvalues --   -0.36850  -0.36550  -0.36440  -0.36368  -0.36060
 Alpha  occ. eigenvalues --   -0.36025  -0.35740  -0.35627  -0.35308  -0.34854
 Alpha  occ. eigenvalues --   -0.34624  -0.34424  -0.34018  -0.33997  -0.33898
 Alpha  occ. eigenvalues --   -0.33535  -0.33429  -0.32855  -0.32774  -0.32324
 Alpha  occ. eigenvalues --   -0.32208  -0.32176  -0.32060  -0.31710  -0.31541
 Alpha  occ. eigenvalues --   -0.30936  -0.29967  -0.29645  -0.29561  -0.29411
 Alpha  occ. eigenvalues --   -0.29204  -0.28682  -0.28447  -0.27109  -0.25865
 Alpha  occ. eigenvalues --   -0.25794  -0.25382  -0.25015  -0.24414  -0.21176
 Alpha  occ. eigenvalues --   -0.19126
 Alpha virt. eigenvalues --   -0.11708  -0.05260  -0.03895  -0.02191  -0.00372
 Alpha virt. eigenvalues --    0.00217   0.00543   0.00923   0.01741   0.02804
 Alpha virt. eigenvalues --    0.03709   0.04025   0.04952   0.05068   0.05469

 Mulliken charges:
               1
     1  Mg   0.989597
     2  C   -0.011297
     3  C   -0.071902
     4  C   -0.073587
     5  C   -0.064193
     6  N   -0.394360
     7  C    0.023371
     8  C   -0.096022
     9  C   -0.138349
    10  C    0.100463
    11  C    0.045972
    12  C   -0.007984
    13  C    0.020027
    14  C    0.183627
    15  O   -0.261585
    16  O   -0.361617
    17  N   -0.498081
    18  C    0.166120
    19  C   -0.177943
    20  C   -0.064364
    21  C    0.160704
    22  C    0.051734
    23  C    0.023252
    24  O   -0.251165
    25  C   -0.009921
    26  N   -0.456221
    27  C    0.110856
    28  C   -0.108360
    29  C   -0.097832
    30  C    0.126084
    31  C    0.036247
    32  C   -0.003110
    33  C   -0.086203
    34  N   -0.489281
    35  C    0.091509
    36  C   -0.154212
    37  C   -0.107843
    38  C    0.183499
    39  C    0.055390
    40  C    0.180637
    41  O   -0.244034
    42  C   -0.112416
    43  C    0.304187
    44  O   -0.291568
    45  O   -0.367899
    46  C    0.106797
    47  C    0.222108
    48  C   -0.094853
    49  C   -0.267815
    50  C    0.009784
    51  C    0.019839
    52  C   -0.036434
    53  C    0.010079
    54  C   -0.268263
    55  C   -0.003697
    56  C   -0.000859
    57  C   -0.061593
    58  C    0.012092
    59  C   -0.247530
    60  C    0.040567
    61  C   -0.009584
    62  C   -0.040968
    63  C    0.005997
    64  C   -0.222625
    65  C   -0.041932
    66  C   -0.036451
    67  H    0.000044
    68  H    0.026249
    69  H    0.007366
    70  H    0.064781
    71  H    0.048447
    72  H    0.050411
    73  H    0.028625
    74  H    0.052630
    75  H    0.043624
    76  H    0.071695
    77  H    0.052660
    78  H    0.060402
    79  H    0.066350
    80  H    0.046355
    81  H    0.071853
    82  H    0.033519
    83  H    0.066420
    84  H    0.064979
    85  H    0.049489
    86  H    0.024909
    87  H    0.040633
    88  H    0.054050
    89  H    0.041611
    90  H    0.042336
    91  H    0.037954
    92  H    0.034466
    93  H    0.040576
    94  H    0.054864
    95  H    0.067133
    96  H    0.031997
    97  H    0.061504
    98  H    0.091915
    99  H    0.070949
   100  H    0.063907
   101  H    0.080605
   102  H    0.076668
   103  H    0.048210
   104  H    0.023871
   105  H    0.043081
   106  H    0.058394
   107  H    0.045282
   108  H    0.051653
   109  H    0.020689
   110  H    0.024631
   111  H    0.042643
   112  H    0.023345
   113  H    0.026375
   114  H    0.029564
   115  H    0.036805
   116  H    0.036369
   117  H    0.043786
   118  H    0.027993
   119  H    0.019742
   120  H    0.023247
   121  H    0.037255
   122  H    0.024394
   123  H    0.014414
   124  H    0.033953
   125  H    0.038337
   126  H    0.030501
   127  H    0.027796
   128  H    0.024476
   129  H    0.032318
   130  H    0.027720
   131  H    0.030224
   132  H    0.025875
   133  H    0.028717
   134  H    0.038504
   135  H    0.040687
   136  H    0.029147
   137  H    0.026011
   138  H    0.038873
   139  H    0.023183
   140  H    0.033372
 Sum of Mulliken charges =  -0.00000

 Dipole moment (field-independent basis, Debye):
    X=             -3.7456    Y=              3.6289    Z=             -0.6965  Tot=              5.2615
 Quadrupole moment (field-independent basis, Debye-Ang):
   XX=           -370.8701   YY=           -421.2699   ZZ=           -413.6689
   XY=              8.3396   XZ=             19.0684   YZ=              4.6960

 Normal termination of Gaussian 16 at Fri Apr 29 05:05:07 2022.
