 Gaussian 16, Revision A.03,
 Gaussian 16:  ES64L-G16RevA.03 25-Dec-2016

 --------------------------------
 #p wB97XD/Def2SVP td=(nstates=5)
 --------------------------------

 --------------------------------------------------
 step_1_chromophore_16 TDDFT with wB97XD functional
 --------------------------------------------------
 Symbolic Z-matrix:
 Charge =  0 Multiplicity = 1

                         Standard orientation:
 ---------------------------------------------------------------------
 Center     Atomic      Atomic             Coordinates (Angstroms)
 Number     Number       Type             X           Y           Z
 ---------------------------------------------------------------------
      1         12           0        6.145651    0.540386    0.013028
      2          6           0        3.786815   -2.262675   -0.114026
      3          6           0        3.353706    2.629408   -0.328979
      4          6           0        8.194483    3.063516   -0.239326
      5          6           0        8.706026   -1.683466    0.523799
      6          7           0        3.894316    0.218640   -0.401192
      7          6           0        3.109782   -1.004577   -0.286524
      8          6           0        1.594369   -0.794242   -0.492682
      9          6           0        1.587282    0.820580   -0.762499
     10          6           0        3.029424    1.299430   -0.504640
     11          6           0        1.068530    1.209420   -2.133268
     12          6           0        0.794559   -1.320597    0.737269
     13          6           0       -0.645737   -0.908127    0.791135
     14          6           0       -1.704370   -1.923205    1.160707
     15          8           0       -1.809772   -2.478089    2.238562
     16          8           0       -2.562232   -2.063976    0.123008
     17          7           0        5.847515    2.604232   -0.274965
     18          6           0        4.629455    3.284443   -0.385548
     19          6           0        4.876758    4.719920   -0.507748
     20          6           0        6.322159    4.883682   -0.477201
     21          6           0        6.891386    3.493892   -0.323680
     22          6           0        3.760128    5.826395   -0.556105
     23          6           0        7.178610    6.090399   -0.616175
     24          8           0        8.400059    6.096498   -0.540187
     25          6           0        6.561811    7.421351   -0.744615
     26          7           0        8.095546    0.685962    0.212368
     27          6           0        8.758988    1.812580   -0.053859
     28          6           0       10.290501    1.652766    0.091913
     29          6           0       10.377909    0.292726    0.752739
     30          6           0        8.967893   -0.335900    0.426690
     31          6           0       11.032190    1.719275   -1.238126
     32          6           0       10.705977    0.111040    2.212117
     33          6           0        9.685735    0.706571    3.158676
     34          7           0        6.289065   -1.536345    0.079162
     35          6           0        7.427420   -2.296234    0.403461
     36          6           0        7.066265   -3.692333    0.421751
     37          6           0        5.653984   -3.645968    0.295753
     38          6           0        5.216399   -2.326107    0.075006
     39          6           0        7.931182   -4.880458    0.726419
     40          6           0        4.466396   -4.554234    0.338144
     41          8           0        4.374551   -5.768932    0.616739
     42          6           0        3.258639   -3.668321    0.040814
     43          6           0        2.490194   -4.217323   -1.163098
     44          8           0        2.843942   -4.338841   -2.373045
     45          8           0        1.213290   -4.449029   -0.744541
     46          6           0        0.269065   -4.910445   -1.787322
     47          6           0       -3.542354   -3.209611    0.274334
     48          6           0       -4.860750   -2.518937    0.553270
     49          6           0       -6.066204   -2.921480    0.063895
     50          6           0       -6.228763   -4.211071   -0.705817
     51          6           0       -7.361865   -2.107560    0.401564
     52          6           0       -7.331815   -0.747738   -0.331513
     53          6           0       -7.857535    0.420325    0.542428
     54          6           0       -9.074381    1.047817   -0.129583
     55          6           0       -9.236476    2.428889    0.523640
     56          6           0      -10.397137    0.169512   -0.123484
     57          6           0      -10.745486   -0.442048   -1.480031
     58          6           0      -11.710970    0.392502   -2.317566
     59          6           0      -13.118629    0.550445   -1.695988
     60          6           0      -14.145649   -0.136670   -2.559365
     61          6           0      -13.429196    2.081958   -1.356963
     62          6           0      -14.431973    2.285347   -0.195143
     63          6           0      -13.785881    2.755319    1.096347
     64          6           0      -14.285406    1.992007    2.292401
     65          6           0      -13.125073    1.393756    3.023507
     66          6           0      -15.147361    2.998517    3.168673
     67          1           0        2.480010    3.275565   -0.230788
     68          1           0        8.900784    3.883502   -0.384654
     69          1           0        9.472614   -2.449735    0.657443
     70          1           0        1.330416   -1.443853   -1.327157
     71          1           0        1.027436    1.307225    0.036182
     72          1           0        0.209924    1.868851   -2.003389
     73          1           0        0.742762    0.285517   -2.609839
     74          1           0        1.800407    1.507640   -2.883638
     75          1           0        1.395985   -1.058241    1.608337
     76          1           0        0.820297   -2.410287    0.724479
     77          1           0       -1.087572   -0.531348   -0.131031
     78          1           0       -0.775585   -0.168232    1.580418
     79          1           0        3.931071    6.428486    0.336757
     80          1           0        2.747983    5.423994   -0.517297
     81          1           0        3.931003    6.387802   -1.474738
     82          1           0        5.716418    7.451251   -1.432322
     83          1           0        7.370763    8.039188   -1.132869
     84          1           0        6.120377    7.596237    0.236062
     85          1           0       10.637005    2.474441    0.718821
     86          1           0       11.152045   -0.331154    0.305101
     87          1           0       11.947703    2.291746   -1.093622
     88          1           0       10.431823    2.213965   -2.000888
     89          1           0       11.396843    0.729676   -1.515827
     90          1           0       11.718420    0.481502    2.375132
     91          1           0       10.654741   -0.940095    2.495519
     92          1           0       10.155232    1.277937    3.958594
     93          1           0        9.104874   -0.051992    3.683828
     94          1           0        8.980379    1.390790    2.686896
     95          1           0        7.466149   -5.479654    1.508857
     96          1           0        8.967164   -4.750115    1.039136
     97          1           0        7.978660   -5.476720   -0.185040
     98          1           0        2.567378   -3.746596    0.880425
     99          1           0       -0.342932   -4.074434   -2.125281
    100          1           0       -0.230386   -5.696257   -1.220602
    101          1           0        0.771328   -5.431038   -2.603692
    102          1           0       -3.378749   -3.907054    1.095466
    103          1           0       -3.566440   -3.880690   -0.583322
    104          1           0       -4.847757   -1.578954    1.104638
    105          1           0       -5.443005   -4.911454   -0.421320
    106          1           0       -6.172115   -4.016733   -1.776820
    107          1           0       -7.208942   -4.621485   -0.463020
    108          1           0       -7.430004   -2.037870    1.486612
    109          1           0       -8.208912   -2.724447    0.098401
    110          1           0       -7.956171   -0.863666   -1.217145
    111          1           0       -6.340058   -0.448062   -0.671788
    112          1           0       -6.971064    1.049954    0.608405
    113          1           0       -8.115249    0.072657    1.543156
    114          1           0       -8.839846    1.213888   -1.181560
    115          1           0       -9.516621    2.198147    1.551463
    116          1           0      -10.116356    2.811922    0.007144
    117          1           0       -8.362544    3.060645    0.369755
    118          1           0      -11.167751    0.772140    0.357887
    119          1           0      -10.281416   -0.625168    0.613994
    120          1           0      -11.186034   -1.422493   -1.297857
    121          1           0       -9.824595   -0.594067   -2.041192
    122          1           0      -11.702398    0.017216   -3.341427
    123          1           0      -11.166946    1.332919   -2.407786
    124          1           0      -13.112861    0.146868   -0.683198
    125          1           0      -14.908854    0.566702   -2.892713
    126          1           0      -14.591571   -0.971057   -2.017987
    127          1           0      -13.621819   -0.596459   -3.397841
    128          1           0      -13.833717    2.585171   -2.234227
    129          1           0      -12.435901    2.459022   -1.110595
    130          1           0      -14.859656    1.298033   -0.018995
    131          1           0      -15.257460    2.976423   -0.364675
    132          1           0      -14.082197    3.802060    1.175690
    133          1           0      -12.696293    2.743090    1.099404
    134          1           0      -14.799723    1.045140    2.128310
    135          1           0      -12.526592    0.671803    2.467319
    136          1           0      -13.483159    0.908110    3.930886
    137          1           0      -12.410377    2.168799    3.298457
    138          1           0      -14.610377    3.817683    3.646852
    139          1           0      -15.645576    2.440952    3.961594
    140          1           0      -15.990048    3.484882    2.677021
 ---------------------------------------------------------------------

 SCF Done:  E(RwB97XD) =  -3007.87834712     A.U. after   20 cycles

 Excitation energies and oscillator strengths:

 Excited State   1:      Singlet-A      1.6121 eV  769.07 nm  f=0.3916  <S**2>=0.000
     245 -> 248        0.17098
     246 -> 247        0.68648
     245 <- 248        0.11398
 This state for optimization and/or second-order correction.
 Total Energy, E(TD-HF/TD-DFT) =  -3007.81910234
 Copying the excited state density for this state as the 1-particle RhoCI density.

 Excited State   2:      Singlet-A      2.1161 eV  585.91 nm  f=0.1416  <S**2>=0.000
     245 -> 247        0.64970
     246 -> 248       -0.25794

 Excited State   3:      Singlet-A      3.2635 eV  379.92 nm  f=0.0059  <S**2>=0.000
     241 -> 247       -0.31625
     243 -> 247        0.60949

 Excited State   4:      Singlet-A      3.4145 eV  363.11 nm  f=0.0120  <S**2>=0.000
     239 -> 247        0.14978
     241 -> 247        0.54426
     243 -> 247        0.30675
     246 -> 248        0.25015

 Excited State   5:      Singlet-A      3.4978 eV  354.46 nm  f=0.0064  <S**2>=0.000
     240 -> 247       -0.11252
     242 -> 247        0.54363
     242 -> 249       -0.29770
     242 -> 250        0.24809

 The electronic state is 1-A.
 Alpha  occ. eigenvalues --  -46.94111 -19.31086 -19.30964 -19.24674 -19.24291
 Alpha  occ. eigenvalues --  -19.23853 -19.23476 -14.47167 -14.46778 -14.44618
 Alpha  occ. eigenvalues --  -14.43426 -10.43887 -10.42777 -10.38737 -10.38635
 Alpha  occ. eigenvalues --  -10.36580 -10.36041 -10.35796 -10.35598 -10.35522
 Alpha  occ. eigenvalues --  -10.35156 -10.34805 -10.34748 -10.34596 -10.33213
 Alpha  occ. eigenvalues --  -10.33189 -10.33020 -10.32960 -10.32630 -10.32597
 Alpha  occ. eigenvalues --  -10.32595 -10.32450 -10.31628 -10.31557 -10.31414
 Alpha  occ. eigenvalues --  -10.31295 -10.31086 -10.31008 -10.30983 -10.30929
 Alpha  occ. eigenvalues --  -10.30158 -10.30038 -10.29899 -10.29796 -10.29777
 Alpha  occ. eigenvalues --  -10.29731 -10.29593 -10.29541 -10.29536 -10.29483
 Alpha  occ. eigenvalues --  -10.29456 -10.29449 -10.29304 -10.29200 -10.28847
 Alpha  occ. eigenvalues --  -10.28769 -10.28695 -10.28653 -10.28585 -10.28529
 Alpha  occ. eigenvalues --  -10.28380 -10.28333 -10.28270 -10.28115 -10.28040
 Alpha  occ. eigenvalues --  -10.27854  -3.20266  -1.93866  -1.93404  -1.93244
 Alpha  occ. eigenvalues --   -1.18787  -1.18274  -1.12649  -1.09977  -1.09901
 Alpha  occ. eigenvalues --   -1.08023  -1.07054  -1.04807  -1.04362  -1.02648
 Alpha  occ. eigenvalues --   -0.94272  -0.92535  -0.91952  -0.91566  -0.91530
 Alpha  occ. eigenvalues --   -0.90938  -0.90809  -0.89747  -0.89278  -0.89004
 Alpha  occ. eigenvalues --   -0.87933  -0.87503  -0.86323  -0.85941  -0.85692
 Alpha  occ. eigenvalues --   -0.84750  -0.84362  -0.83645  -0.83229  -0.82717
 Alpha  occ. eigenvalues --   -0.81992  -0.80656  -0.79720  -0.79191  -0.78108
 Alpha  occ. eigenvalues --   -0.77727  -0.77559  -0.77482  -0.76829  -0.76353
 Alpha  occ. eigenvalues --   -0.75337  -0.74543  -0.73914  -0.72718  -0.71961
 Alpha  occ. eigenvalues --   -0.70498  -0.70389  -0.69186  -0.68664  -0.67490
 Alpha  occ. eigenvalues --   -0.66866  -0.66712  -0.66665  -0.65931  -0.65894
 Alpha  occ. eigenvalues --   -0.65646  -0.65301  -0.64147  -0.63959  -0.62253
 Alpha  occ. eigenvalues --   -0.61610  -0.61228  -0.61152  -0.60723  -0.59726
 Alpha  occ. eigenvalues --   -0.59468  -0.58700  -0.58326  -0.57727  -0.57635
 Alpha  occ. eigenvalues --   -0.57312  -0.57157  -0.56932  -0.56871  -0.56565
 Alpha  occ. eigenvalues --   -0.55871  -0.55572  -0.55358  -0.55071  -0.55044
 Alpha  occ. eigenvalues --   -0.54757  -0.54563  -0.54388  -0.54003  -0.53840
 Alpha  occ. eigenvalues --   -0.53689  -0.53222  -0.53047  -0.52768  -0.52410
 Alpha  occ. eigenvalues --   -0.52321  -0.52112  -0.52078  -0.51776  -0.51749
 Alpha  occ. eigenvalues --   -0.51518  -0.51234  -0.50984  -0.50739  -0.50710
 Alpha  occ. eigenvalues --   -0.50527  -0.50417  -0.50213  -0.50044  -0.49822
 Alpha  occ. eigenvalues --   -0.49619  -0.49494  -0.49372  -0.48808  -0.48613
 Alpha  occ. eigenvalues --   -0.48551  -0.48363  -0.48292  -0.48066  -0.47799
 Alpha  occ. eigenvalues --   -0.47631  -0.47476  -0.47353  -0.47066  -0.46881
 Alpha  occ. eigenvalues --   -0.46517  -0.46471  -0.46256  -0.46112  -0.46097
 Alpha  occ. eigenvalues --   -0.45835  -0.45459  -0.45399  -0.45255  -0.45019
 Alpha  occ. eigenvalues --   -0.44906  -0.44600  -0.44463  -0.44339  -0.44029
 Alpha  occ. eigenvalues --   -0.43980  -0.43841  -0.43457  -0.43444  -0.43225
 Alpha  occ. eigenvalues --   -0.43073  -0.42812  -0.42672  -0.42333  -0.41938
 Alpha  occ. eigenvalues --   -0.41662  -0.41482  -0.41074  -0.41004  -0.40863
 Alpha  occ. eigenvalues --   -0.40483  -0.40441  -0.39935  -0.39823  -0.39272
 Alpha  occ. eigenvalues --   -0.39217  -0.39184  -0.39064  -0.38613  -0.38498
 Alpha  occ. eigenvalues --   -0.37897  -0.36903  -0.36488  -0.36411  -0.36291
 Alpha  occ. eigenvalues --   -0.36165  -0.35554  -0.35283  -0.33748  -0.33257
 Alpha  occ. eigenvalues --   -0.32596  -0.32282  -0.31286  -0.31151  -0.26188
 Alpha  occ. eigenvalues --   -0.23295
 Alpha virt. eigenvalues --   -0.07653   0.00238   0.02359   0.04324   0.06366
 Alpha virt. eigenvalues --    0.06644   0.07250   0.07518   0.08332   0.09197
 Alpha virt. eigenvalues --    0.10218   0.10824   0.11604   0.11809   0.11994

 Mulliken charges:
               1
     1  Mg   0.975859
     2  C   -0.025983
     3  C   -0.091542
     4  C   -0.091336
     5  C   -0.077433
     6  N   -0.365978
     7  C   -0.003041
     8  C   -0.073310
     9  C   -0.110133
    10  C    0.090385
    11  C    0.052132
    12  C    0.010044
    13  C    0.036699
    14  C    0.170485
    15  O   -0.258926
    16  O   -0.361608
    17  N   -0.467491
    18  C    0.163112
    19  C   -0.170262
    20  C   -0.057295
    21  C    0.152433
    22  C    0.067123
    23  C    0.022021
    24  O   -0.243467
    25  C    0.002010
    26  N   -0.422579
    27  C    0.103906
    28  C   -0.088045
    29  C   -0.066297
    30  C    0.109937
    31  C    0.042936
    32  C    0.010298
    33  C   -0.068017
    34  N   -0.449713
    35  C    0.078952
    36  C   -0.151283
    37  C   -0.101595
    38  C    0.166927
    39  C    0.064722
    40  C    0.159700
    41  O   -0.235494
    42  C   -0.066878
    43  C    0.279633
    44  O   -0.286654
    45  O   -0.366420
    46  C    0.121376
    47  C    0.238683
    48  C   -0.107691
    49  C   -0.252474
    50  C    0.024979
    51  C    0.035972
    52  C   -0.016655
    53  C    0.020170
    54  C   -0.233383
    55  C    0.020798
    56  C    0.022906
    57  C   -0.036144
    58  C    0.029789
    59  C   -0.215751
    60  C    0.050666
    61  C    0.012929
    62  C   -0.021613
    63  C    0.024542
    64  C   -0.193883
    65  C   -0.025800
    66  C   -0.023786
    67  H   -0.007155
    68  H    0.021658
    69  H    0.001435
    70  H    0.052332
    71  H    0.037580
    72  H    0.046158
    73  H    0.022814
    74  H    0.048071
    75  H    0.036895
    76  H    0.054463
    77  H    0.045261
    78  H    0.054636
    79  H    0.061654
    80  H    0.044239
    81  H    0.067011
    82  H    0.027102
    83  H    0.066564
    84  H    0.059859
    85  H    0.041522
    86  H    0.013885
    87  H    0.035698
    88  H    0.048221
    89  H    0.036548
    90  H    0.035171
    91  H    0.029196
    92  H    0.029196
    93  H    0.035346
    94  H    0.040774
    95  H    0.062002
    96  H    0.026534
    97  H    0.055352
    98  H    0.085406
    99  H    0.067623
   100  H    0.060040
   101  H    0.076733
   102  H    0.072197
   103  H    0.043936
   104  H    0.020650
   105  H    0.036794
   106  H    0.053091
   107  H    0.039809
   108  H    0.043712
   109  H    0.012501
   110  H    0.010414
   111  H    0.034195
   112  H    0.016275
   113  H    0.016212
   114  H    0.014408
   115  H    0.028047
   116  H    0.024221
   117  H    0.038980
   118  H   -0.004114
   119  H    0.010657
   120  H    0.014820
   121  H    0.026621
   122  H    0.016944
   123  H    0.002332
   124  H    0.014940
   125  H    0.032768
   126  H    0.025486
   127  H    0.021197
   128  H    0.017096
   129  H    0.012927
   130  H    0.013932
   131  H    0.024333
   132  H    0.017913
   133  H    0.013272
   134  H    0.028080
   135  H    0.033336
   136  H    0.023622
   137  H    0.017844
   138  H    0.032772
   139  H    0.016963
   140  H    0.026835
 Sum of Mulliken charges =  -0.00000

 Dipole moment (field-independent basis, Debye):
    X=             -3.8420    Y=              4.4480    Z=             -0.8245  Tot=              5.9351
 Quadrupole moment (field-independent basis, Debye-Ang):
   XX=           -372.3733   YY=           -418.3889   ZZ=           -413.4183
   XY=             13.4267   XZ=             18.4962   YZ=              4.4731

 Normal termination of Gaussian 16 at Fri Apr 29 05:36:04 2022.
