 Gaussian 16, Revision A.03,
 Gaussian 16:  ES64L-G16RevA.03 25-Dec-2016

 --------------------
 #p ZINDO=(nstates=5)
 --------------------

 ---------------------------
 step_1_chromophore_16 ZINDO
 ---------------------------
 Symbolic Z-matrix:
 Charge =  0 Multiplicity = 1

                         Standard orientation:
 ---------------------------------------------------------------------
 Center     Atomic      Atomic             Coordinates (Angstroms)
 Number     Number       Type             X           Y           Z
 ---------------------------------------------------------------------
      1         12           0        6.145651    0.540386    0.013028
      2          6           0        3.786815   -2.262675   -0.114026
      3          6           0        3.353706    2.629408   -0.328979
      4          6           0        8.194483    3.063516   -0.239326
      5          6           0        8.706026   -1.683466    0.523799
      6          7           0        3.894316    0.218640   -0.401192
      7          6           0        3.109782   -1.004577   -0.286524
      8          6           0        1.594369   -0.794242   -0.492682
      9          6           0        1.587282    0.820580   -0.762499
     10          6           0        3.029424    1.299430   -0.504640
     11          6           0        1.068530    1.209420   -2.133268
     12          6           0        0.794559   -1.320597    0.737269
     13          6           0       -0.645737   -0.908127    0.791135
     14          6           0       -1.704370   -1.923205    1.160707
     15          8           0       -1.809772   -2.478089    2.238562
     16          8           0       -2.562232   -2.063976    0.123008
     17          7           0        5.847515    2.604232   -0.274965
     18          6           0        4.629455    3.284443   -0.385548
     19          6           0        4.876758    4.719920   -0.507748
     20          6           0        6.322159    4.883682   -0.477201
     21          6           0        6.891386    3.493892   -0.323680
     22          6           0        3.760128    5.826395   -0.556105
     23          6           0        7.178610    6.090399   -0.616175
     24          8           0        8.400059    6.096498   -0.540187
     25          6           0        6.561811    7.421351   -0.744615
     26          7           0        8.095546    0.685962    0.212368
     27          6           0        8.758988    1.812580   -0.053859
     28          6           0       10.290501    1.652766    0.091913
     29          6           0       10.377909    0.292726    0.752739
     30          6           0        8.967893   -0.335900    0.426690
     31          6           0       11.032190    1.719275   -1.238126
     32          6           0       10.705977    0.111040    2.212117
     33          6           0        9.685735    0.706571    3.158676
     34          7           0        6.289065   -1.536345    0.079162
     35          6           0        7.427420   -2.296234    0.403461
     36          6           0        7.066265   -3.692333    0.421751
     37          6           0        5.653984   -3.645968    0.295753
     38          6           0        5.216399   -2.326107    0.075006
     39          6           0        7.931182   -4.880458    0.726419
     40          6           0        4.466396   -4.554234    0.338144
     41          8           0        4.374551   -5.768932    0.616739
     42          6           0        3.258639   -3.668321    0.040814
     43          6           0        2.490194   -4.217323   -1.163098
     44          8           0        2.843942   -4.338841   -2.373045
     45          8           0        1.213290   -4.449029   -0.744541
     46          6           0        0.269065   -4.910445   -1.787322
     47          6           0       -3.542354   -3.209611    0.274334
     48          6           0       -4.860750   -2.518937    0.553270
     49          6           0       -6.066204   -2.921480    0.063895
     50          6           0       -6.228763   -4.211071   -0.705817
     51          6           0       -7.361865   -2.107560    0.401564
     52          6           0       -7.331815   -0.747738   -0.331513
     53          6           0       -7.857535    0.420325    0.542428
     54          6           0       -9.074381    1.047817   -0.129583
     55          6           0       -9.236476    2.428889    0.523640
     56          6           0      -10.397137    0.169512   -0.123484
     57          6           0      -10.745486   -0.442048   -1.480031
     58          6           0      -11.710970    0.392502   -2.317566
     59          6           0      -13.118629    0.550445   -1.695988
     60          6           0      -14.145649   -0.136670   -2.559365
     61          6           0      -13.429196    2.081958   -1.356963
     62          6           0      -14.431973    2.285347   -0.195143
     63          6           0      -13.785881    2.755319    1.096347
     64          6           0      -14.285406    1.992007    2.292401
     65          6           0      -13.125073    1.393756    3.023507
     66          6           0      -15.147361    2.998517    3.168673
     67          1           0        2.480010    3.275565   -0.230788
     68          1           0        8.900784    3.883502   -0.384654
     69          1           0        9.472614   -2.449735    0.657443
     70          1           0        1.330416   -1.443853   -1.327157
     71          1           0        1.027436    1.307225    0.036182
     72          1           0        0.209924    1.868851   -2.003389
     73          1           0        0.742762    0.285517   -2.609839
     74          1           0        1.800407    1.507640   -2.883638
     75          1           0        1.395985   -1.058241    1.608337
     76          1           0        0.820297   -2.410287    0.724479
     77          1           0       -1.087572   -0.531348   -0.131031
     78          1           0       -0.775585   -0.168232    1.580418
     79          1           0        3.931071    6.428486    0.336757
     80          1           0        2.747983    5.423994   -0.517297
     81          1           0        3.931003    6.387802   -1.474738
     82          1           0        5.716418    7.451251   -1.432322
     83          1           0        7.370763    8.039188   -1.132869
     84          1           0        6.120377    7.596237    0.236062
     85          1           0       10.637005    2.474441    0.718821
     86          1           0       11.152045   -0.331154    0.305101
     87          1           0       11.947703    2.291746   -1.093622
     88          1           0       10.431823    2.213965   -2.000888
     89          1           0       11.396843    0.729676   -1.515827
     90          1           0       11.718420    0.481502    2.375132
     91          1           0       10.654741   -0.940095    2.495519
     92          1           0       10.155232    1.277937    3.958594
     93          1           0        9.104874   -0.051992    3.683828
     94          1           0        8.980379    1.390790    2.686896
     95          1           0        7.466149   -5.479654    1.508857
     96          1           0        8.967164   -4.750115    1.039136
     97          1           0        7.978660   -5.476720   -0.185040
     98          1           0        2.567378   -3.746596    0.880425
     99          1           0       -0.342932   -4.074434   -2.125281
    100          1           0       -0.230386   -5.696257   -1.220602
    101          1           0        0.771328   -5.431038   -2.603692
    102          1           0       -3.378749   -3.907054    1.095466
    103          1           0       -3.566440   -3.880690   -0.583322
    104          1           0       -4.847757   -1.578954    1.104638
    105          1           0       -5.443005   -4.911454   -0.421320
    106          1           0       -6.172115   -4.016733   -1.776820
    107          1           0       -7.208942   -4.621485   -0.463020
    108          1           0       -7.430004   -2.037870    1.486612
    109          1           0       -8.208912   -2.724447    0.098401
    110          1           0       -7.956171   -0.863666   -1.217145
    111          1           0       -6.340058   -0.448062   -0.671788
    112          1           0       -6.971064    1.049954    0.608405
    113          1           0       -8.115249    0.072657    1.543156
    114          1           0       -8.839846    1.213888   -1.181560
    115          1           0       -9.516621    2.198147    1.551463
    116          1           0      -10.116356    2.811922    0.007144
    117          1           0       -8.362544    3.060645    0.369755
    118          1           0      -11.167751    0.772140    0.357887
    119          1           0      -10.281416   -0.625168    0.613994
    120          1           0      -11.186034   -1.422493   -1.297857
    121          1           0       -9.824595   -0.594067   -2.041192
    122          1           0      -11.702398    0.017216   -3.341427
    123          1           0      -11.166946    1.332919   -2.407786
    124          1           0      -13.112861    0.146868   -0.683198
    125          1           0      -14.908854    0.566702   -2.892713
    126          1           0      -14.591571   -0.971057   -2.017987
    127          1           0      -13.621819   -0.596459   -3.397841
    128          1           0      -13.833717    2.585171   -2.234227
    129          1           0      -12.435901    2.459022   -1.110595
    130          1           0      -14.859656    1.298033   -0.018995
    131          1           0      -15.257460    2.976423   -0.364675
    132          1           0      -14.082197    3.802060    1.175690
    133          1           0      -12.696293    2.743090    1.099404
    134          1           0      -14.799723    1.045140    2.128310
    135          1           0      -12.526592    0.671803    2.467319
    136          1           0      -13.483159    0.908110    3.930886
    137          1           0      -12.410377    2.168799    3.298457
    138          1           0      -14.610377    3.817683    3.646852
    139          1           0      -15.645576    2.440952    3.961594
    140          1           0      -15.990048    3.484882    2.677021
 ---------------------------------------------------------------------

 SCF Done:  E(RZINDO/S) =  -474.240902207     A.U. after   19 cycles

 Excitation energies and oscillator strengths:

 Excited State   1:      Singlet-A      1.2301 eV 1007.91 nm  f=0.6005  <S**2>=0.000
     175 ->178         0.16648
     176 ->177         0.66905
 This state for optimization and/or second-order correction.
 Total Energy, E(CIS/TDA) =  -474.195696563
 Copying the excited state density for this state as the 1-particle RhoCI density.

 Excited State   2:      Singlet-A      1.9286 eV  642.88 nm  f=0.0836  <S**2>=0.000
     175 ->177         0.56798
     176 ->178        -0.38569

 Excited State   3:      Singlet-A      2.8430 eV  436.10 nm  f=0.0052  <S**2>=0.000
     168 ->177         0.38095
     168 ->178        -0.16424
     168 ->179        -0.38099
     168 ->180         0.23916
     168 ->185        -0.22044

 Excited State   4:      Singlet-A      3.0248 eV  409.89 nm  f=0.7989  <S**2>=0.000
     170 ->179        -0.10232
     171 ->177         0.19310
     175 ->177         0.31214
     176 ->178         0.50146
     176 ->179         0.16027

 Excited State   5:      Singlet-A      3.0465 eV  406.97 nm  f=0.1319  <S**2>=0.000
     170 ->177         0.28151
     170 ->179         0.27520
     170 ->180         0.28576
     170 ->182        -0.18064
     170 ->183        -0.10858
     170 ->185         0.18562
     170 ->187         0.12385
     175 ->177         0.12369
     176 ->178         0.19101

 The electronic state is 1-A.
 Alpha  occ. eigenvalues --   -1.85182  -1.80877  -1.76940  -1.73510  -1.71170
 Alpha  occ. eigenvalues --   -1.68465  -1.67946  -1.62035  -1.61421  -1.56854
 Alpha  occ. eigenvalues --   -1.55892  -1.51493  -1.48088  -1.46777  -1.45207
 Alpha  occ. eigenvalues --   -1.44071  -1.41891  -1.40338  -1.38854  -1.38774
 Alpha  occ. eigenvalues --   -1.35824  -1.33777  -1.32315  -1.31969  -1.30336
 Alpha  occ. eigenvalues --   -1.29378  -1.25265  -1.23014  -1.21314  -1.18031
 Alpha  occ. eigenvalues --   -1.17007  -1.16183  -1.14605  -1.13717  -1.13373
 Alpha  occ. eigenvalues --   -1.12409  -1.12138  -1.11847  -1.05919  -1.02799
 Alpha  occ. eigenvalues --   -1.02182  -1.01211  -0.99139  -0.98971  -0.98167
 Alpha  occ. eigenvalues --   -0.95571  -0.94260  -0.93436  -0.92701  -0.92027
 Alpha  occ. eigenvalues --   -0.91667  -0.90210  -0.88804  -0.88029  -0.86177
 Alpha  occ. eigenvalues --   -0.85036  -0.83176  -0.82606  -0.81511  -0.79793
 Alpha  occ. eigenvalues --   -0.79141  -0.78713  -0.78274  -0.77201  -0.75862
 Alpha  occ. eigenvalues --   -0.75711  -0.75646  -0.75161  -0.74725  -0.73711
 Alpha  occ. eigenvalues --   -0.73221  -0.72957  -0.72324  -0.72016  -0.70898
 Alpha  occ. eigenvalues --   -0.70578  -0.69546  -0.69101  -0.68727  -0.68523
 Alpha  occ. eigenvalues --   -0.67794  -0.67505  -0.66900  -0.66760  -0.66023
 Alpha  occ. eigenvalues --   -0.65369  -0.64883  -0.64507  -0.63821  -0.63691
 Alpha  occ. eigenvalues --   -0.63292  -0.63116  -0.62782  -0.62624  -0.62087
 Alpha  occ. eigenvalues --   -0.61932  -0.61762  -0.60909  -0.60345  -0.60186
 Alpha  occ. eigenvalues --   -0.59720  -0.59437  -0.59030  -0.58967  -0.58465
 Alpha  occ. eigenvalues --   -0.57530  -0.57465  -0.56960  -0.56380  -0.55904
 Alpha  occ. eigenvalues --   -0.55795  -0.55721  -0.55055  -0.54833  -0.54521
 Alpha  occ. eigenvalues --   -0.54197  -0.54084  -0.53714  -0.52824  -0.52666
 Alpha  occ. eigenvalues --   -0.52502  -0.52383  -0.52183  -0.52007  -0.51646
 Alpha  occ. eigenvalues --   -0.51585  -0.51173  -0.50794  -0.50655  -0.50217
 Alpha  occ. eigenvalues --   -0.50065  -0.49745  -0.49574  -0.49383  -0.48788
 Alpha  occ. eigenvalues --   -0.48630  -0.48567  -0.48301  -0.48208  -0.47855
 Alpha  occ. eigenvalues --   -0.47555  -0.47372  -0.47070  -0.46795  -0.46635
 Alpha  occ. eigenvalues --   -0.46475  -0.46291  -0.45746  -0.45392  -0.45180
 Alpha  occ. eigenvalues --   -0.44996  -0.44844  -0.44649  -0.43786  -0.43557
 Alpha  occ. eigenvalues --   -0.43354  -0.42737  -0.42442  -0.42204  -0.41897
 Alpha  occ. eigenvalues --   -0.41767  -0.41551  -0.40891  -0.39144  -0.38543
 Alpha  occ. eigenvalues --   -0.38150  -0.36862  -0.35590  -0.34760  -0.34146
 Alpha  occ. eigenvalues --   -0.33995  -0.32652  -0.31626  -0.31183  -0.26991
 Alpha  occ. eigenvalues --   -0.22092
 Alpha virt. eigenvalues --   -0.09066  -0.02011  -0.00746   0.01107   0.02165
 Alpha virt. eigenvalues --    0.02410   0.02636   0.03387   0.04677   0.05037
 Alpha virt. eigenvalues --    0.05930   0.06229   0.06510   0.07402   0.07858

 Mulliken charges:
               1
     1  Mg   0.425744
     2  C   -0.037565
     3  C   -0.088809
     4  C   -0.056790
     5  C   -0.047301
     6  N   -0.322399
     7  C    0.087112
     8  C   -0.002919
     9  C    0.011957
    10  C    0.170358
    11  C   -0.048605
    12  C   -0.013302
    13  C    0.005963
    14  C    0.471438
    15  O   -0.522884
    16  O   -0.267413
    17  N   -0.336791
    18  C    0.134815
    19  C    0.012128
    20  C   -0.043391
    21  C    0.144424
    22  C   -0.040267
    23  C    0.334116
    24  O   -0.529676
    25  C   -0.034333
    26  N   -0.246146
    27  C    0.167160
    28  C    0.014945
    29  C    0.005861
    30  C    0.089780
    31  C   -0.047840
    32  C   -0.018489
    33  C   -0.055184
    34  N   -0.316304
    35  C    0.057028
    36  C    0.024226
    37  C   -0.067572
    38  C    0.116087
    39  C   -0.035803
    40  C    0.324539
    41  O   -0.535307
    42  C    0.072741
    43  C    0.483288
    44  O   -0.533431
    45  O   -0.266122
    46  C    0.070040
    47  C    0.100812
    48  C   -0.091042
    49  C   -0.025892
    50  C   -0.042094
    51  C   -0.023567
    52  C   -0.037967
    53  C   -0.034994
    54  C   -0.015620
    55  C   -0.064428
    56  C   -0.034131
    57  C   -0.026618
    58  C   -0.032873
    59  C   -0.011882
    60  C   -0.053494
    61  C   -0.041368
    62  C   -0.037970
    63  C   -0.027386
    64  C   -0.006836
    65  C   -0.052549
    66  C   -0.059978
    67  H    0.019378
    68  H    0.039265
    69  H    0.033110
    70  H    0.045571
    71  H    0.027609
    72  H    0.025230
    73  H    0.016209
    74  H    0.034706
    75  H    0.030530
    76  H    0.030262
    77  H    0.033454
    78  H    0.040150
    79  H    0.034127
    80  H    0.031294
    81  H    0.037352
    82  H    0.023706
    83  H    0.049917
    84  H    0.048739
    85  H    0.033153
    86  H    0.011726
    87  H    0.016289
    88  H    0.030255
    89  H    0.025577
    90  H    0.017702
    91  H    0.021188
    92  H    0.010044
    93  H    0.019154
    94  H    0.022137
    95  H    0.033129
    96  H    0.020708
    97  H    0.032898
    98  H    0.057463
    99  H    0.044964
   100  H    0.034541
   101  H    0.056442
   102  H    0.059515
   103  H    0.043423
   104  H    0.037364
   105  H    0.024586
   106  H    0.031093
   107  H    0.023629
   108  H    0.029349
   109  H    0.017479
   110  H    0.019624
   111  H    0.021863
   112  H    0.018099
   113  H    0.023087
   114  H    0.014122
   115  H    0.024402
   116  H    0.010478
   117  H    0.028198
   118  H    0.022855
   119  H    0.010489
   120  H    0.011829
   121  H    0.018652
   122  H    0.016371
   123  H    0.010992
   124  H    0.022056
   125  H    0.023767
   126  H    0.015982
   127  H    0.019776
   128  H    0.017598
   129  H    0.021564
   130  H    0.015855
   131  H    0.022439
   132  H    0.013364
   133  H    0.021728
   134  H    0.029783
   135  H    0.017212
   136  H    0.009363
   137  H    0.009246
   138  H    0.023935
   139  H    0.005032
   140  H    0.016590
 Sum of Mulliken charges =  -0.00000

 Dipole moment (field-independent basis, Debye):
    X=             -4.5696    Y=              8.8623    Z=             -0.8063  Tot=             10.0036
 N-N= 4.268920421508D+03 E-N= 0.000000000000D+00  KE=-9.211993799221D+03
 Leave Link  601 at Fri Apr 29 05:49:38 2022, MaxMem=  6710886400 cpu:               0.8 elap:               0.1
 (Enter /sw/apps/gaussian-16.0/g16/l9999.exe)
 1\1\GINC-BP1-COMPUTE162\SP\RZINDO CIS\STO-3G\C55H74Mg1N4O6\OF15641\29-
 Apr-2022\0\\#p ZINDO=(nstates=5)\\step_1_chromophore_16 ZINDO\\0,1\Mg,
 0,41.128,41.857,26.986\C,0,40.127,44.179,29.64\C,0,41.31,39.41,29.487\
 C,0,42.362,39.821,24.759\C,0,40.706,44.363,24.683\N,0,40.967,41.85,29.
 292\C,0,40.421,42.875,30.173\C,0,40.337,42.444,31.653\C,0,40.946,40.93
 ,31.521\C,0,41.116,40.672,30.011\C,0,42.224,40.714,32.308\C,0,38.879,4
 2.588,32.185\C,0,38.608,41.927,33.503\C,0,37.806,42.656,34.558\O,0,36.

 Normal termination of Gaussian 16 at Fri Apr 29 05:49:38 2022.
