 Gaussian 16, Revision A.03,
 Gaussian 16:  ES64L-G16RevA.03 25-Dec-2016

 ------------------------------
 #p blyp/Def2SVP td=(nstates=5)
 ------------------------------

 ---------------------------------------------------
 step_1851_chromophore_11 TDDFT with blyp functional
 ---------------------------------------------------
 Symbolic Z-matrix:
 Charge =  0 Multiplicity = 1

                         Standard orientation:
 ---------------------------------------------------------------------
 Center     Atomic      Atomic             Coordinates (Angstroms)
 Number     Number       Type             X           Y           Z
 ---------------------------------------------------------------------
      1         12           0       -4.526303    1.557615    0.365209
      2          6           0       -5.842766   -1.775748   -0.398738
      3          6           0       -2.964165    0.013644    3.148273
      4          6           0       -3.095567    4.359878    0.855124
      5          6           0       -5.968291    2.682628   -2.573706
      6          7           0       -4.364083   -0.596568    1.163300
      7          6           0       -4.975071   -1.743075    0.713144
      8          6           0       -4.588742   -2.900031    1.586985
      9          6           0       -4.127000   -2.274839    2.893280
     10          6           0       -3.763933   -0.854474    2.406967
     11          6           0       -5.138239   -2.325442    4.016197
     12          6           0       -3.622160   -3.913055    0.938665
     13          6           0       -2.310129   -3.352688    0.244722
     14          6           0       -1.008034   -3.703150    1.027346
     15          8           0       -0.702436   -3.363309    2.208921
     16          8           0       -0.182229   -4.512249    0.265963
     17          7           0       -3.232048    2.121874    1.752160
     18          6           0       -2.798203    1.368576    2.862544
     19          6           0       -2.032341    2.321730    3.714851
     20          6           0       -1.939263    3.562049    3.045028
     21          6           0       -2.791708    3.384476    1.839956
     22          6           0       -1.453762    1.962982    5.023354
     23          6           0       -1.198391    4.770734    3.556520
     24          8           0       -0.446106    4.640036    4.534370
     25          6           0       -1.192880    6.085323    2.887618
     26          7           0       -4.421337    3.235220   -0.789684
     27          6           0       -3.876598    4.380069   -0.309225
     28          6           0       -4.244499    5.643250   -1.117662
     29          6           0       -4.874358    4.985133   -2.368691
     30          6           0       -5.177733    3.528869   -1.856012
     31          6           0       -5.214536    6.650205   -0.363777
     32          6           0       -3.975011    5.031720   -3.669420
     33          6           0       -2.722333    4.171776   -3.705095
     34          7           0       -5.789142    0.716323   -1.235218
     35          6           0       -6.354755    1.311815   -2.320859
     36          6           0       -7.303150    0.361869   -2.943104
     37          6           0       -7.147497   -0.810430   -2.210484
     38          6           0       -6.178793   -0.622660   -1.184602
     39          6           0       -8.201556    0.586135   -4.115097
     40          6           0       -7.594436   -2.171002   -2.015532
     41          8           0       -8.510635   -2.696583   -2.651486
     42          6           0       -6.715024   -2.913934   -0.911463
     43          6           0       -5.855593   -3.852676   -1.640086
     44          8           0       -5.140463   -3.674768   -2.631989
     45          8           0       -5.999522   -5.102708   -1.080379
     46          6           0       -5.380008   -6.164887   -1.857939
     47          6           0        1.076884   -4.973055    0.866814
     48          6           0        2.148327   -4.272883    0.118556
     49          6           0        3.445833   -4.139634    0.294820
     50          6           0        4.074599   -4.735498    1.597406
     51          6           0        4.272273   -3.244538   -0.574380
     52          6           0        4.528512   -1.855564   -0.093429
     53          6           0        6.064484   -1.640101   -0.014034
     54          6           0        6.395868   -0.142276   -0.085038
     55          6           0        6.507878    0.260328   -1.599107
     56          6           0        7.606696    0.084543    0.760611
     57          6           0        8.845928   -0.593355    0.254666
     58          6           0       10.045354    0.380879   -0.044864
     59          6           0       11.304253   -0.053608    0.719515
     60          6           0       11.134374    0.173921    2.226095
     61          6           0       12.563772    0.726057    0.159274
     62          6           0       13.529125   -0.102600   -0.669049
     63          6           0       13.739059    0.516523   -2.056189
     64          6           0       15.059913    1.407877   -2.084595
     65          6           0       14.987531    2.393699   -3.249854
     66          6           0       16.281203    0.432004   -2.202163
     67          1           0       -2.544415   -0.381140    4.075798
     68          1           0       -2.755302    5.366779    1.106735
     69          1           0       -6.308931    3.211577   -3.466669
     70          1           0       -5.445577   -3.539113    1.800452
     71          1           0       -3.155413   -2.627860    3.236650
     72          1           0       -4.623203   -2.068294    4.942090
     73          1           0       -5.567994   -3.326736    3.992763
     74          1           0       -5.903844   -1.576132    3.814565
     75          1           0       -4.085771   -4.573901    0.206163
     76          1           0       -3.276754   -4.461055    1.814471
     77          1           0       -2.372998   -2.267030    0.311019
     78          1           0       -2.182317   -3.586068   -0.812528
     79          1           0       -0.380725    1.803643    4.924537
     80          1           0       -1.816176    0.977389    5.315703
     81          1           0       -1.725013    2.730763    5.748345
     82          1           0       -0.627914    6.885831    3.365539
     83          1           0       -2.218586    6.441545    2.984260
     84          1           0       -0.938873    6.011237    1.830054
     85          1           0       -3.431455    6.203144   -1.581181
     86          1           0       -5.801475    5.463892   -2.682309
     87          1           0       -5.815165    6.128962    0.380906
     88          1           0       -5.942279    7.114429   -1.031139
     89          1           0       -4.606892    7.416685    0.117971
     90          1           0       -3.567796    6.014424   -3.912195
     91          1           0       -4.564643    4.717483   -4.530256
     92          1           0       -2.397081    3.735248   -2.760727
     93          1           0       -1.849361    4.625484   -4.174878
     94          1           0       -2.944311    3.307398   -4.330531
     95          1           0       -7.526134    0.976314   -4.876490
     96          1           0       -9.043300    1.250322   -3.922660
     97          1           0       -8.566563   -0.336009   -4.567133
     98          1           0       -7.419747   -3.443126   -0.269747
     99          1           0       -4.295883   -6.133447   -1.749823
    100          1           0       -5.556932   -6.002505   -2.921004
    101          1           0       -5.706794   -7.144795   -1.509667
    102          1           0        1.214889   -6.047499    0.743534
    103          1           0        1.096206   -4.801233    1.942589
    104          1           0        1.776792   -3.613754   -0.665836
    105          1           0        5.052069   -5.143495    1.340505
    106          1           0        3.557017   -5.545873    2.111040
    107          1           0        4.242518   -3.922640    2.302806
    108          1           0        3.737878   -3.145193   -1.519032
    109          1           0        5.156328   -3.777999   -0.921094
    110          1           0        4.147018   -1.617092    0.899249
    111          1           0        4.066219   -1.185815   -0.819347
    112          1           0        6.566469   -2.154585   -0.833341
    113          1           0        6.487144   -2.018739    0.917469
    114          1           0        5.661032    0.526764    0.362867
    115          1           0        7.329628    0.957905   -1.761139
    116          1           0        5.644594    0.864613   -1.878175
    117          1           0        6.728320   -0.584152   -2.253157
    118          1           0        7.344922   -0.322001    1.737479
    119          1           0        7.865577    1.142789    0.804840
    120          1           0        8.656788   -1.169110   -0.650669
    121          1           0        9.242497   -1.280724    1.002646
    122          1           0        9.861408    1.444145    0.110125
    123          1           0       10.302832    0.271945   -1.099022
    124          1           0       11.455219   -1.121286    0.556534
    125          1           0       10.737451   -0.628862    2.847112
    126          1           0       10.390556    0.966507    2.312945
    127          1           0       12.056495    0.461185    2.731279
    128          1           0       13.057473    1.244919    0.980974
    129          1           0       12.040129    1.498971   -0.403077
    130          1           0       13.150389   -1.088215   -0.939944
    131          1           0       14.500218   -0.265320   -0.200816
    132          1           0       12.904091    1.043437   -2.517756
    133          1           0       13.790705   -0.318807   -2.754341
    134          1           0       14.959653    1.932977   -1.134495
    135          1           0       14.052685    2.544511   -3.790269
    136          1           0       15.754490    2.228251   -4.006264
    137          1           0       15.394427    3.282943   -2.767837
    138          1           0       16.731271    0.332162   -1.215682
    139          1           0       17.128388    0.839512   -2.753122
    140          1           0       16.024822   -0.544061   -2.613115
 ---------------------------------------------------------------------

 SCF Done:  E(RB-LYP) =  -3007.39001418     A.U. after   22 cycles

 Excitation energies and oscillator strengths:

 Excited State   1:      Singlet-A      1.7728 eV  699.38 nm  f=0.0001  <S**2>=0.000
     244 -> 247        0.70340
 This state for optimization and/or second-order correction.
 Total Energy, E(TD-HF/TD-DFT) =  -3007.32486580
 Copying the excited state density for this state as the 1-particle RhoCI density.

 Excited State   2:      Singlet-A      1.8036 eV  687.44 nm  f=0.3016  <S**2>=0.000
     245 -> 248       -0.18323
     246 -> 247        0.69165
     246 <- 247       -0.15386

 Excited State   3:      Singlet-A      1.9064 eV  650.36 nm  f=0.0051  <S**2>=0.000
     243 -> 247        0.70340

 Excited State   4:      Singlet-A      2.0576 eV  602.58 nm  f=0.0625  <S**2>=0.000
     241 -> 247        0.10580
     245 -> 247        0.63711
     246 -> 248        0.26257

 Excited State   5:      Singlet-A      2.2304 eV  555.89 nm  f=0.0000  <S**2>=0.000
     242 -> 247        0.70704

 The electronic state is 1-A.
 Alpha  occ. eigenvalues --  -46.27084 -18.82467 -18.82262 -18.76979 -18.76957
 Alpha  occ. eigenvalues --  -18.75643 -18.74973 -14.03628 -14.03272 -14.01729
 Alpha  occ. eigenvalues --  -14.00844 -10.04709 -10.04212  -9.99763  -9.99734
 Alpha  occ. eigenvalues --   -9.97737  -9.97511  -9.97192  -9.96731  -9.96703
 Alpha  occ. eigenvalues --   -9.96502  -9.96195  -9.96106  -9.96070  -9.94870
 Alpha  occ. eigenvalues --   -9.94791  -9.94769  -9.94718  -9.94121  -9.93782
 Alpha  occ. eigenvalues --   -9.93765  -9.93722  -9.93651  -9.93586  -9.93376
 Alpha  occ. eigenvalues --   -9.93369  -9.93111  -9.93060  -9.92726  -9.92713
 Alpha  occ. eigenvalues --   -9.92654  -9.92595  -9.92166  -9.92064  -9.91978
 Alpha  occ. eigenvalues --   -9.91976  -9.91906  -9.91446  -9.91297  -9.91276
 Alpha  occ. eigenvalues --   -9.91246  -9.91187  -9.91118  -9.90902  -9.90868
 Alpha  occ. eigenvalues --   -9.90829  -9.90814  -9.90731  -9.90715  -9.90432
 Alpha  occ. eigenvalues --   -9.90407  -9.90403  -9.90271  -9.90232  -9.90189
 Alpha  occ. eigenvalues --   -9.90027  -2.91824  -1.72237  -1.71719  -1.71539
 Alpha  occ. eigenvalues --   -0.98211  -0.96774  -0.90826  -0.90539  -0.89421
 Alpha  occ. eigenvalues --   -0.88178  -0.87275  -0.85742  -0.85247  -0.84531
 Alpha  occ. eigenvalues --   -0.75750  -0.74059  -0.73030  -0.72801  -0.72447
 Alpha  occ. eigenvalues --   -0.72095  -0.72051  -0.71159  -0.70591  -0.70043
 Alpha  occ. eigenvalues --   -0.69345  -0.69288  -0.68405  -0.67857  -0.67410
 Alpha  occ. eigenvalues --   -0.66602  -0.66350  -0.65523  -0.65238  -0.64448
 Alpha  occ. eigenvalues --   -0.63558  -0.62309  -0.62076  -0.61879  -0.61015
 Alpha  occ. eigenvalues --   -0.60403  -0.60050  -0.59974  -0.59740  -0.58692
 Alpha  occ. eigenvalues --   -0.58040  -0.57546  -0.57024  -0.55845  -0.55112
 Alpha  occ. eigenvalues --   -0.54208  -0.54060  -0.52811  -0.52430  -0.51658
 Alpha  occ. eigenvalues --   -0.51324  -0.50980  -0.50581  -0.50311  -0.49560
 Alpha  occ. eigenvalues --   -0.49212  -0.48931  -0.48822  -0.47299  -0.46799
 Alpha  occ. eigenvalues --   -0.46343  -0.45919  -0.45799  -0.45492  -0.45236
 Alpha  occ. eigenvalues --   -0.43701  -0.43332  -0.43161  -0.42819  -0.42441
 Alpha  occ. eigenvalues --   -0.42275  -0.42129  -0.41786  -0.41596  -0.41330
 Alpha  occ. eigenvalues --   -0.40970  -0.40730  -0.40377  -0.40222  -0.40097
 Alpha  occ. eigenvalues --   -0.39900  -0.39689  -0.39519  -0.39195  -0.38994
 Alpha  occ. eigenvalues --   -0.38790  -0.38733  -0.38363  -0.38297  -0.37990
 Alpha  occ. eigenvalues --   -0.37813  -0.37662  -0.37545  -0.37284  -0.37243
 Alpha  occ. eigenvalues --   -0.37083  -0.36984  -0.36692  -0.36525  -0.36307
 Alpha  occ. eigenvalues --   -0.36267  -0.35960  -0.35807  -0.35424  -0.35368
 Alpha  occ. eigenvalues --   -0.35232  -0.34909  -0.34757  -0.34626  -0.34568
 Alpha  occ. eigenvalues --   -0.34526  -0.34432  -0.34088  -0.34041  -0.33946
 Alpha  occ. eigenvalues --   -0.33770  -0.33611  -0.33566  -0.33331  -0.32954
 Alpha  occ. eigenvalues --   -0.32901  -0.32586  -0.32471  -0.32352  -0.32110
 Alpha  occ. eigenvalues --   -0.32020  -0.31680  -0.31591  -0.31449  -0.31154
 Alpha  occ. eigenvalues --   -0.30947  -0.30881  -0.30759  -0.30699  -0.30640
 Alpha  occ. eigenvalues --   -0.30459  -0.30418  -0.30275  -0.30124  -0.29805
 Alpha  occ. eigenvalues --   -0.29768  -0.29485  -0.29379  -0.29135  -0.28923
 Alpha  occ. eigenvalues --   -0.28799  -0.28410  -0.28206  -0.27978  -0.27922
 Alpha  occ. eigenvalues --   -0.27110  -0.26737  -0.26730  -0.26632  -0.26436
 Alpha  occ. eigenvalues --   -0.26228  -0.26155  -0.25637  -0.25574  -0.25314
 Alpha  occ. eigenvalues --   -0.24982  -0.24875  -0.24017  -0.23933  -0.23567
 Alpha  occ. eigenvalues --   -0.22875  -0.22692  -0.22023  -0.21888  -0.20919
 Alpha  occ. eigenvalues --   -0.20218  -0.19957  -0.18648  -0.18212  -0.17721
 Alpha  occ. eigenvalues --   -0.15976
 Alpha virt. eigenvalues --   -0.11760  -0.07104  -0.06109  -0.04916  -0.03580
 Alpha virt. eigenvalues --   -0.03147  -0.02459  -0.01877  -0.00610   0.00196
 Alpha virt. eigenvalues --    0.01002   0.01632   0.02191   0.02654   0.03138

 Mulliken charges:
               1
     1  Mg   0.699146
     2  C   -0.008324
     3  C   -0.065840
     4  C   -0.043963
     5  C   -0.058179
     6  N   -0.205114
     7  C   -0.069942
     8  C    0.028046
     9  C    0.003803
    10  C   -0.008162
    11  C    0.175673
    12  C    0.101046
    13  C    0.122524
    14  C    0.088015
    15  O   -0.234132
    16  O   -0.269848
    17  N   -0.335854
    18  C    0.170360
    19  C   -0.180903
    20  C    0.061419
    21  C    0.141727
    22  C    0.226459
    23  C   -0.096720
    24  O   -0.187941
    25  C    0.168049
    26  N   -0.240626
    27  C    0.010207
    28  C    0.065090
    29  C    0.016384
    30  C    0.011831
    31  C    0.117527
    32  C    0.071297
    33  C    0.043415
    34  N   -0.249765
    35  C    0.115776
    36  C   -0.170712
    37  C    0.144599
    38  C    0.067507
    39  C    0.170472
    40  C   -0.097928
    41  O   -0.143473
    42  C    0.140579
    43  C    0.099081
    44  O   -0.193896
    45  O   -0.269916
    46  C    0.225199
    47  C    0.341214
    48  C   -0.121524
    49  C   -0.152150
    50  C    0.106758
    51  C    0.170275
    52  C    0.125979
    53  C    0.058747
    54  C   -0.074999
    55  C    0.110383
    56  C    0.127910
    57  C    0.082227
    58  C    0.078987
    59  C   -0.117559
    60  C    0.104690
    61  C    0.142907
    62  C    0.119027
    63  C    0.035342
    64  C   -0.089282
    65  C    0.120406
    66  C    0.113156
    67  H   -0.042727
    68  H   -0.098593
    69  H   -0.071528
    70  H   -0.046411
    71  H   -0.021373
    72  H   -0.004374
    73  H   -0.003636
    74  H   -0.012723
    75  H    0.006834
    76  H   -0.013168
    77  H    0.016481
    78  H    0.001138
    79  H    0.008798
    80  H   -0.042526
    81  H    0.014509
    82  H   -0.014840
    83  H   -0.000866
    84  H    0.024594
    85  H   -0.027704
    86  H   -0.041202
    87  H   -0.005507
    88  H   -0.004252
    89  H    0.004294
    90  H   -0.018099
    91  H   -0.018784
    92  H    0.005120
    93  H   -0.013424
    94  H   -0.015106
    95  H   -0.007404
    96  H    0.008592
    97  H   -0.001476
    98  H   -0.005642
    99  H    0.002141
   100  H    0.021933
   101  H    0.013559
   102  H    0.002671
   103  H    0.009289
   104  H   -0.039799
   105  H   -0.020568
   106  H   -0.011195
   107  H    0.005290
   108  H   -0.047812
   109  H   -0.034774
   110  H   -0.014924
   111  H   -0.030504
   112  H   -0.023328
   113  H   -0.034889
   114  H   -0.043640
   115  H   -0.032403
   116  H   -0.010735
   117  H   -0.013620
   118  H   -0.035696
   119  H   -0.041693
   120  H   -0.033550
   121  H   -0.034545
   122  H   -0.021738
   123  H   -0.041056
   124  H   -0.036272
   125  H   -0.020248
   126  H   -0.027058
   127  H   -0.018019
   128  H   -0.043709
   129  H   -0.041485
   130  H   -0.038110
   131  H   -0.033098
   132  H   -0.041160
   133  H   -0.053229
   134  H   -0.024209
   135  H   -0.007067
   136  H   -0.030849
   137  H   -0.023581
   138  H   -0.019414
   139  H   -0.023911
   140  H   -0.002476
 Sum of Mulliken charges =  -0.00000

 Dipole moment (field-independent basis, Debye):
    X=              0.5563    Y=              1.6472    Z=             -0.0425  Tot=              1.7391
 Quadrupole moment (field-independent basis, Debye-Ang):
   XX=           -414.6475   YY=           -371.2767   ZZ=           -419.5671
   XY=            -32.0527   XZ=            -21.5650   YZ=            -27.2884

 Normal termination of Gaussian 16 at Wed May  4 15:30:00 2022.
