 Gaussian 16, Revision A.03,
 Gaussian 16:  ES64L-G16RevA.03 25-Dec-2016

 -----------------------------------
 #p cam-b3lyp/Def2SVP td=(nstates=5)
 -----------------------------------

 --------------------------------------------------------
 step_1851_chromophore_11 TDDFT with cam-b3lyp functional
 --------------------------------------------------------
 Symbolic Z-matrix:
 Charge =  0 Multiplicity = 1

                         Standard orientation:
 ---------------------------------------------------------------------
 Center     Atomic      Atomic             Coordinates (Angstroms)
 Number     Number       Type             X           Y           Z
 ---------------------------------------------------------------------
      1         12           0       -4.526303    1.557615    0.365209
      2          6           0       -5.842766   -1.775748   -0.398738
      3          6           0       -2.964165    0.013644    3.148273
      4          6           0       -3.095567    4.359878    0.855124
      5          6           0       -5.968291    2.682628   -2.573706
      6          7           0       -4.364083   -0.596568    1.163300
      7          6           0       -4.975071   -1.743075    0.713144
      8          6           0       -4.588742   -2.900031    1.586985
      9          6           0       -4.127000   -2.274839    2.893280
     10          6           0       -3.763933   -0.854474    2.406967
     11          6           0       -5.138239   -2.325442    4.016197
     12          6           0       -3.622160   -3.913055    0.938665
     13          6           0       -2.310129   -3.352688    0.244722
     14          6           0       -1.008034   -3.703150    1.027346
     15          8           0       -0.702436   -3.363309    2.208921
     16          8           0       -0.182229   -4.512249    0.265963
     17          7           0       -3.232048    2.121874    1.752160
     18          6           0       -2.798203    1.368576    2.862544
     19          6           0       -2.032341    2.321730    3.714851
     20          6           0       -1.939263    3.562049    3.045028
     21          6           0       -2.791708    3.384476    1.839956
     22          6           0       -1.453762    1.962982    5.023354
     23          6           0       -1.198391    4.770734    3.556520
     24          8           0       -0.446106    4.640036    4.534370
     25          6           0       -1.192880    6.085323    2.887618
     26          7           0       -4.421337    3.235220   -0.789684
     27          6           0       -3.876598    4.380069   -0.309225
     28          6           0       -4.244499    5.643250   -1.117662
     29          6           0       -4.874358    4.985133   -2.368691
     30          6           0       -5.177733    3.528869   -1.856012
     31          6           0       -5.214536    6.650205   -0.363777
     32          6           0       -3.975011    5.031720   -3.669420
     33          6           0       -2.722333    4.171776   -3.705095
     34          7           0       -5.789142    0.716323   -1.235218
     35          6           0       -6.354755    1.311815   -2.320859
     36          6           0       -7.303150    0.361869   -2.943104
     37          6           0       -7.147497   -0.810430   -2.210484
     38          6           0       -6.178793   -0.622660   -1.184602
     39          6           0       -8.201556    0.586135   -4.115097
     40          6           0       -7.594436   -2.171002   -2.015532
     41          8           0       -8.510635   -2.696583   -2.651486
     42          6           0       -6.715024   -2.913934   -0.911463
     43          6           0       -5.855593   -3.852676   -1.640086
     44          8           0       -5.140463   -3.674768   -2.631989
     45          8           0       -5.999522   -5.102708   -1.080379
     46          6           0       -5.380008   -6.164887   -1.857939
     47          6           0        1.076884   -4.973055    0.866814
     48          6           0        2.148327   -4.272883    0.118556
     49          6           0        3.445833   -4.139634    0.294820
     50          6           0        4.074599   -4.735498    1.597406
     51          6           0        4.272273   -3.244538   -0.574380
     52          6           0        4.528512   -1.855564   -0.093429
     53          6           0        6.064484   -1.640101   -0.014034
     54          6           0        6.395868   -0.142276   -0.085038
     55          6           0        6.507878    0.260328   -1.599107
     56          6           0        7.606696    0.084543    0.760611
     57          6           0        8.845928   -0.593355    0.254666
     58          6           0       10.045354    0.380879   -0.044864
     59          6           0       11.304253   -0.053608    0.719515
     60          6           0       11.134374    0.173921    2.226095
     61          6           0       12.563772    0.726057    0.159274
     62          6           0       13.529125   -0.102600   -0.669049
     63          6           0       13.739059    0.516523   -2.056189
     64          6           0       15.059913    1.407877   -2.084595
     65          6           0       14.987531    2.393699   -3.249854
     66          6           0       16.281203    0.432004   -2.202163
     67          1           0       -2.544415   -0.381140    4.075798
     68          1           0       -2.755302    5.366779    1.106735
     69          1           0       -6.308931    3.211577   -3.466669
     70          1           0       -5.445577   -3.539113    1.800452
     71          1           0       -3.155413   -2.627860    3.236650
     72          1           0       -4.623203   -2.068294    4.942090
     73          1           0       -5.567994   -3.326736    3.992763
     74          1           0       -5.903844   -1.576132    3.814565
     75          1           0       -4.085771   -4.573901    0.206163
     76          1           0       -3.276754   -4.461055    1.814471
     77          1           0       -2.372998   -2.267030    0.311019
     78          1           0       -2.182317   -3.586068   -0.812528
     79          1           0       -0.380725    1.803643    4.924537
     80          1           0       -1.816176    0.977389    5.315703
     81          1           0       -1.725013    2.730763    5.748345
     82          1           0       -0.627914    6.885831    3.365539
     83          1           0       -2.218586    6.441545    2.984260
     84          1           0       -0.938873    6.011237    1.830054
     85          1           0       -3.431455    6.203144   -1.581181
     86          1           0       -5.801475    5.463892   -2.682309
     87          1           0       -5.815165    6.128962    0.380906
     88          1           0       -5.942279    7.114429   -1.031139
     89          1           0       -4.606892    7.416685    0.117971
     90          1           0       -3.567796    6.014424   -3.912195
     91          1           0       -4.564643    4.717483   -4.530256
     92          1           0       -2.397081    3.735248   -2.760727
     93          1           0       -1.849361    4.625484   -4.174878
     94          1           0       -2.944311    3.307398   -4.330531
     95          1           0       -7.526134    0.976314   -4.876490
     96          1           0       -9.043300    1.250322   -3.922660
     97          1           0       -8.566563   -0.336009   -4.567133
     98          1           0       -7.419747   -3.443126   -0.269747
     99          1           0       -4.295883   -6.133447   -1.749823
    100          1           0       -5.556932   -6.002505   -2.921004
    101          1           0       -5.706794   -7.144795   -1.509667
    102          1           0        1.214889   -6.047499    0.743534
    103          1           0        1.096206   -4.801233    1.942589
    104          1           0        1.776792   -3.613754   -0.665836
    105          1           0        5.052069   -5.143495    1.340505
    106          1           0        3.557017   -5.545873    2.111040
    107          1           0        4.242518   -3.922640    2.302806
    108          1           0        3.737878   -3.145193   -1.519032
    109          1           0        5.156328   -3.777999   -0.921094
    110          1           0        4.147018   -1.617092    0.899249
    111          1           0        4.066219   -1.185815   -0.819347
    112          1           0        6.566469   -2.154585   -0.833341
    113          1           0        6.487144   -2.018739    0.917469
    114          1           0        5.661032    0.526764    0.362867
    115          1           0        7.329628    0.957905   -1.761139
    116          1           0        5.644594    0.864613   -1.878175
    117          1           0        6.728320   -0.584152   -2.253157
    118          1           0        7.344922   -0.322001    1.737479
    119          1           0        7.865577    1.142789    0.804840
    120          1           0        8.656788   -1.169110   -0.650669
    121          1           0        9.242497   -1.280724    1.002646
    122          1           0        9.861408    1.444145    0.110125
    123          1           0       10.302832    0.271945   -1.099022
    124          1           0       11.455219   -1.121286    0.556534
    125          1           0       10.737451   -0.628862    2.847112
    126          1           0       10.390556    0.966507    2.312945
    127          1           0       12.056495    0.461185    2.731279
    128          1           0       13.057473    1.244919    0.980974
    129          1           0       12.040129    1.498971   -0.403077
    130          1           0       13.150389   -1.088215   -0.939944
    131          1           0       14.500218   -0.265320   -0.200816
    132          1           0       12.904091    1.043437   -2.517756
    133          1           0       13.790705   -0.318807   -2.754341
    134          1           0       14.959653    1.932977   -1.134495
    135          1           0       14.052685    2.544511   -3.790269
    136          1           0       15.754490    2.228251   -4.006264
    137          1           0       15.394427    3.282943   -2.767837
    138          1           0       16.731271    0.332162   -1.215682
    139          1           0       17.128388    0.839512   -2.753122
    140          1           0       16.024822   -0.544061   -2.613115
 ---------------------------------------------------------------------

 SCF Done:  E(RCAM-B3LYP) =  -3007.18702554     A.U. after   18 cycles

 Excitation energies and oscillator strengths:

 Excited State   1:      Singlet-A      1.6937 eV  732.04 nm  f=0.3709  <S**2>=0.000
     245 -> 248       -0.17449
     246 -> 247        0.68778
     245 <- 248       -0.10765
 This state for optimization and/or second-order correction.
 Total Energy, E(TD-HF/TD-DFT) =  -3007.12478384
 Copying the excited state density for this state as the 1-particle RhoCI density.

 Excited State   2:      Singlet-A      2.2826 eV  543.17 nm  f=0.0842  <S**2>=0.000
     245 -> 247        0.62665
     246 -> 248        0.31462

 Excited State   3:      Singlet-A      3.3161 eV  373.89 nm  f=0.0117  <S**2>=0.000
     244 -> 247        0.65199
     246 -> 248       -0.20951

 Excited State   4:      Singlet-A      3.4553 eV  358.82 nm  f=0.0018  <S**2>=0.000
     241 -> 247        0.36312
     241 -> 249       -0.22289
     241 -> 250        0.16237
     242 -> 247        0.46477
     242 -> 249       -0.16386
     242 -> 250        0.13420

 Excited State   5:      Singlet-A      3.5232 eV  351.90 nm  f=0.0985  <S**2>=0.000
     240 -> 247        0.19739
     240 -> 249        0.21018
     240 -> 250        0.14820
     241 -> 247        0.37966
     242 -> 247       -0.33510
     242 -> 249       -0.12332
     245 -> 247        0.10914
     246 -> 248       -0.26847

 The electronic state is 1-A.
 Alpha  occ. eigenvalues --  -46.88654 -19.25498 -19.25093 -19.20192 -19.19885
 Alpha  occ. eigenvalues --  -19.18683 -19.18334 -14.42720 -14.41990 -14.40414
 Alpha  occ. eigenvalues --  -14.39173 -10.40146 -10.39789 -10.35066 -10.34966
 Alpha  occ. eigenvalues --  -10.31933 -10.31719 -10.31535 -10.31521 -10.31191
 Alpha  occ. eigenvalues --  -10.31091 -10.30872 -10.30302 -10.30107 -10.29297
 Alpha  occ. eigenvalues --  -10.29135 -10.28855 -10.28824 -10.28674 -10.28055
 Alpha  occ. eigenvalues --  -10.27876 -10.27770 -10.27763 -10.27608 -10.27536
 Alpha  occ. eigenvalues --  -10.27285 -10.27151 -10.27117 -10.26766 -10.26732
 Alpha  occ. eigenvalues --  -10.26487 -10.26317 -10.26273 -10.26014 -10.25801
 Alpha  occ. eigenvalues --  -10.25561 -10.25452 -10.25397 -10.24971 -10.24876
 Alpha  occ. eigenvalues --  -10.24801 -10.24786 -10.24772 -10.24758 -10.24506
 Alpha  occ. eigenvalues --  -10.24484 -10.24407 -10.24400 -10.24358 -10.24271
 Alpha  occ. eigenvalues --  -10.24103 -10.24080 -10.23925 -10.23832 -10.23785
 Alpha  occ. eigenvalues --  -10.23623  -3.17303  -1.92190  -1.91768  -1.91614
 Alpha  occ. eigenvalues --   -1.16837  -1.15107  -1.09086  -1.09048  -1.07433
 Alpha  occ. eigenvalues --   -1.05953  -1.04981  -1.03548  -1.02931  -1.01925
 Alpha  occ. eigenvalues --   -0.92878  -0.90953  -0.89848  -0.89588  -0.89227
 Alpha  occ. eigenvalues --   -0.88797  -0.88782  -0.87743  -0.87175  -0.86877
 Alpha  occ. eigenvalues --   -0.85772  -0.85580  -0.84705  -0.84022  -0.83639
 Alpha  occ. eigenvalues --   -0.82780  -0.82443  -0.81492  -0.81088  -0.80262
 Alpha  occ. eigenvalues --   -0.79281  -0.77905  -0.77853  -0.77369  -0.76406
 Alpha  occ. eigenvalues --   -0.75754  -0.75374  -0.75321  -0.75077  -0.73931
 Alpha  occ. eigenvalues --   -0.73060  -0.72493  -0.71967  -0.70708  -0.69681
 Alpha  occ. eigenvalues --   -0.68860  -0.68567  -0.67476  -0.66777  -0.66008
 Alpha  occ. eigenvalues --   -0.65334  -0.65008  -0.64729  -0.64280  -0.63312
 Alpha  occ. eigenvalues --   -0.63196  -0.62764  -0.62703  -0.61032  -0.60480
 Alpha  occ. eigenvalues --   -0.59936  -0.59586  -0.59325  -0.58915  -0.58869
 Alpha  occ. eigenvalues --   -0.57037  -0.56817  -0.56472  -0.56070  -0.55740
 Alpha  occ. eigenvalues --   -0.55288  -0.55152  -0.54767  -0.54692  -0.54145
 Alpha  occ. eigenvalues --   -0.53820  -0.53486  -0.53166  -0.52958  -0.52807
 Alpha  occ. eigenvalues --   -0.52483  -0.52212  -0.52117  -0.51876  -0.51487
 Alpha  occ. eigenvalues --   -0.51385  -0.51224  -0.50997  -0.50970  -0.50363
 Alpha  occ. eigenvalues --   -0.50313  -0.50070  -0.49825  -0.49698  -0.49555
 Alpha  occ. eigenvalues --   -0.49407  -0.49240  -0.49160  -0.48848  -0.48687
 Alpha  occ. eigenvalues --   -0.48328  -0.48060  -0.47983  -0.47908  -0.47671
 Alpha  occ. eigenvalues --   -0.47364  -0.46953  -0.46654  -0.46560  -0.46484
 Alpha  occ. eigenvalues --   -0.46346  -0.46234  -0.46169  -0.45830  -0.45685
 Alpha  occ. eigenvalues --   -0.45674  -0.45350  -0.45292  -0.45156  -0.44594
 Alpha  occ. eigenvalues --   -0.44495  -0.44241  -0.44051  -0.43905  -0.43797
 Alpha  occ. eigenvalues --   -0.43666  -0.43361  -0.43172  -0.42996  -0.42944
 Alpha  occ. eigenvalues --   -0.42754  -0.42446  -0.42274  -0.42146  -0.42029
 Alpha  occ. eigenvalues --   -0.41985  -0.41857  -0.41502  -0.41393  -0.41308
 Alpha  occ. eigenvalues --   -0.41159  -0.40705  -0.40539  -0.40293  -0.40114
 Alpha  occ. eigenvalues --   -0.39911  -0.39496  -0.39286  -0.39093  -0.38842
 Alpha  occ. eigenvalues --   -0.37956  -0.37494  -0.37493  -0.37387  -0.37345
 Alpha  occ. eigenvalues --   -0.37218  -0.36926  -0.36818  -0.36609  -0.36329
 Alpha  occ. eigenvalues --   -0.36073  -0.35638  -0.34986  -0.34595  -0.34520
 Alpha  occ. eigenvalues --   -0.33953  -0.33287  -0.33200  -0.31580  -0.30904
 Alpha  occ. eigenvalues --   -0.30573  -0.30482  -0.29639  -0.29279  -0.24605
 Alpha  occ. eigenvalues --   -0.21245
 Alpha virt. eigenvalues --   -0.08842  -0.02005   0.00463   0.02083   0.02410
 Alpha virt. eigenvalues --    0.04311   0.04540   0.05102   0.06797   0.06941
 Alpha virt. eigenvalues --    0.08058   0.08197   0.08869   0.09139   0.09258

 Mulliken charges:
               1
     1  Mg   0.832771
     2  C   -0.037922
     3  C   -0.071452
     4  C   -0.071758
     5  C   -0.064693
     6  N   -0.266555
     7  C   -0.031151
     8  C   -0.025206
     9  C   -0.056922
    10  C    0.005979
    11  C    0.119592
    12  C    0.054002
    13  C    0.053723
    14  C    0.173624
    15  O   -0.279558
    16  O   -0.335884
    17  N   -0.427675
    18  C    0.175633
    19  C   -0.180464
    20  C   -0.010064
    21  C    0.180566
    22  C    0.166797
    23  C   -0.017919
    24  O   -0.226419
    25  C    0.078650
    26  N   -0.316109
    27  C    0.029221
    28  C    0.003971
    29  C   -0.031732
    30  C    0.025608
    31  C    0.064836
    32  C    0.020583
    33  C   -0.020067
    34  N   -0.332699
    35  C    0.118480
    36  C   -0.170407
    37  C    0.070327
    38  C    0.096711
    39  C    0.119407
    40  C   -0.002764
    41  O   -0.183705
    42  C    0.057964
    43  C    0.194666
    44  O   -0.229085
    45  O   -0.333201
    46  C    0.182090
    47  C    0.306234
    48  C   -0.140824
    49  C   -0.175488
    50  C    0.051946
    51  C    0.104126
    52  C    0.071505
    53  C    0.003157
    54  C   -0.127767
    55  C    0.048542
    56  C    0.075344
    57  C    0.018882
    58  C    0.030128
    59  C   -0.169314
    60  C    0.045956
    61  C    0.088563
    62  C    0.054804
    63  C   -0.014206
    64  C   -0.145587
    65  C    0.056820
    66  C    0.050963
    67  H   -0.005426
    68  H   -0.063291
    69  H   -0.037084
    70  H   -0.007940
    71  H    0.016794
    72  H    0.019578
    73  H    0.020443
    74  H    0.012629
    75  H    0.031644
    76  H    0.018351
    77  H    0.046112
    78  H    0.037253
    79  H    0.039104
    80  H   -0.015521
    81  H    0.042626
    82  H    0.023325
    83  H    0.026663
    84  H    0.051852
    85  H    0.009206
    86  H   -0.004561
    87  H    0.019380
    88  H    0.020612
    89  H    0.026229
    90  H    0.009263
    91  H    0.008986
    92  H    0.026346
    93  H    0.011552
    94  H    0.009899
    95  H    0.015490
    96  H    0.032668
    97  H    0.026950
    98  H    0.041335
    99  H    0.023217
   100  H    0.047678
   101  H    0.038384
   102  H    0.029846
   103  H    0.042391
   104  H   -0.006355
   105  H    0.003450
   106  H    0.012509
   107  H    0.027334
   108  H   -0.013610
   109  H   -0.003879
   110  H    0.012863
   111  H   -0.000492
   112  H    0.002038
   113  H   -0.007037
   114  H   -0.009392
   115  H   -0.007555
   116  H    0.013913
   117  H    0.009546
   118  H   -0.005622
   119  H   -0.012550
   120  H   -0.004177
   121  H   -0.004972
   122  H    0.004466
   123  H   -0.012592
   124  H   -0.004751
   125  H    0.004443
   126  H   -0.004110
   127  H    0.006888
   128  H   -0.013570
   129  H   -0.012110
   130  H   -0.007324
   131  H   -0.002973
   132  H   -0.013204
   133  H   -0.023355
   134  H    0.005220
   135  H    0.017151
   136  H   -0.005474
   137  H    0.001089
   138  H    0.004162
   139  H    0.001643
   140  H    0.020831
 Sum of Mulliken charges =  -0.00000

 Dipole moment (field-independent basis, Debye):
    X=              0.8076    Y=              1.9513    Z=              0.4557  Tot=              2.1605
 Quadrupole moment (field-independent basis, Debye-Ang):
   XX=           -417.1719   YY=           -366.1129   ZZ=           -418.2648
   XY=            -32.4683   XZ=            -23.9168   YZ=            -27.2466

 Normal termination of Gaussian 16 at Wed May  4 14:26:36 2022.
