 Gaussian 16, Revision A.03,
 Gaussian 16:  ES64L-G16RevA.03 25-Dec-2016

 ---------------------------------
 #p PBE1PBE/Def2SVP td=(nstates=5)
 ---------------------------------

 ------------------------------------------------------
 step_1851_chromophore_11 TDDFT with PBE1PBE functional
 ------------------------------------------------------
 Symbolic Z-matrix:
 Charge =  0 Multiplicity = 1

                         Standard orientation:
 ---------------------------------------------------------------------
 Center     Atomic      Atomic             Coordinates (Angstroms)
 Number     Number       Type             X           Y           Z
 ---------------------------------------------------------------------
      1         12           0       -4.526303    1.557615    0.365209
      2          6           0       -5.842766   -1.775748   -0.398738
      3          6           0       -2.964165    0.013644    3.148273
      4          6           0       -3.095567    4.359878    0.855124
      5          6           0       -5.968291    2.682628   -2.573706
      6          7           0       -4.364083   -0.596568    1.163300
      7          6           0       -4.975071   -1.743075    0.713144
      8          6           0       -4.588742   -2.900031    1.586985
      9          6           0       -4.127000   -2.274839    2.893280
     10          6           0       -3.763933   -0.854474    2.406967
     11          6           0       -5.138239   -2.325442    4.016197
     12          6           0       -3.622160   -3.913055    0.938665
     13          6           0       -2.310129   -3.352688    0.244722
     14          6           0       -1.008034   -3.703150    1.027346
     15          8           0       -0.702436   -3.363309    2.208921
     16          8           0       -0.182229   -4.512249    0.265963
     17          7           0       -3.232048    2.121874    1.752160
     18          6           0       -2.798203    1.368576    2.862544
     19          6           0       -2.032341    2.321730    3.714851
     20          6           0       -1.939263    3.562049    3.045028
     21          6           0       -2.791708    3.384476    1.839956
     22          6           0       -1.453762    1.962982    5.023354
     23          6           0       -1.198391    4.770734    3.556520
     24          8           0       -0.446106    4.640036    4.534370
     25          6           0       -1.192880    6.085323    2.887618
     26          7           0       -4.421337    3.235220   -0.789684
     27          6           0       -3.876598    4.380069   -0.309225
     28          6           0       -4.244499    5.643250   -1.117662
     29          6           0       -4.874358    4.985133   -2.368691
     30          6           0       -5.177733    3.528869   -1.856012
     31          6           0       -5.214536    6.650205   -0.363777
     32          6           0       -3.975011    5.031720   -3.669420
     33          6           0       -2.722333    4.171776   -3.705095
     34          7           0       -5.789142    0.716323   -1.235218
     35          6           0       -6.354755    1.311815   -2.320859
     36          6           0       -7.303150    0.361869   -2.943104
     37          6           0       -7.147497   -0.810430   -2.210484
     38          6           0       -6.178793   -0.622660   -1.184602
     39          6           0       -8.201556    0.586135   -4.115097
     40          6           0       -7.594436   -2.171002   -2.015532
     41          8           0       -8.510635   -2.696583   -2.651486
     42          6           0       -6.715024   -2.913934   -0.911463
     43          6           0       -5.855593   -3.852676   -1.640086
     44          8           0       -5.140463   -3.674768   -2.631989
     45          8           0       -5.999522   -5.102708   -1.080379
     46          6           0       -5.380008   -6.164887   -1.857939
     47          6           0        1.076884   -4.973055    0.866814
     48          6           0        2.148327   -4.272883    0.118556
     49          6           0        3.445833   -4.139634    0.294820
     50          6           0        4.074599   -4.735498    1.597406
     51          6           0        4.272273   -3.244538   -0.574380
     52          6           0        4.528512   -1.855564   -0.093429
     53          6           0        6.064484   -1.640101   -0.014034
     54          6           0        6.395868   -0.142276   -0.085038
     55          6           0        6.507878    0.260328   -1.599107
     56          6           0        7.606696    0.084543    0.760611
     57          6           0        8.845928   -0.593355    0.254666
     58          6           0       10.045354    0.380879   -0.044864
     59          6           0       11.304253   -0.053608    0.719515
     60          6           0       11.134374    0.173921    2.226095
     61          6           0       12.563772    0.726057    0.159274
     62          6           0       13.529125   -0.102600   -0.669049
     63          6           0       13.739059    0.516523   -2.056189
     64          6           0       15.059913    1.407877   -2.084595
     65          6           0       14.987531    2.393699   -3.249854
     66          6           0       16.281203    0.432004   -2.202163
     67          1           0       -2.544415   -0.381140    4.075798
     68          1           0       -2.755302    5.366779    1.106735
     69          1           0       -6.308931    3.211577   -3.466669
     70          1           0       -5.445577   -3.539113    1.800452
     71          1           0       -3.155413   -2.627860    3.236650
     72          1           0       -4.623203   -2.068294    4.942090
     73          1           0       -5.567994   -3.326736    3.992763
     74          1           0       -5.903844   -1.576132    3.814565
     75          1           0       -4.085771   -4.573901    0.206163
     76          1           0       -3.276754   -4.461055    1.814471
     77          1           0       -2.372998   -2.267030    0.311019
     78          1           0       -2.182317   -3.586068   -0.812528
     79          1           0       -0.380725    1.803643    4.924537
     80          1           0       -1.816176    0.977389    5.315703
     81          1           0       -1.725013    2.730763    5.748345
     82          1           0       -0.627914    6.885831    3.365539
     83          1           0       -2.218586    6.441545    2.984260
     84          1           0       -0.938873    6.011237    1.830054
     85          1           0       -3.431455    6.203144   -1.581181
     86          1           0       -5.801475    5.463892   -2.682309
     87          1           0       -5.815165    6.128962    0.380906
     88          1           0       -5.942279    7.114429   -1.031139
     89          1           0       -4.606892    7.416685    0.117971
     90          1           0       -3.567796    6.014424   -3.912195
     91          1           0       -4.564643    4.717483   -4.530256
     92          1           0       -2.397081    3.735248   -2.760727
     93          1           0       -1.849361    4.625484   -4.174878
     94          1           0       -2.944311    3.307398   -4.330531
     95          1           0       -7.526134    0.976314   -4.876490
     96          1           0       -9.043300    1.250322   -3.922660
     97          1           0       -8.566563   -0.336009   -4.567133
     98          1           0       -7.419747   -3.443126   -0.269747
     99          1           0       -4.295883   -6.133447   -1.749823
    100          1           0       -5.556932   -6.002505   -2.921004
    101          1           0       -5.706794   -7.144795   -1.509667
    102          1           0        1.214889   -6.047499    0.743534
    103          1           0        1.096206   -4.801233    1.942589
    104          1           0        1.776792   -3.613754   -0.665836
    105          1           0        5.052069   -5.143495    1.340505
    106          1           0        3.557017   -5.545873    2.111040
    107          1           0        4.242518   -3.922640    2.302806
    108          1           0        3.737878   -3.145193   -1.519032
    109          1           0        5.156328   -3.777999   -0.921094
    110          1           0        4.147018   -1.617092    0.899249
    111          1           0        4.066219   -1.185815   -0.819347
    112          1           0        6.566469   -2.154585   -0.833341
    113          1           0        6.487144   -2.018739    0.917469
    114          1           0        5.661032    0.526764    0.362867
    115          1           0        7.329628    0.957905   -1.761139
    116          1           0        5.644594    0.864613   -1.878175
    117          1           0        6.728320   -0.584152   -2.253157
    118          1           0        7.344922   -0.322001    1.737479
    119          1           0        7.865577    1.142789    0.804840
    120          1           0        8.656788   -1.169110   -0.650669
    121          1           0        9.242497   -1.280724    1.002646
    122          1           0        9.861408    1.444145    0.110125
    123          1           0       10.302832    0.271945   -1.099022
    124          1           0       11.455219   -1.121286    0.556534
    125          1           0       10.737451   -0.628862    2.847112
    126          1           0       10.390556    0.966507    2.312945
    127          1           0       12.056495    0.461185    2.731279
    128          1           0       13.057473    1.244919    0.980974
    129          1           0       12.040129    1.498971   -0.403077
    130          1           0       13.150389   -1.088215   -0.939944
    131          1           0       14.500218   -0.265320   -0.200816
    132          1           0       12.904091    1.043437   -2.517756
    133          1           0       13.790705   -0.318807   -2.754341
    134          1           0       14.959653    1.932977   -1.134495
    135          1           0       14.052685    2.544511   -3.790269
    136          1           0       15.754490    2.228251   -4.006264
    137          1           0       15.394427    3.282943   -2.767837
    138          1           0       16.731271    0.332162   -1.215682
    139          1           0       17.128388    0.839512   -2.753122
    140          1           0       16.024822   -0.544061   -2.613115
 ---------------------------------------------------------------------

 SCF Done:  E(RPBE1PBE) =  -3005.37532060     A.U. after   15 cycles

 Excitation energies and oscillator strengths:

 Excited State   1:      Singlet-A      1.8458 eV  671.71 nm  f=0.3627  <S**2>=0.000
     245 -> 248       -0.16803
     246 -> 247        0.69513
     246 <- 247       -0.11160
 This state for optimization and/or second-order correction.
 Total Energy, E(TD-HF/TD-DFT) =  -3005.30748883
 Copying the excited state density for this state as the 1-particle RhoCI density.

 Excited State   2:      Singlet-A      2.2815 eV  543.44 nm  f=0.0847  <S**2>=0.000
     245 -> 247        0.63985
     246 -> 248        0.28577

 Excited State   3:      Singlet-A      2.9227 eV  424.21 nm  f=0.0008  <S**2>=0.000
     241 -> 247        0.49869
     241 -> 249        0.13230
     243 -> 247       -0.45864

 Excited State   4:      Singlet-A      2.9888 eV  414.83 nm  f=0.0005  <S**2>=0.000
     241 -> 247        0.35582
     242 -> 247       -0.38479
     243 -> 247        0.43290
     246 -> 248       -0.11139

 Excited State   5:      Singlet-A      2.9964 eV  413.78 nm  f=0.0007  <S**2>=0.000
     241 -> 247        0.29307
     242 -> 247        0.54451
     242 -> 249       -0.14309
     243 -> 247        0.25897

 The electronic state is 1-A.
 Alpha  occ. eigenvalues --  -46.92037 -19.26141 -19.25783 -19.20395 -19.20163
 Alpha  occ. eigenvalues --  -19.19025 -19.18461 -14.42160 -14.41571 -14.39958
 Alpha  occ. eigenvalues --  -14.38922 -10.37185 -10.36787 -10.32245 -10.32105
 Alpha  occ. eigenvalues --  -10.29507 -10.29089 -10.28966 -10.28936 -10.28837
 Alpha  occ. eigenvalues --  -10.28747 -10.28406 -10.28136 -10.28023 -10.26933
 Alpha  occ. eigenvalues --  -10.26912 -10.26787 -10.26611 -10.26111 -10.25945
 Alpha  occ. eigenvalues --  -10.25799 -10.25423 -10.25255 -10.25217 -10.25199
 Alpha  occ. eigenvalues --  -10.24868 -10.24862 -10.24611 -10.24456 -10.24412
 Alpha  occ. eigenvalues --  -10.24254 -10.23742 -10.23640 -10.23507 -10.23478
 Alpha  occ. eigenvalues --  -10.23011 -10.22913 -10.22696 -10.22661 -10.22618
 Alpha  occ. eigenvalues --  -10.22444 -10.22386 -10.22315 -10.22211 -10.22058
 Alpha  occ. eigenvalues --  -10.21978 -10.21901 -10.21881 -10.21792 -10.21758
 Alpha  occ. eigenvalues --  -10.21640 -10.21625 -10.21509 -10.21212 -10.21157
 Alpha  occ. eigenvalues --  -10.21136  -3.14266  -1.87094  -1.86650  -1.86498
 Alpha  occ. eigenvalues --   -1.11582  -1.09890  -1.03918  -1.03667  -1.02220
 Alpha  occ. eigenvalues --   -1.00759  -0.99609  -0.98067  -0.97519  -0.96683
 Alpha  occ. eigenvalues --   -0.87261  -0.85044  -0.84010  -0.83781  -0.83480
 Alpha  occ. eigenvalues --   -0.83070  -0.82881  -0.82088  -0.81269  -0.81054
 Alpha  occ. eigenvalues --   -0.80044  -0.79955  -0.78908  -0.78293  -0.77811
 Alpha  occ. eigenvalues --   -0.76968  -0.76588  -0.75772  -0.75415  -0.74534
 Alpha  occ. eigenvalues --   -0.73461  -0.72176  -0.72071  -0.71667  -0.70706
 Alpha  occ. eigenvalues --   -0.69852  -0.69726  -0.69396  -0.69176  -0.68080
 Alpha  occ. eigenvalues --   -0.67461  -0.66878  -0.66353  -0.65016  -0.64050
 Alpha  occ. eigenvalues --   -0.63173  -0.62990  -0.61841  -0.60962  -0.60182
 Alpha  occ. eigenvalues --   -0.59895  -0.59470  -0.59153  -0.58855  -0.57803
 Alpha  occ. eigenvalues --   -0.57362  -0.57280  -0.56900  -0.55267  -0.54980
 Alpha  occ. eigenvalues --   -0.54319  -0.54061  -0.53885  -0.53428  -0.53340
 Alpha  occ. eigenvalues --   -0.51704  -0.51224  -0.50951  -0.50547  -0.50270
 Alpha  occ. eigenvalues --   -0.49835  -0.49616  -0.49277  -0.49168  -0.48585
 Alpha  occ. eigenvalues --   -0.48286  -0.47910  -0.47884  -0.47435  -0.47237
 Alpha  occ. eigenvalues --   -0.46969  -0.46895  -0.46572  -0.46401  -0.46075
 Alpha  occ. eigenvalues --   -0.45900  -0.45770  -0.45548  -0.45501  -0.44886
 Alpha  occ. eigenvalues --   -0.44779  -0.44612  -0.44393  -0.44272  -0.44100
 Alpha  occ. eigenvalues --   -0.43992  -0.43812  -0.43750  -0.43493  -0.43257
 Alpha  occ. eigenvalues --   -0.42918  -0.42658  -0.42611  -0.42513  -0.42309
 Alpha  occ. eigenvalues --   -0.41989  -0.41635  -0.41312  -0.41249  -0.41181
 Alpha  occ. eigenvalues --   -0.40964  -0.40928  -0.40716  -0.40530  -0.40428
 Alpha  occ. eigenvalues --   -0.40306  -0.40072  -0.39939  -0.39798  -0.39354
 Alpha  occ. eigenvalues --   -0.39272  -0.39011  -0.38777  -0.38589  -0.38520
 Alpha  occ. eigenvalues --   -0.38463  -0.38157  -0.37929  -0.37720  -0.37652
 Alpha  occ. eigenvalues --   -0.37570  -0.37254  -0.37101  -0.36954  -0.36825
 Alpha  occ. eigenvalues --   -0.36729  -0.36647  -0.36334  -0.36222  -0.36073
 Alpha  occ. eigenvalues --   -0.35982  -0.35623  -0.35252  -0.35197  -0.35004
 Alpha  occ. eigenvalues --   -0.34672  -0.34232  -0.34173  -0.33967  -0.33662
 Alpha  occ. eigenvalues --   -0.32770  -0.32531  -0.32356  -0.32293  -0.32195
 Alpha  occ. eigenvalues --   -0.31950  -0.31804  -0.31702  -0.31647  -0.31189
 Alpha  occ. eigenvalues --   -0.30952  -0.30417  -0.29765  -0.29670  -0.29504
 Alpha  occ. eigenvalues --   -0.28960  -0.28726  -0.28182  -0.27210  -0.26033
 Alpha  occ. eigenvalues --   -0.25524  -0.25411  -0.25036  -0.24868  -0.21475
 Alpha  occ. eigenvalues --   -0.18896
 Alpha virt. eigenvalues --   -0.11341  -0.05481  -0.03789  -0.02335  -0.00517
 Alpha virt. eigenvalues --   -0.00223  -0.00030   0.00898   0.02513   0.03094
 Alpha virt. eigenvalues --    0.03821   0.04610   0.05019   0.05693   0.05969

 Mulliken charges:
               1
     1  Mg   0.982460
     2  C   -0.057254
     3  C   -0.057486
     4  C   -0.069795
     5  C   -0.059970
     6  N   -0.366077
     7  C    0.051663
     8  C   -0.096216
     9  C   -0.136307
    10  C    0.040821
    11  C    0.060800
    12  C   -0.006316
    13  C   -0.019961
    14  C    0.237037
    15  O   -0.310794
    16  O   -0.365988
    17  N   -0.549986
    18  C    0.193533
    19  C   -0.209111
    20  C   -0.053235
    21  C    0.208134
    22  C    0.105128
    23  C    0.029357
    24  O   -0.260506
    25  C    0.002430
    26  N   -0.419369
    27  C    0.059125
    28  C   -0.076137
    29  C   -0.098929
    30  C    0.061631
    31  C    0.009787
    32  C   -0.041872
    33  C   -0.091069
    34  N   -0.450615
    35  C    0.148789
    36  C   -0.195553
    37  C    0.015212
    38  C    0.157365
    39  C    0.069223
    40  C    0.096531
    41  O   -0.227026
    42  C   -0.063117
    43  C    0.291628
    44  O   -0.263202
    45  O   -0.364685
    46  C    0.124758
    47  C    0.264957
    48  C   -0.145655
    49  C   -0.225115
    50  C   -0.005334
    51  C    0.036973
    52  C    0.014002
    53  C   -0.055642
    54  C   -0.211920
    55  C   -0.008626
    56  C    0.012179
    57  C   -0.039121
    58  C   -0.027865
    59  C   -0.255668
    60  C   -0.010322
    61  C    0.037613
    62  C   -0.013234
    63  C   -0.064712
    64  C   -0.241798
    65  C   -0.002095
    66  C   -0.008203
    67  H    0.023080
    68  H   -0.025907
    69  H   -0.003693
    70  H    0.030964
    71  H    0.054445
    72  H    0.047655
    73  H    0.048165
    74  H    0.041218
    75  H    0.072296
    76  H    0.053070
    77  H    0.083424
    78  H    0.067521
    79  H    0.066626
    80  H    0.012883
    81  H    0.069141
    82  H    0.051166
    83  H    0.054021
    84  H    0.076960
    85  H    0.045899
    86  H    0.032285
    87  H    0.046978
    88  H    0.047099
    89  H    0.053091
    90  H    0.042217
    91  H    0.040974
    92  H    0.057125
    93  H    0.039629
    94  H    0.038004
    95  H    0.043949
    96  H    0.060591
    97  H    0.055018
    98  H    0.074762
    99  H    0.045084
   100  H    0.069525
   101  H    0.060690
   102  H    0.056716
   103  H    0.067313
   104  H    0.024095
   105  H    0.031316
   106  H    0.038425
   107  H    0.054739
   108  H    0.019108
   109  H    0.028198
   110  H    0.045407
   111  H    0.032483
   112  H    0.032850
   113  H    0.026417
   114  H    0.028305
   115  H    0.022120
   116  H    0.041354
   117  H    0.035285
   118  H    0.029000
   119  H    0.020843
   120  H    0.028141
   121  H    0.028115
   122  H    0.034271
   123  H    0.023489
   124  H    0.033227
   125  H    0.031169
   126  H    0.024852
   127  H    0.034205
   128  H    0.018056
   129  H    0.021193
   130  H    0.025102
   131  H    0.030310
   132  H    0.017779
   133  H    0.009659
   134  H    0.043649
   135  H    0.042755
   136  H    0.022197
   137  H    0.029228
   138  H    0.031309
   139  H    0.029365
   140  H    0.046755
 Sum of Mulliken charges =  -0.00000

 Dipole moment (field-independent basis, Debye):
    X=              0.6198    Y=              1.9835    Z=              0.1512  Tot=              2.0835
 Quadrupole moment (field-independent basis, Debye-Ang):
   XX=           -412.3615   YY=           -362.7209   ZZ=           -414.4738
   XY=            -32.9132   XZ=            -22.2370   YZ=            -28.9598

 Normal termination of Gaussian 16 at Wed May  4 14:44:19 2022.
