 Gaussian 16, Revision A.03,
 Gaussian 16:  ES64L-G16RevA.03 25-Dec-2016

 --------------------------------
 #p wB97XD/Def2SVP td=(nstates=5)
 --------------------------------

 -----------------------------------------------------
 step_1851_chromophore_11 TDDFT with wB97XD functional
 -----------------------------------------------------
 Symbolic Z-matrix:
 Charge =  0 Multiplicity = 1

                         Standard orientation:
 ---------------------------------------------------------------------
 Center     Atomic      Atomic             Coordinates (Angstroms)
 Number     Number       Type             X           Y           Z
 ---------------------------------------------------------------------
      1         12           0       -4.526303    1.557615    0.365209
      2          6           0       -5.842766   -1.775748   -0.398738
      3          6           0       -2.964165    0.013644    3.148273
      4          6           0       -3.095567    4.359878    0.855124
      5          6           0       -5.968291    2.682628   -2.573706
      6          7           0       -4.364083   -0.596568    1.163300
      7          6           0       -4.975071   -1.743075    0.713144
      8          6           0       -4.588742   -2.900031    1.586985
      9          6           0       -4.127000   -2.274839    2.893280
     10          6           0       -3.763933   -0.854474    2.406967
     11          6           0       -5.138239   -2.325442    4.016197
     12          6           0       -3.622160   -3.913055    0.938665
     13          6           0       -2.310129   -3.352688    0.244722
     14          6           0       -1.008034   -3.703150    1.027346
     15          8           0       -0.702436   -3.363309    2.208921
     16          8           0       -0.182229   -4.512249    0.265963
     17          7           0       -3.232048    2.121874    1.752160
     18          6           0       -2.798203    1.368576    2.862544
     19          6           0       -2.032341    2.321730    3.714851
     20          6           0       -1.939263    3.562049    3.045028
     21          6           0       -2.791708    3.384476    1.839956
     22          6           0       -1.453762    1.962982    5.023354
     23          6           0       -1.198391    4.770734    3.556520
     24          8           0       -0.446106    4.640036    4.534370
     25          6           0       -1.192880    6.085323    2.887618
     26          7           0       -4.421337    3.235220   -0.789684
     27          6           0       -3.876598    4.380069   -0.309225
     28          6           0       -4.244499    5.643250   -1.117662
     29          6           0       -4.874358    4.985133   -2.368691
     30          6           0       -5.177733    3.528869   -1.856012
     31          6           0       -5.214536    6.650205   -0.363777
     32          6           0       -3.975011    5.031720   -3.669420
     33          6           0       -2.722333    4.171776   -3.705095
     34          7           0       -5.789142    0.716323   -1.235218
     35          6           0       -6.354755    1.311815   -2.320859
     36          6           0       -7.303150    0.361869   -2.943104
     37          6           0       -7.147497   -0.810430   -2.210484
     38          6           0       -6.178793   -0.622660   -1.184602
     39          6           0       -8.201556    0.586135   -4.115097
     40          6           0       -7.594436   -2.171002   -2.015532
     41          8           0       -8.510635   -2.696583   -2.651486
     42          6           0       -6.715024   -2.913934   -0.911463
     43          6           0       -5.855593   -3.852676   -1.640086
     44          8           0       -5.140463   -3.674768   -2.631989
     45          8           0       -5.999522   -5.102708   -1.080379
     46          6           0       -5.380008   -6.164887   -1.857939
     47          6           0        1.076884   -4.973055    0.866814
     48          6           0        2.148327   -4.272883    0.118556
     49          6           0        3.445833   -4.139634    0.294820
     50          6           0        4.074599   -4.735498    1.597406
     51          6           0        4.272273   -3.244538   -0.574380
     52          6           0        4.528512   -1.855564   -0.093429
     53          6           0        6.064484   -1.640101   -0.014034
     54          6           0        6.395868   -0.142276   -0.085038
     55          6           0        6.507878    0.260328   -1.599107
     56          6           0        7.606696    0.084543    0.760611
     57          6           0        8.845928   -0.593355    0.254666
     58          6           0       10.045354    0.380879   -0.044864
     59          6           0       11.304253   -0.053608    0.719515
     60          6           0       11.134374    0.173921    2.226095
     61          6           0       12.563772    0.726057    0.159274
     62          6           0       13.529125   -0.102600   -0.669049
     63          6           0       13.739059    0.516523   -2.056189
     64          6           0       15.059913    1.407877   -2.084595
     65          6           0       14.987531    2.393699   -3.249854
     66          6           0       16.281203    0.432004   -2.202163
     67          1           0       -2.544415   -0.381140    4.075798
     68          1           0       -2.755302    5.366779    1.106735
     69          1           0       -6.308931    3.211577   -3.466669
     70          1           0       -5.445577   -3.539113    1.800452
     71          1           0       -3.155413   -2.627860    3.236650
     72          1           0       -4.623203   -2.068294    4.942090
     73          1           0       -5.567994   -3.326736    3.992763
     74          1           0       -5.903844   -1.576132    3.814565
     75          1           0       -4.085771   -4.573901    0.206163
     76          1           0       -3.276754   -4.461055    1.814471
     77          1           0       -2.372998   -2.267030    0.311019
     78          1           0       -2.182317   -3.586068   -0.812528
     79          1           0       -0.380725    1.803643    4.924537
     80          1           0       -1.816176    0.977389    5.315703
     81          1           0       -1.725013    2.730763    5.748345
     82          1           0       -0.627914    6.885831    3.365539
     83          1           0       -2.218586    6.441545    2.984260
     84          1           0       -0.938873    6.011237    1.830054
     85          1           0       -3.431455    6.203144   -1.581181
     86          1           0       -5.801475    5.463892   -2.682309
     87          1           0       -5.815165    6.128962    0.380906
     88          1           0       -5.942279    7.114429   -1.031139
     89          1           0       -4.606892    7.416685    0.117971
     90          1           0       -3.567796    6.014424   -3.912195
     91          1           0       -4.564643    4.717483   -4.530256
     92          1           0       -2.397081    3.735248   -2.760727
     93          1           0       -1.849361    4.625484   -4.174878
     94          1           0       -2.944311    3.307398   -4.330531
     95          1           0       -7.526134    0.976314   -4.876490
     96          1           0       -9.043300    1.250322   -3.922660
     97          1           0       -8.566563   -0.336009   -4.567133
     98          1           0       -7.419747   -3.443126   -0.269747
     99          1           0       -4.295883   -6.133447   -1.749823
    100          1           0       -5.556932   -6.002505   -2.921004
    101          1           0       -5.706794   -7.144795   -1.509667
    102          1           0        1.214889   -6.047499    0.743534
    103          1           0        1.096206   -4.801233    1.942589
    104          1           0        1.776792   -3.613754   -0.665836
    105          1           0        5.052069   -5.143495    1.340505
    106          1           0        3.557017   -5.545873    2.111040
    107          1           0        4.242518   -3.922640    2.302806
    108          1           0        3.737878   -3.145193   -1.519032
    109          1           0        5.156328   -3.777999   -0.921094
    110          1           0        4.147018   -1.617092    0.899249
    111          1           0        4.066219   -1.185815   -0.819347
    112          1           0        6.566469   -2.154585   -0.833341
    113          1           0        6.487144   -2.018739    0.917469
    114          1           0        5.661032    0.526764    0.362867
    115          1           0        7.329628    0.957905   -1.761139
    116          1           0        5.644594    0.864613   -1.878175
    117          1           0        6.728320   -0.584152   -2.253157
    118          1           0        7.344922   -0.322001    1.737479
    119          1           0        7.865577    1.142789    0.804840
    120          1           0        8.656788   -1.169110   -0.650669
    121          1           0        9.242497   -1.280724    1.002646
    122          1           0        9.861408    1.444145    0.110125
    123          1           0       10.302832    0.271945   -1.099022
    124          1           0       11.455219   -1.121286    0.556534
    125          1           0       10.737451   -0.628862    2.847112
    126          1           0       10.390556    0.966507    2.312945
    127          1           0       12.056495    0.461185    2.731279
    128          1           0       13.057473    1.244919    0.980974
    129          1           0       12.040129    1.498971   -0.403077
    130          1           0       13.150389   -1.088215   -0.939944
    131          1           0       14.500218   -0.265320   -0.200816
    132          1           0       12.904091    1.043437   -2.517756
    133          1           0       13.790705   -0.318807   -2.754341
    134          1           0       14.959653    1.932977   -1.134495
    135          1           0       14.052685    2.544511   -3.790269
    136          1           0       15.754490    2.228251   -4.006264
    137          1           0       15.394427    3.282943   -2.767837
    138          1           0       16.731271    0.332162   -1.215682
    139          1           0       17.128388    0.839512   -2.753122
    140          1           0       16.024822   -0.544061   -2.613115
 ---------------------------------------------------------------------

 SCF Done:  E(RwB97XD) =  -3007.88663040     A.U. after   18 cycles

 Excitation energies and oscillator strengths:

 Excited State   1:      Singlet-A      1.6391 eV  756.43 nm  f=0.3697  <S**2>=0.000
     245 -> 248       -0.17930
     246 -> 247        0.68555
     245 <- 248       -0.11637
 This state for optimization and/or second-order correction.
 Total Energy, E(TD-HF/TD-DFT) =  -3007.82639568
 Copying the excited state density for this state as the 1-particle RhoCI density.

 Excited State   2:      Singlet-A      2.2296 eV  556.08 nm  f=0.0822  <S**2>=0.000
     245 -> 247        0.62500
     246 -> 248        0.31588

 Excited State   3:      Singlet-A      3.3479 eV  370.34 nm  f=0.0215  <S**2>=0.000
     244 -> 247        0.63470
     246 -> 248       -0.23665

 Excited State   4:      Singlet-A      3.4887 eV  355.38 nm  f=0.0023  <S**2>=0.000
     242 -> 247        0.57376
     242 -> 249       -0.27868
     242 -> 250        0.22956

 Excited State   5:      Singlet-A      3.5353 eV  350.70 nm  f=0.0811  <S**2>=0.000
     240 -> 249        0.17303
     240 -> 250        0.13973
     241 -> 247        0.51650
     241 -> 249        0.23538
     241 -> 250        0.14690
     246 -> 248       -0.23687

 The electronic state is 1-A.
 Alpha  occ. eigenvalues --  -46.94992 -19.30715 -19.30338 -19.25116 -19.24837
 Alpha  occ. eigenvalues --  -19.23711 -19.23392 -14.47361 -14.46555 -14.45048
 Alpha  occ. eigenvalues --  -14.43748 -10.43975 -10.43621 -10.39055 -10.38972
 Alpha  occ. eigenvalues --  -10.36007 -10.35631 -10.35589 -10.35274 -10.35258
 Alpha  occ. eigenvalues --  -10.35083 -10.34989 -10.34268 -10.34082 -10.33326
 Alpha  occ. eigenvalues --  -10.33289 -10.32875 -10.32863 -10.32828 -10.32102
 Alpha  occ. eigenvalues --  -10.31940 -10.31848 -10.31675 -10.31655 -10.31529
 Alpha  occ. eigenvalues --  -10.31428 -10.31171 -10.31024 -10.30814 -10.30656
 Alpha  occ. eigenvalues --  -10.30468 -10.30189 -10.30152 -10.29993 -10.29754
 Alpha  occ. eigenvalues --  -10.29379 -10.29346 -10.29275 -10.28946 -10.28784
 Alpha  occ. eigenvalues --  -10.28758 -10.28731 -10.28713 -10.28576 -10.28428
 Alpha  occ. eigenvalues --  -10.28346 -10.28333 -10.28264 -10.28231 -10.28166
 Alpha  occ. eigenvalues --  -10.28023 -10.28011 -10.27849 -10.27635 -10.27611
 Alpha  occ. eigenvalues --  -10.27524  -3.21075  -1.94654  -1.94212  -1.94052
 Alpha  occ. eigenvalues --   -1.18990  -1.17286  -1.11292  -1.11283  -1.09610
 Alpha  occ. eigenvalues --   -1.08134  -1.06973  -1.05579  -1.04965  -1.03929
 Alpha  occ. eigenvalues --   -0.94840  -0.92718  -0.91659  -0.91428  -0.91159
 Alpha  occ. eigenvalues --   -0.90672  -0.90552  -0.89668  -0.88944  -0.88875
 Alpha  occ. eigenvalues --   -0.87652  -0.87486  -0.86582  -0.85902  -0.85501
 Alpha  occ. eigenvalues --   -0.84685  -0.84268  -0.83407  -0.83033  -0.82159
 Alpha  occ. eigenvalues --   -0.81118  -0.79878  -0.79753  -0.79271  -0.78310
 Alpha  occ. eigenvalues --   -0.77556  -0.77341  -0.77100  -0.76881  -0.75754
 Alpha  occ. eigenvalues --   -0.74992  -0.74434  -0.73926  -0.72641  -0.71578
 Alpha  occ. eigenvalues --   -0.70724  -0.70543  -0.69505  -0.68625  -0.67844
 Alpha  occ. eigenvalues --   -0.67340  -0.66942  -0.66703  -0.66275  -0.65270
 Alpha  occ. eigenvalues --   -0.65020  -0.64684  -0.64573  -0.62886  -0.62455
 Alpha  occ. eigenvalues --   -0.61851  -0.61537  -0.61321  -0.60871  -0.60834
 Alpha  occ. eigenvalues --   -0.59049  -0.58751  -0.58417  -0.57977  -0.57699
 Alpha  occ. eigenvalues --   -0.57217  -0.57058  -0.56686  -0.56601  -0.56021
 Alpha  occ. eigenvalues --   -0.55722  -0.55348  -0.55137  -0.54904  -0.54671
 Alpha  occ. eigenvalues --   -0.54385  -0.54128  -0.54023  -0.53796  -0.53383
 Alpha  occ. eigenvalues --   -0.53276  -0.53122  -0.52909  -0.52859  -0.52320
 Alpha  occ. eigenvalues --   -0.52204  -0.51991  -0.51711  -0.51563  -0.51517
 Alpha  occ. eigenvalues --   -0.51277  -0.51127  -0.51043  -0.50807  -0.50577
 Alpha  occ. eigenvalues --   -0.50214  -0.49952  -0.49878  -0.49820  -0.49605
 Alpha  occ. eigenvalues --   -0.49334  -0.48893  -0.48571  -0.48461  -0.48400
 Alpha  occ. eigenvalues --   -0.48189  -0.48151  -0.47990  -0.47746  -0.47582
 Alpha  occ. eigenvalues --   -0.47531  -0.47256  -0.47164  -0.47033  -0.46465
 Alpha  occ. eigenvalues --   -0.46434  -0.46123  -0.45909  -0.45778  -0.45675
 Alpha  occ. eigenvalues --   -0.45607  -0.45293  -0.45071  -0.44902  -0.44836
 Alpha  occ. eigenvalues --   -0.44689  -0.44373  -0.44221  -0.44054  -0.43956
 Alpha  occ. eigenvalues --   -0.43829  -0.43742  -0.43517  -0.43317  -0.43193
 Alpha  occ. eigenvalues --   -0.43092  -0.42628  -0.42376  -0.42164  -0.41988
 Alpha  occ. eigenvalues --   -0.41761  -0.41326  -0.41205  -0.40978  -0.40684
 Alpha  occ. eigenvalues --   -0.39799  -0.39503  -0.39340  -0.39333  -0.39242
 Alpha  occ. eigenvalues --   -0.39044  -0.38878  -0.38723  -0.38581  -0.38237
 Alpha  occ. eigenvalues --   -0.37975  -0.37469  -0.36889  -0.36499  -0.36441
 Alpha  occ. eigenvalues --   -0.35848  -0.35540  -0.35035  -0.33797  -0.32925
 Alpha  occ. eigenvalues --   -0.32674  -0.32474  -0.31642  -0.31409  -0.26530
 Alpha  occ. eigenvalues --   -0.23051
 Alpha virt. eigenvalues --   -0.07181  -0.00098   0.02508   0.04212   0.05442
 Alpha virt. eigenvalues --    0.06513   0.06704   0.07601   0.09210   0.09511
 Alpha virt. eigenvalues --    0.10469   0.11366   0.11813   0.12450   0.12660

 Mulliken charges:
               1
     1  Mg   0.971320
     2  C   -0.053737
     3  C   -0.075797
     4  C   -0.083010
     5  C   -0.072970
     6  N   -0.331933
     7  C    0.009653
     8  C   -0.066672
     9  C   -0.107608
    10  C    0.025773
    11  C    0.068942
    12  C    0.013497
    13  C   -0.002221
    14  C    0.226780
    15  O   -0.308156
    16  O   -0.365525
    17  N   -0.517152
    18  C    0.188872
    19  C   -0.195846
    20  C   -0.051649
    21  C    0.207538
    22  C    0.116295
    23  C    0.026787
    24  O   -0.255264
    25  C    0.014728
    26  N   -0.389341
    27  C    0.049165
    28  C   -0.052296
    29  C   -0.073396
    30  C    0.046798
    31  C    0.018803
    32  C   -0.028201
    33  C   -0.074321
    34  N   -0.414192
    35  C    0.131595
    36  C   -0.189058
    37  C    0.024542
    38  C    0.132684
    39  C    0.077687
    40  C    0.074637
    41  O   -0.218794
    42  C   -0.020430
    43  C    0.264596
    44  O   -0.257268
    45  O   -0.363119
    46  C    0.140703
    47  C    0.277932
    48  C   -0.156209
    49  C   -0.209060
    50  C    0.006309
    51  C    0.057770
    52  C    0.023026
    53  C   -0.034873
    54  C   -0.181370
    55  C   -0.001695
    56  C    0.032754
    57  C   -0.024834
    58  C   -0.009037
    59  C   -0.222698
    60  C   -0.000396
    61  C    0.051712
    62  C    0.003459
    63  C   -0.048648
    64  C   -0.209353
    65  C    0.007875
    66  C    0.001742
    67  H    0.019906
    68  H   -0.040026
    69  H   -0.009862
    70  H    0.019715
    71  H    0.042006
    72  H    0.042576
    73  H    0.042781
    74  H    0.035220
    75  H    0.055188
    76  H    0.043496
    77  H    0.069457
    78  H    0.065575
    79  H    0.064074
    80  H    0.007303
    81  H    0.065982
    82  H    0.051074
    83  H    0.047737
    84  H    0.072509
    85  H    0.037030
    86  H    0.022871
    87  H    0.040964
    88  H    0.042368
    89  H    0.047751
    90  H    0.033943
    91  H    0.033684
    92  H    0.045956
    93  H    0.034871
    94  H    0.031844
    95  H    0.036851
    96  H    0.055424
    97  H    0.051115
    98  H    0.072459
    99  H    0.040145
   100  H    0.065121
   101  H    0.058000
   102  H    0.052745
   103  H    0.063198
   104  H    0.018781
   105  H    0.025216
   106  H    0.034120
   107  H    0.048594
   108  H    0.012272
   109  H    0.020062
   110  H    0.037418
   111  H    0.025065
   112  H    0.019411
   113  H    0.015543
   114  H    0.018756
   115  H    0.014832
   116  H    0.036521
   117  H    0.029488
   118  H    0.019122
   119  H    0.010607
   120  H    0.018229
   121  H    0.017278
   122  H    0.023956
   123  H    0.011681
   124  H    0.019745
   125  H    0.026144
   126  H    0.015993
   127  H    0.028420
   128  H    0.010677
   129  H    0.008360
   130  H    0.017022
   131  H    0.021910
   132  H    0.007804
   133  H    0.000055
   134  H    0.031098
   135  H    0.038370
   136  H    0.015657
   137  H    0.023105
   138  H    0.025234
   139  H    0.023713
   140  H    0.040844
 Sum of Mulliken charges =  -0.00000

 Dipole moment (field-independent basis, Debye):
    X=              0.8624    Y=              2.0472    Z=              0.5676  Tot=              2.2928
 Quadrupole moment (field-independent basis, Debye-Ang):
   XX=           -414.0851   YY=           -361.5590   ZZ=           -414.0471
   XY=            -32.5545   XZ=            -24.0169   YZ=            -27.7317

 Normal termination of Gaussian 16 at Wed May  4 15:15:48 2022.
