 Gaussian 16, Revision A.03,
 Gaussian 16:  ES64L-G16RevA.03 25-Dec-2016

 --------------------
 #p ZINDO=(nstates=5)
 --------------------

 ------------------------------
 step_1851_chromophore_11 ZINDO
 ------------------------------
 Symbolic Z-matrix:
 Charge =  0 Multiplicity = 1

                         Standard orientation:
 ---------------------------------------------------------------------
 Center     Atomic      Atomic             Coordinates (Angstroms)
 Number     Number       Type             X           Y           Z
 ---------------------------------------------------------------------
      1         12           0       -4.526303    1.557615    0.365209
      2          6           0       -5.842766   -1.775748   -0.398738
      3          6           0       -2.964165    0.013644    3.148273
      4          6           0       -3.095567    4.359878    0.855124
      5          6           0       -5.968291    2.682628   -2.573706
      6          7           0       -4.364083   -0.596568    1.163300
      7          6           0       -4.975071   -1.743075    0.713144
      8          6           0       -4.588742   -2.900031    1.586985
      9          6           0       -4.127000   -2.274839    2.893280
     10          6           0       -3.763933   -0.854474    2.406967
     11          6           0       -5.138239   -2.325442    4.016197
     12          6           0       -3.622160   -3.913055    0.938665
     13          6           0       -2.310129   -3.352688    0.244722
     14          6           0       -1.008034   -3.703150    1.027346
     15          8           0       -0.702436   -3.363309    2.208921
     16          8           0       -0.182229   -4.512249    0.265963
     17          7           0       -3.232048    2.121874    1.752160
     18          6           0       -2.798203    1.368576    2.862544
     19          6           0       -2.032341    2.321730    3.714851
     20          6           0       -1.939263    3.562049    3.045028
     21          6           0       -2.791708    3.384476    1.839956
     22          6           0       -1.453762    1.962982    5.023354
     23          6           0       -1.198391    4.770734    3.556520
     24          8           0       -0.446106    4.640036    4.534370
     25          6           0       -1.192880    6.085323    2.887618
     26          7           0       -4.421337    3.235220   -0.789684
     27          6           0       -3.876598    4.380069   -0.309225
     28          6           0       -4.244499    5.643250   -1.117662
     29          6           0       -4.874358    4.985133   -2.368691
     30          6           0       -5.177733    3.528869   -1.856012
     31          6           0       -5.214536    6.650205   -0.363777
     32          6           0       -3.975011    5.031720   -3.669420
     33          6           0       -2.722333    4.171776   -3.705095
     34          7           0       -5.789142    0.716323   -1.235218
     35          6           0       -6.354755    1.311815   -2.320859
     36          6           0       -7.303150    0.361869   -2.943104
     37          6           0       -7.147497   -0.810430   -2.210484
     38          6           0       -6.178793   -0.622660   -1.184602
     39          6           0       -8.201556    0.586135   -4.115097
     40          6           0       -7.594436   -2.171002   -2.015532
     41          8           0       -8.510635   -2.696583   -2.651486
     42          6           0       -6.715024   -2.913934   -0.911463
     43          6           0       -5.855593   -3.852676   -1.640086
     44          8           0       -5.140463   -3.674768   -2.631989
     45          8           0       -5.999522   -5.102708   -1.080379
     46          6           0       -5.380008   -6.164887   -1.857939
     47          6           0        1.076884   -4.973055    0.866814
     48          6           0        2.148327   -4.272883    0.118556
     49          6           0        3.445833   -4.139634    0.294820
     50          6           0        4.074599   -4.735498    1.597406
     51          6           0        4.272273   -3.244538   -0.574380
     52          6           0        4.528512   -1.855564   -0.093429
     53          6           0        6.064484   -1.640101   -0.014034
     54          6           0        6.395868   -0.142276   -0.085038
     55          6           0        6.507878    0.260328   -1.599107
     56          6           0        7.606696    0.084543    0.760611
     57          6           0        8.845928   -0.593355    0.254666
     58          6           0       10.045354    0.380879   -0.044864
     59          6           0       11.304253   -0.053608    0.719515
     60          6           0       11.134374    0.173921    2.226095
     61          6           0       12.563772    0.726057    0.159274
     62          6           0       13.529125   -0.102600   -0.669049
     63          6           0       13.739059    0.516523   -2.056189
     64          6           0       15.059913    1.407877   -2.084595
     65          6           0       14.987531    2.393699   -3.249854
     66          6           0       16.281203    0.432004   -2.202163
     67          1           0       -2.544415   -0.381140    4.075798
     68          1           0       -2.755302    5.366779    1.106735
     69          1           0       -6.308931    3.211577   -3.466669
     70          1           0       -5.445577   -3.539113    1.800452
     71          1           0       -3.155413   -2.627860    3.236650
     72          1           0       -4.623203   -2.068294    4.942090
     73          1           0       -5.567994   -3.326736    3.992763
     74          1           0       -5.903844   -1.576132    3.814565
     75          1           0       -4.085771   -4.573901    0.206163
     76          1           0       -3.276754   -4.461055    1.814471
     77          1           0       -2.372998   -2.267030    0.311019
     78          1           0       -2.182317   -3.586068   -0.812528
     79          1           0       -0.380725    1.803643    4.924537
     80          1           0       -1.816176    0.977389    5.315703
     81          1           0       -1.725013    2.730763    5.748345
     82          1           0       -0.627914    6.885831    3.365539
     83          1           0       -2.218586    6.441545    2.984260
     84          1           0       -0.938873    6.011237    1.830054
     85          1           0       -3.431455    6.203144   -1.581181
     86          1           0       -5.801475    5.463892   -2.682309
     87          1           0       -5.815165    6.128962    0.380906
     88          1           0       -5.942279    7.114429   -1.031139
     89          1           0       -4.606892    7.416685    0.117971
     90          1           0       -3.567796    6.014424   -3.912195
     91          1           0       -4.564643    4.717483   -4.530256
     92          1           0       -2.397081    3.735248   -2.760727
     93          1           0       -1.849361    4.625484   -4.174878
     94          1           0       -2.944311    3.307398   -4.330531
     95          1           0       -7.526134    0.976314   -4.876490
     96          1           0       -9.043300    1.250322   -3.922660
     97          1           0       -8.566563   -0.336009   -4.567133
     98          1           0       -7.419747   -3.443126   -0.269747
     99          1           0       -4.295883   -6.133447   -1.749823
    100          1           0       -5.556932   -6.002505   -2.921004
    101          1           0       -5.706794   -7.144795   -1.509667
    102          1           0        1.214889   -6.047499    0.743534
    103          1           0        1.096206   -4.801233    1.942589
    104          1           0        1.776792   -3.613754   -0.665836
    105          1           0        5.052069   -5.143495    1.340505
    106          1           0        3.557017   -5.545873    2.111040
    107          1           0        4.242518   -3.922640    2.302806
    108          1           0        3.737878   -3.145193   -1.519032
    109          1           0        5.156328   -3.777999   -0.921094
    110          1           0        4.147018   -1.617092    0.899249
    111          1           0        4.066219   -1.185815   -0.819347
    112          1           0        6.566469   -2.154585   -0.833341
    113          1           0        6.487144   -2.018739    0.917469
    114          1           0        5.661032    0.526764    0.362867
    115          1           0        7.329628    0.957905   -1.761139
    116          1           0        5.644594    0.864613   -1.878175
    117          1           0        6.728320   -0.584152   -2.253157
    118          1           0        7.344922   -0.322001    1.737479
    119          1           0        7.865577    1.142789    0.804840
    120          1           0        8.656788   -1.169110   -0.650669
    121          1           0        9.242497   -1.280724    1.002646
    122          1           0        9.861408    1.444145    0.110125
    123          1           0       10.302832    0.271945   -1.099022
    124          1           0       11.455219   -1.121286    0.556534
    125          1           0       10.737451   -0.628862    2.847112
    126          1           0       10.390556    0.966507    2.312945
    127          1           0       12.056495    0.461185    2.731279
    128          1           0       13.057473    1.244919    0.980974
    129          1           0       12.040129    1.498971   -0.403077
    130          1           0       13.150389   -1.088215   -0.939944
    131          1           0       14.500218   -0.265320   -0.200816
    132          1           0       12.904091    1.043437   -2.517756
    133          1           0       13.790705   -0.318807   -2.754341
    134          1           0       14.959653    1.932977   -1.134495
    135          1           0       14.052685    2.544511   -3.790269
    136          1           0       15.754490    2.228251   -4.006264
    137          1           0       15.394427    3.282943   -2.767837
    138          1           0       16.731271    0.332162   -1.215682
    139          1           0       17.128388    0.839512   -2.753122
    140          1           0       16.024822   -0.544061   -2.613115
 ---------------------------------------------------------------------

 SCF Done:  E(RZINDO/S) =  -474.378418634     A.U. after   17 cycles

 Excitation energies and oscillator strengths:

 Excited State   1:      Singlet-A      1.2669 eV  978.67 nm  f=0.5953  <S**2>=0.000
     175 ->178         0.17775
     176 ->177         0.66718
 This state for optimization and/or second-order correction.
 Total Energy, E(CIS/TDA) =  -474.331862200
 Copying the excited state density for this state as the 1-particle RhoCI density.

 Excited State   2:      Singlet-A      1.9504 eV  635.68 nm  f=0.0124  <S**2>=0.000
     175 ->177         0.51376
     176 ->178        -0.45972

 Excited State   3:      Singlet-A      2.9168 eV  425.08 nm  f=0.0007  <S**2>=0.000
     168 ->177         0.28543
     168 ->178        -0.14315
     168 ->179        -0.42952
     168 ->180        -0.31170
     168 ->185        -0.23028

 Excited State   4:      Singlet-A      2.9578 eV  419.18 nm  f=0.0170  <S**2>=0.000
     170 ->177         0.30423
     170 ->178        -0.10882
     170 ->179         0.30402
     170 ->180        -0.30439
     170 ->184         0.16886
     170 ->185         0.16997
     170 ->187         0.14709
     176 ->179        -0.14173

 Excited State   5:      Singlet-A      3.0021 eV  412.99 nm  f=0.7556  <S**2>=0.000
     174 ->177        -0.12046
     175 ->177         0.35923
     176 ->178         0.40240
     176 ->179        -0.31831
     176 ->180         0.17716

 The electronic state is 1-A.
 Alpha  occ. eigenvalues --   -1.83253  -1.82000  -1.80393  -1.73912  -1.72015
 Alpha  occ. eigenvalues --   -1.70366  -1.68108  -1.62186  -1.59678  -1.58109
 Alpha  occ. eigenvalues --   -1.55881  -1.51743  -1.47725  -1.46951  -1.45785
 Alpha  occ. eigenvalues --   -1.42464  -1.41432  -1.40135  -1.38869  -1.37749
 Alpha  occ. eigenvalues --   -1.36409  -1.32859  -1.32179  -1.31075  -1.30121
 Alpha  occ. eigenvalues --   -1.27886  -1.25177  -1.22824  -1.20389  -1.17823
 Alpha  occ. eigenvalues --   -1.16923  -1.16880  -1.15798  -1.14865  -1.13299
 Alpha  occ. eigenvalues --   -1.13190  -1.11087  -1.10573  -1.05129  -1.04106
 Alpha  occ. eigenvalues --   -1.02208  -1.00832  -1.00644  -0.99552  -0.97875
 Alpha  occ. eigenvalues --   -0.96182  -0.95499  -0.94513  -0.93779  -0.92041
 Alpha  occ. eigenvalues --   -0.89585  -0.89228  -0.88947  -0.87547  -0.85458
 Alpha  occ. eigenvalues --   -0.84743  -0.83330  -0.82399  -0.81949  -0.80905
 Alpha  occ. eigenvalues --   -0.80281  -0.79486  -0.77465  -0.76821  -0.76532
 Alpha  occ. eigenvalues --   -0.76133  -0.75679  -0.74849  -0.74720  -0.74356
 Alpha  occ. eigenvalues --   -0.73772  -0.73043  -0.72311  -0.71959  -0.71306
 Alpha  occ. eigenvalues --   -0.70162  -0.69757  -0.68858  -0.68546  -0.67812
 Alpha  occ. eigenvalues --   -0.67531  -0.67003  -0.66541  -0.65810  -0.65191
 Alpha  occ. eigenvalues --   -0.64724  -0.64457  -0.64192  -0.63493  -0.63280
 Alpha  occ. eigenvalues --   -0.63146  -0.62910  -0.62858  -0.62706  -0.62214
 Alpha  occ. eigenvalues --   -0.61690  -0.61005  -0.60454  -0.60281  -0.59705
 Alpha  occ. eigenvalues --   -0.59509  -0.58992  -0.58805  -0.58319  -0.57922
 Alpha  occ. eigenvalues --   -0.57703  -0.57408  -0.56919  -0.56697  -0.56199
 Alpha  occ. eigenvalues --   -0.55825  -0.55589  -0.55217  -0.54607  -0.54567
 Alpha  occ. eigenvalues --   -0.54420  -0.53681  -0.53487  -0.53173  -0.52813
 Alpha  occ. eigenvalues --   -0.52445  -0.52400  -0.52047  -0.51277  -0.51153
 Alpha  occ. eigenvalues --   -0.50796  -0.50578  -0.50303  -0.50035  -0.49936
 Alpha  occ. eigenvalues --   -0.49833  -0.49515  -0.49362  -0.48798  -0.48610
 Alpha  occ. eigenvalues --   -0.48368  -0.48221  -0.47988  -0.47791  -0.47483
 Alpha  occ. eigenvalues --   -0.47325  -0.47096  -0.46937  -0.46737  -0.46371
 Alpha  occ. eigenvalues --   -0.45964  -0.45882  -0.45535  -0.45303  -0.45043
 Alpha  occ. eigenvalues --   -0.44764  -0.44739  -0.44633  -0.43923  -0.43684
 Alpha  occ. eigenvalues --   -0.43658  -0.43065  -0.42830  -0.42175  -0.41919
 Alpha  occ. eigenvalues --   -0.41544  -0.41225  -0.40407  -0.39338  -0.38973
 Alpha  occ. eigenvalues --   -0.38469  -0.37321  -0.35706  -0.34781  -0.34187
 Alpha  occ. eigenvalues --   -0.33991  -0.33013  -0.32146  -0.31747  -0.27222
 Alpha  occ. eigenvalues --   -0.21754
 Alpha virt. eigenvalues --   -0.08501  -0.02393  -0.00625   0.01048   0.01223
 Alpha virt. eigenvalues --    0.02359   0.02591   0.02961   0.04534   0.05527
 Alpha virt. eigenvalues --    0.06060   0.06612   0.07054   0.07768   0.07809

 Mulliken charges:
               1
     1  Mg   0.427804
     2  C   -0.027315
     3  C   -0.051865
     4  C   -0.109100
     5  C   -0.066149
     6  N   -0.298673
     7  C    0.107615
     8  C    0.018451
     9  C    0.006563
    10  C    0.141733
    11  C   -0.042479
    12  C   -0.020103
    13  C    0.003708
    14  C    0.463951
    15  O   -0.545906
    16  O   -0.266456
    17  N   -0.314950
    18  C    0.109773
    19  C    0.063961
    20  C   -0.057691
    21  C    0.159824
    22  C   -0.032578
    23  C    0.334800
    24  O   -0.534980
    25  C   -0.021097
    26  N   -0.265693
    27  C    0.163700
    28  C    0.002802
    29  C   -0.003131
    30  C    0.107164
    31  C   -0.049021
    32  C   -0.026301
    33  C   -0.057898
    34  N   -0.325774
    35  C    0.090172
    36  C    0.024379
    37  C   -0.040737
    38  C    0.071741
    39  C   -0.036809
    40  C    0.328745
    41  O   -0.535311
    42  C    0.065044
    43  C    0.494144
    44  O   -0.531835
    45  O   -0.278580
    46  C    0.074934
    47  C    0.114344
    48  C   -0.076124
    49  C   -0.013400
    50  C   -0.051256
    51  C   -0.010470
    52  C   -0.022940
    53  C   -0.034121
    54  C   -0.012413
    55  C   -0.062469
    56  C   -0.025598
    57  C   -0.038705
    58  C   -0.035935
    59  C   -0.012630
    60  C   -0.059985
    61  C   -0.038300
    62  C   -0.028585
    63  C   -0.047363
    64  C   -0.010502
    65  C   -0.063146
    66  C   -0.054557
    67  H    0.044500
    68  H    0.011124
    69  H    0.017660
    70  H    0.014698
    71  H    0.037795
    72  H    0.024629
    73  H    0.026435
    74  H    0.023870
    75  H    0.039670
    76  H    0.024930
    77  H    0.044429
    78  H    0.049389
    79  H    0.047463
    80  H    0.015718
    81  H    0.047210
    82  H    0.039530
    83  H    0.029443
    84  H    0.040894
    85  H    0.037273
    86  H    0.020634
    87  H    0.024465
    88  H    0.024863
    89  H    0.021336
    90  H    0.017082
    91  H    0.019499
    92  H    0.022735
    93  H    0.016777
    94  H    0.012991
    95  H    0.022352
    96  H    0.034694
    97  H    0.033160
    98  H    0.063827
    99  H    0.032981
   100  H    0.053354
   101  H    0.032240
   102  H    0.041452
   103  H    0.059829
   104  H    0.020725
   105  H    0.012854
   106  H    0.026113
   107  H    0.029769
   108  H    0.009386
   109  H    0.021487
   110  H    0.026674
   111  H    0.023283
   112  H    0.023042
   113  H    0.018489
   114  H    0.016285
   115  H    0.008697
   116  H    0.019421
   117  H    0.026697
   118  H    0.016046
   119  H    0.013632
   120  H    0.020225
   121  H    0.016305
   122  H    0.028152
   123  H    0.006163
   124  H    0.018400
   125  H    0.015921
   126  H    0.014502
   127  H    0.015433
   128  H    0.018494
   129  H    0.019968
   130  H    0.015323
   131  H    0.024861
   132  H    0.019456
   133  H    0.004423
   134  H    0.030195
   135  H    0.030815
   136  H    0.013114
   137  H    0.011730
   138  H    0.012027
   139  H    0.015298
   140  H    0.029239
 Sum of Mulliken charges =  -0.00000

 Dipole moment (field-independent basis, Debye):
    X=              0.8272    Y=              3.4782    Z=              2.7535  Tot=              4.5127
 N-N= 4.376326196083D+03 E-N= 0.000000000000D+00  KE=-9.427293247347D+03
 Leave Link  601 at Wed May  4 15:30:08 2022, MaxMem=  6710886400 cpu:               0.8 elap:               0.0
 (Enter /sw/apps/gaussian-16.0/g16/l9999.exe)
 1\1\GINC-BP1-COMPUTE160\SP\RZINDO CIS\STO-3G\C55H74Mg1N4O6\OF15641\04-
 May-2022\0\\#p ZINDO=(nstates=5)\\step_1851_chromophore_11 ZINDO\\0,1\
 Mg,0,53.878,23.513,44.321\C,0,51.162,25.963,44.1\C,0,51.323,21.06,44.1
 65\C,0,56.229,21.371,44.165\C,0,56.12,26.147,44.188\N,0,51.59,23.548,4
 4.061\C,0,50.733,24.622,44.011\C,0,49.32,24.137,43.871\C,0,49.342,22.7
 ,44.366\C,0,50.839,22.367,44.182\C,0,48.812,22.501,45.768\C,0,48.685,2
 4.369,42.484\C,0,49.5,23.906,41.204\C,0,48.867,22.673,40.49\O,0,48.681

 Normal termination of Gaussian 16 at Wed May  4 15:30:08 2022.
