 Gaussian 16, Revision A.03,
 Gaussian 16:  ES64L-G16RevA.03 25-Dec-2016

 ------------------------------
 #p blyp/Def2SVP td=(nstates=5)
 ------------------------------

 --------------------------------------------------
 step_1551_chromophore_5 TDDFT with blyp functional
 --------------------------------------------------
 Symbolic Z-matrix:
 Charge =  0 Multiplicity = 1

                         Standard orientation:
 ---------------------------------------------------------------------
 Center     Atomic      Atomic             Coordinates (Angstroms)
 Number     Number       Type             X           Y           Z
 ---------------------------------------------------------------------
      1         12           0        5.282271    0.509502   -0.280030
      2          6           0        4.206726   -2.751971   -0.013771
      3          6           0        2.847883    0.986236   -2.680751
      4          6           0        5.858398    3.781395   -0.161805
      5          6           0        7.312303   -0.068035    2.467038
      6          7           0        3.563906   -0.702978   -1.075706
      7          6           0        3.370590   -2.002222   -0.877692
      8          6           0        2.157719   -2.542772   -1.609497
      9          6           0        1.718628   -1.365987   -2.518796
     10          6           0        2.797711   -0.302589   -2.151469
     11          6           0        1.847826   -1.852778   -4.048251
     12          6           0        0.997746   -2.768398   -0.580708
     13          6           0       -0.134986   -3.679122   -1.179148
     14          6           0       -1.313877   -2.877487   -1.742289
     15          8           0       -1.618230   -2.789737   -2.944526
     16          8           0       -1.902735   -2.114597   -0.774776
     17          7           0        4.438209    2.216910   -1.282971
     18          6           0        3.561773    2.161045   -2.346689
     19          6           0        3.396196    3.452510   -2.915411
     20          6           0        4.231318    4.319699   -2.209111
     21          6           0        4.898338    3.434139   -1.142450
     22          6           0        2.530995    3.726195   -4.047714
     23          6           0        4.476814    5.859818   -2.439706
     24          8           0        3.951205    6.483541   -3.340455
     25          6           0        5.440587    6.574650   -1.564476
     26          7           0        6.386431    1.708586    1.020955
     27          6           0        6.571442    3.032766    0.833250
     28          6           0        7.645778    3.652457    1.807867
     29          6           0        8.161672    2.321367    2.465481
     30          6           0        7.177146    1.263241    2.002880
     31          6           0        8.786770    4.485076    1.201041
     32          6           0        8.252916    2.421529    4.033480
     33          6           0        9.650368    2.149715    4.609136
     34          7           0        5.792590   -1.057736    0.972519
     35          6           0        6.597707   -1.153334    2.073433
     36          6           0        6.618777   -2.526784    2.535081
     37          6           0        5.728587   -3.168920    1.724495
     38          6           0        5.205782   -2.242483    0.829476
     39          6           0        7.383568   -3.109670    3.723848
     40          6           0        5.192257   -4.498386    1.421474
     41          8           0        5.491590   -5.600839    1.865817
     42          6           0        4.172947   -4.291385    0.298474
     43          6           0        4.667010   -5.056569   -0.826579
     44          8           0        4.324927   -6.148051   -1.214767
     45          8           0        5.609272   -4.234831   -1.451456
     46          6           0        5.824316   -4.582553   -2.856623
     47          6           0       -3.089572   -1.383106   -1.199780
     48          6           0       -3.945072   -1.333484    0.123833
     49          6           0       -5.111179   -0.651288    0.331816
     50          6           0       -5.756161    0.126698   -0.782047
     51          6           0       -5.833057   -0.731989    1.681552
     52          6           0       -5.520395    0.364150    2.637559
     53          6           0       -6.812743    0.939560    3.154725
     54          6           0       -7.436312    1.943454    2.194499
     55          6           0       -7.126522    3.445640    2.579279
     56          6           0       -8.931724    1.594105    1.814810
     57          6           0       -9.255546    1.384597    0.348377
     58          6           0       -9.887787    0.011525   -0.124228
     59          6           0      -11.357070    0.279056   -0.452595
     60          6           0      -11.510819    0.804015   -1.852730
     61          6           0      -12.216531   -0.971958   -0.246127
     62          6           0      -13.169600   -0.825774    1.020924
     63          6           0      -14.678421   -0.785495    0.708872
     64          6           0      -15.356959    0.607007    0.861044
     65          6           0      -16.825141    0.483828    1.409163
     66          6           0      -15.310318    1.422691   -0.430355
     67          1           0        2.135817    1.220134   -3.474816
     68          1           0        6.246347    4.794464   -0.287822
     69          1           0        8.075902   -0.167093    3.241576
     70          1           0        2.431670   -3.507217   -2.036256
     71          1           0        0.691083   -1.027399   -2.390491
     72          1           0        2.248445   -2.860111   -4.171252
     73          1           0        2.557275   -1.270124   -4.635578
     74          1           0        0.846972   -1.894253   -4.477471
     75          1           0        0.544767   -1.788002   -0.435508
     76          1           0        1.337489   -3.092550    0.402552
     77          1           0       -0.502670   -4.412620   -0.461385
     78          1           0        0.221062   -4.396775   -1.916801
     79          1           0        2.192993    4.761357   -4.001820
     80          1           0        1.653504    3.078949   -4.047745
     81          1           0        3.067792    3.533053   -4.977401
     82          1           0        6.447492    6.162186   -1.637226
     83          1           0        4.988496    6.559519   -0.573211
     84          1           0        5.418425    7.601378   -1.931209
     85          1           0        7.166243    4.315499    2.527011
     86          1           0        9.114339    2.107316    1.982024
     87          1           0        8.769722    5.477609    1.651678
     88          1           0        8.539663    4.610229    0.146421
     89          1           0        9.739620    3.959543    1.259193
     90          1           0        7.584264    1.802894    4.634000
     91          1           0        7.917523    3.393284    4.397523
     92          1           0        9.670194    1.160567    5.064972
     93          1           0        9.926446    2.888067    5.362367
     94          1           0       10.303175    2.297196    3.748903
     95          1           0        7.402857   -2.290435    4.442988
     96          1           0        8.424617   -3.240180    3.427793
     97          1           0        6.944112   -4.043175    4.074849
     98          1           0        3.229953   -4.675054    0.687306
     99          1           0        4.879541   -4.901302   -3.295877
    100          1           0        6.557837   -5.386978   -2.914907
    101          1           0        6.185163   -3.637507   -3.263171
    102          1           0       -3.681982   -1.929467   -1.934425
    103          1           0       -2.822177   -0.401176   -1.589913
    104          1           0       -3.480713   -1.860655    0.957632
    105          1           0       -5.740540    1.165925   -0.455092
    106          1           0       -6.795730   -0.186905   -0.878347
    107          1           0       -5.195902    0.120379   -1.716739
    108          1           0       -5.439357   -1.654415    2.108893
    109          1           0       -6.904295   -0.924599    1.727561
    110          1           0       -4.977928    1.189263    2.177358
    111          1           0       -4.988764    0.083388    3.546677
    112          1           0       -6.553545    1.470683    4.071028
    113          1           0       -7.494274    0.154118    3.479210
    114          1           0       -6.786798    1.927764    1.320037
    115          1           0       -6.093432    3.345811    2.911896
    116          1           0       -7.837296    3.644302    3.382619
    117          1           0       -7.164417    4.021631    1.655693
    118          1           0       -9.455196    2.427853    2.283932
    119          1           0       -9.194121    0.647670    2.287733
    120          1           0       -8.342571    1.458228   -0.243143
    121          1           0       -9.860375    2.262068    0.119079
    122          1           0       -9.821821   -0.647155    0.742705
    123          1           0       -9.395962   -0.469383   -0.969427
    124          1           0      -11.709861    1.107240    0.162346
    125          1           0      -11.723397    0.097609   -2.654098
    126          1           0      -10.601836    1.288683   -2.210217
    127          1           0      -12.376358    1.448901   -2.001578
    128          1           0      -11.601401   -1.842441   -0.019999
    129          1           0      -12.684030   -1.172139   -1.210446
    130          1           0      -12.938042    0.012938    1.677227
    131          1           0      -12.975487   -1.679306    1.669782
    132          1           0      -15.204542   -1.530033    1.307657
    133          1           0      -14.760612   -1.146002   -0.316980
    134          1           0      -14.723655    1.122489    1.583231
    135          1           0      -17.428108    1.183304    0.830239
    136          1           0      -16.826026    0.722822    2.473525
    137          1           0      -17.261338   -0.508373    1.293539
    138          1           0      -14.783052    0.954433   -1.261206
    139          1           0      -14.763225    2.334465   -0.190037
    140          1           0      -16.326201    1.574496   -0.793735
 ---------------------------------------------------------------------

 SCF Done:  E(RB-LYP) =  -3007.35792586     A.U. after   20 cycles

 Excitation energies and oscillator strengths:

 Excited State   1:      Singlet-A      1.8486 eV  670.71 nm  f=0.2839  <S**2>=0.000
     245 -> 248       -0.20135
     246 -> 247        0.68204
     246 <- 247       -0.13568
 This state for optimization and/or second-order correction.
 Total Energy, E(TD-HF/TD-DFT) =  -3007.28999267
 Copying the excited state density for this state as the 1-particle RhoCI density.

 Excited State   2:      Singlet-A      2.0360 eV  608.97 nm  f=0.0653  <S**2>=0.000
     243 -> 247       -0.11544
     245 -> 247        0.63236
     246 -> 248        0.24476

 Excited State   3:      Singlet-A      2.0635 eV  600.85 nm  f=0.0013  <S**2>=0.000
     244 -> 247        0.70080

 Excited State   4:      Singlet-A      2.2550 eV  549.83 nm  f=0.0037  <S**2>=0.000
     243 -> 247        0.69360

 Excited State   5:      Singlet-A      2.4485 eV  506.38 nm  f=0.0000  <S**2>=0.000
     242 -> 247        0.70710

 The electronic state is 1-A.
 Alpha  occ. eigenvalues --  -46.27974 -18.83169 -18.81606 -18.77467 -18.77354
 Alpha  occ. eigenvalues --  -18.76347 -18.75776 -14.03652 -14.03445 -14.00929
 Alpha  occ. eigenvalues --  -14.00818 -10.04927 -10.03938 -10.00144  -9.99966
 Alpha  occ. eigenvalues --   -9.98858  -9.97984  -9.97008  -9.96683  -9.96618
 Alpha  occ. eigenvalues --   -9.96349  -9.95849  -9.95140  -9.94905  -9.94890
 Alpha  occ. eigenvalues --   -9.94420  -9.94380  -9.94289  -9.94281  -9.94182
 Alpha  occ. eigenvalues --   -9.94170  -9.94070  -9.93959  -9.93438  -9.93241
 Alpha  occ. eigenvalues --   -9.92888  -9.92823  -9.92763  -9.92741  -9.92690
 Alpha  occ. eigenvalues --   -9.92651  -9.92631  -9.92415  -9.92346  -9.92122
 Alpha  occ. eigenvalues --   -9.92085  -9.92075  -9.91913  -9.91840  -9.91759
 Alpha  occ. eigenvalues --   -9.91530  -9.91508  -9.91489  -9.91467  -9.91221
 Alpha  occ. eigenvalues --   -9.91186  -9.91172  -9.91085  -9.91013  -9.90869
 Alpha  occ. eigenvalues --   -9.90848  -9.90744  -9.90584  -9.90545  -9.90519
 Alpha  occ. eigenvalues --   -9.90353  -2.92569  -1.72981  -1.72453  -1.72285
 Alpha  occ. eigenvalues --   -0.98696  -0.97883  -0.92049  -0.91809  -0.90577
 Alpha  occ. eigenvalues --   -0.89760  -0.87783  -0.86941  -0.86718  -0.85911
 Alpha  occ. eigenvalues --   -0.76183  -0.74357  -0.73391  -0.73107  -0.72763
 Alpha  occ. eigenvalues --   -0.72146  -0.71741  -0.71049  -0.71035  -0.70723
 Alpha  occ. eigenvalues --   -0.69814  -0.69201  -0.68462  -0.68143  -0.67671
 Alpha  occ. eigenvalues --   -0.66351  -0.66269  -0.65408  -0.64933  -0.64737
 Alpha  occ. eigenvalues --   -0.64346  -0.62576  -0.62253  -0.61511  -0.61215
 Alpha  occ. eigenvalues --   -0.60820  -0.60333  -0.59919  -0.59834  -0.59066
 Alpha  occ. eigenvalues --   -0.58071  -0.57650  -0.57319  -0.55990  -0.54409
 Alpha  occ. eigenvalues --   -0.54282  -0.54054  -0.52955  -0.52438  -0.52177
 Alpha  occ. eigenvalues --   -0.51527  -0.50930  -0.50817  -0.50613  -0.50542
 Alpha  occ. eigenvalues --   -0.49854  -0.49623  -0.49185  -0.48904  -0.46760
 Alpha  occ. eigenvalues --   -0.46685  -0.46456  -0.45826  -0.45484  -0.44859
 Alpha  occ. eigenvalues --   -0.44475  -0.44258  -0.43445  -0.43114  -0.42720
 Alpha  occ. eigenvalues --   -0.42387  -0.42121  -0.41986  -0.41247  -0.41179
 Alpha  occ. eigenvalues --   -0.40892  -0.40548  -0.40377  -0.40357  -0.39943
 Alpha  occ. eigenvalues --   -0.39828  -0.39676  -0.39633  -0.39513  -0.39259
 Alpha  occ. eigenvalues --   -0.39123  -0.38945  -0.38823  -0.38670  -0.38546
 Alpha  occ. eigenvalues --   -0.38426  -0.38238  -0.38117  -0.37956  -0.37857
 Alpha  occ. eigenvalues --   -0.37644  -0.37295  -0.37151  -0.36968  -0.36754
 Alpha  occ. eigenvalues --   -0.36445  -0.36055  -0.35871  -0.35745  -0.35696
 Alpha  occ. eigenvalues --   -0.35540  -0.35175  -0.35035  -0.34998  -0.34699
 Alpha  occ. eigenvalues --   -0.34685  -0.34461  -0.34414  -0.34224  -0.34098
 Alpha  occ. eigenvalues --   -0.33922  -0.33754  -0.33677  -0.33656  -0.33558
 Alpha  occ. eigenvalues --   -0.33334  -0.33117  -0.32910  -0.32649  -0.32459
 Alpha  occ. eigenvalues --   -0.32314  -0.32133  -0.31961  -0.31711  -0.31592
 Alpha  occ. eigenvalues --   -0.31497  -0.31279  -0.31252  -0.30999  -0.30889
 Alpha  occ. eigenvalues --   -0.30831  -0.30697  -0.30611  -0.30521  -0.30356
 Alpha  occ. eigenvalues --   -0.30342  -0.30040  -0.29524  -0.29475  -0.29215
 Alpha  occ. eigenvalues --   -0.28877  -0.28867  -0.28187  -0.28138  -0.27904
 Alpha  occ. eigenvalues --   -0.27837  -0.27758  -0.27374  -0.26654  -0.26552
 Alpha  occ. eigenvalues --   -0.26461  -0.26353  -0.26057  -0.25906  -0.25275
 Alpha  occ. eigenvalues --   -0.25027  -0.24714  -0.24363  -0.24344  -0.23884
 Alpha  occ. eigenvalues --   -0.23174  -0.22888  -0.22112  -0.21782  -0.21218
 Alpha  occ. eigenvalues --   -0.20550  -0.20243  -0.19372  -0.18750  -0.17199
 Alpha  occ. eigenvalues --   -0.15784
 Alpha virt. eigenvalues --   -0.11245  -0.07077  -0.06095  -0.04663  -0.03927
 Alpha virt. eigenvalues --   -0.03694  -0.02696  -0.01913  -0.01778   0.00309
 Alpha virt. eigenvalues --    0.01032   0.01769   0.02169   0.02412   0.02558

 Mulliken charges:
               1
     1  Mg   0.694761
     2  C   -0.012838
     3  C   -0.052563
     4  C   -0.030671
     5  C   -0.127758
     6  N   -0.189721
     7  C   -0.086465
     8  C    0.036089
     9  C   -0.004001
    10  C    0.050611
    11  C    0.094261
    12  C    0.077442
    13  C    0.187118
    14  C    0.063989
    15  O   -0.212838
    16  O   -0.264814
    17  N   -0.229567
    18  C    0.082503
    19  C   -0.131858
    20  C    0.009671
    21  C    0.071451
    22  C    0.187136
    23  C   -0.098861
    24  O   -0.145658
    25  C    0.158307
    26  N   -0.204717
    27  C   -0.015117
    28  C    0.002465
    29  C    0.033448
    30  C    0.013404
    31  C    0.142479
    32  C    0.072910
    33  C    0.061396
    34  N   -0.248146
    35  C    0.171620
    36  C   -0.219649
    37  C    0.111826
    38  C    0.108415
    39  C    0.196835
    40  C   -0.080794
    41  O   -0.123299
    42  C    0.078893
    43  C    0.114178
    44  O   -0.137386
    45  O   -0.305869
    46  C    0.222563
    47  C    0.293878
    48  C   -0.131152
    49  C   -0.149089
    50  C    0.157151
    51  C    0.169054
    52  C    0.084939
    53  C    0.081599
    54  C   -0.117147
    55  C    0.103639
    56  C    0.140244
    57  C    0.056531
    58  C    0.097674
    59  C   -0.070876
    60  C    0.090370
    61  C    0.139500
    62  C    0.061150
    63  C    0.103650
    64  C   -0.108965
    65  C    0.109401
    66  C    0.110337
    67  H   -0.075265
    68  H   -0.100660
    69  H   -0.070788
    70  H   -0.017740
    71  H    0.013094
    72  H   -0.020072
    73  H   -0.012598
    74  H    0.009616
    75  H   -0.011638
    76  H   -0.015553
    77  H   -0.005988
    78  H   -0.017685
    79  H    0.005635
    80  H   -0.013751
    81  H    0.004454
    82  H    0.032929
    83  H    0.012165
    84  H   -0.016522
    85  H   -0.014071
    86  H   -0.011601
    87  H   -0.005905
    88  H   -0.013621
    89  H   -0.008654
    90  H   -0.022320
    91  H   -0.034130
    92  H    0.005625
    93  H   -0.013548
    94  H   -0.012349
    95  H   -0.010471
    96  H   -0.002921
    97  H    0.018756
    98  H   -0.003471
    99  H    0.015473
   100  H    0.019551
   101  H    0.013537
   102  H    0.021268
   103  H    0.015553
   104  H   -0.028686
   105  H    0.002485
   106  H    0.014136
   107  H   -0.022243
   108  H   -0.041736
   109  H   -0.026403
   110  H   -0.027807
   111  H   -0.033818
   112  H   -0.060927
   113  H   -0.038311
   114  H   -0.051149
   115  H   -0.014325
   116  H   -0.000238
   117  H   -0.002904
   118  H   -0.039817
   119  H   -0.041515
   120  H   -0.042276
   121  H   -0.024381
   122  H   -0.033288
   123  H   -0.018948
   124  H   -0.030092
   125  H   -0.032547
   126  H   -0.025741
   127  H   -0.019959
   128  H   -0.039384
   129  H   -0.034748
   130  H   -0.033215
   131  H   -0.043500
   132  H   -0.043280
   133  H   -0.041583
   134  H   -0.037050
   135  H   -0.021255
   136  H   -0.010423
   137  H   -0.010582
   138  H   -0.015336
   139  H   -0.008548
   140  H   -0.020009
 Sum of Mulliken charges =  -0.00000

 Dipole moment (field-independent basis, Debye):
    X=              0.9906    Y=              3.1872    Z=              2.0910  Tot=              3.9385
 Quadrupole moment (field-independent basis, Debye-Ang):
   XX=           -360.7805   YY=           -460.9651   ZZ=           -407.0809
   XY=             27.0517   XZ=              1.3959   YZ=             23.9612

 Normal termination of Gaussian 16 at Thu Apr 28 13:52:06 2022.
