 Gaussian 16, Revision A.03,
 Gaussian 16:  ES64L-G16RevA.03 25-Dec-2016

 -----------------------------------
 #p cam-b3lyp/Def2SVP td=(nstates=5)
 -----------------------------------

 -------------------------------------------------------
 step_1551_chromophore_5 TDDFT with cam-b3lyp functional
 -------------------------------------------------------
 Symbolic Z-matrix:
 Charge =  0 Multiplicity = 1

                         Standard orientation:
 ---------------------------------------------------------------------
 Center     Atomic      Atomic             Coordinates (Angstroms)
 Number     Number       Type             X           Y           Z
 ---------------------------------------------------------------------
      1         12           0        5.282271    0.509502   -0.280030
      2          6           0        4.206726   -2.751971   -0.013771
      3          6           0        2.847883    0.986236   -2.680751
      4          6           0        5.858398    3.781395   -0.161805
      5          6           0        7.312303   -0.068035    2.467038
      6          7           0        3.563906   -0.702978   -1.075706
      7          6           0        3.370590   -2.002222   -0.877692
      8          6           0        2.157719   -2.542772   -1.609497
      9          6           0        1.718628   -1.365987   -2.518796
     10          6           0        2.797711   -0.302589   -2.151469
     11          6           0        1.847826   -1.852778   -4.048251
     12          6           0        0.997746   -2.768398   -0.580708
     13          6           0       -0.134986   -3.679122   -1.179148
     14          6           0       -1.313877   -2.877487   -1.742289
     15          8           0       -1.618230   -2.789737   -2.944526
     16          8           0       -1.902735   -2.114597   -0.774776
     17          7           0        4.438209    2.216910   -1.282971
     18          6           0        3.561773    2.161045   -2.346689
     19          6           0        3.396196    3.452510   -2.915411
     20          6           0        4.231318    4.319699   -2.209111
     21          6           0        4.898338    3.434139   -1.142450
     22          6           0        2.530995    3.726195   -4.047714
     23          6           0        4.476814    5.859818   -2.439706
     24          8           0        3.951205    6.483541   -3.340455
     25          6           0        5.440587    6.574650   -1.564476
     26          7           0        6.386431    1.708586    1.020955
     27          6           0        6.571442    3.032766    0.833250
     28          6           0        7.645778    3.652457    1.807867
     29          6           0        8.161672    2.321367    2.465481
     30          6           0        7.177146    1.263241    2.002880
     31          6           0        8.786770    4.485076    1.201041
     32          6           0        8.252916    2.421529    4.033480
     33          6           0        9.650368    2.149715    4.609136
     34          7           0        5.792590   -1.057736    0.972519
     35          6           0        6.597707   -1.153334    2.073433
     36          6           0        6.618777   -2.526784    2.535081
     37          6           0        5.728587   -3.168920    1.724495
     38          6           0        5.205782   -2.242483    0.829476
     39          6           0        7.383568   -3.109670    3.723848
     40          6           0        5.192257   -4.498386    1.421474
     41          8           0        5.491590   -5.600839    1.865817
     42          6           0        4.172947   -4.291385    0.298474
     43          6           0        4.667010   -5.056569   -0.826579
     44          8           0        4.324927   -6.148051   -1.214767
     45          8           0        5.609272   -4.234831   -1.451456
     46          6           0        5.824316   -4.582553   -2.856623
     47          6           0       -3.089572   -1.383106   -1.199780
     48          6           0       -3.945072   -1.333484    0.123833
     49          6           0       -5.111179   -0.651288    0.331816
     50          6           0       -5.756161    0.126698   -0.782047
     51          6           0       -5.833057   -0.731989    1.681552
     52          6           0       -5.520395    0.364150    2.637559
     53          6           0       -6.812743    0.939560    3.154725
     54          6           0       -7.436312    1.943454    2.194499
     55          6           0       -7.126522    3.445640    2.579279
     56          6           0       -8.931724    1.594105    1.814810
     57          6           0       -9.255546    1.384597    0.348377
     58          6           0       -9.887787    0.011525   -0.124228
     59          6           0      -11.357070    0.279056   -0.452595
     60          6           0      -11.510819    0.804015   -1.852730
     61          6           0      -12.216531   -0.971958   -0.246127
     62          6           0      -13.169600   -0.825774    1.020924
     63          6           0      -14.678421   -0.785495    0.708872
     64          6           0      -15.356959    0.607007    0.861044
     65          6           0      -16.825141    0.483828    1.409163
     66          6           0      -15.310318    1.422691   -0.430355
     67          1           0        2.135817    1.220134   -3.474816
     68          1           0        6.246347    4.794464   -0.287822
     69          1           0        8.075902   -0.167093    3.241576
     70          1           0        2.431670   -3.507217   -2.036256
     71          1           0        0.691083   -1.027399   -2.390491
     72          1           0        2.248445   -2.860111   -4.171252
     73          1           0        2.557275   -1.270124   -4.635578
     74          1           0        0.846972   -1.894253   -4.477471
     75          1           0        0.544767   -1.788002   -0.435508
     76          1           0        1.337489   -3.092550    0.402552
     77          1           0       -0.502670   -4.412620   -0.461385
     78          1           0        0.221062   -4.396775   -1.916801
     79          1           0        2.192993    4.761357   -4.001820
     80          1           0        1.653504    3.078949   -4.047745
     81          1           0        3.067792    3.533053   -4.977401
     82          1           0        6.447492    6.162186   -1.637226
     83          1           0        4.988496    6.559519   -0.573211
     84          1           0        5.418425    7.601378   -1.931209
     85          1           0        7.166243    4.315499    2.527011
     86          1           0        9.114339    2.107316    1.982024
     87          1           0        8.769722    5.477609    1.651678
     88          1           0        8.539663    4.610229    0.146421
     89          1           0        9.739620    3.959543    1.259193
     90          1           0        7.584264    1.802894    4.634000
     91          1           0        7.917523    3.393284    4.397523
     92          1           0        9.670194    1.160567    5.064972
     93          1           0        9.926446    2.888067    5.362367
     94          1           0       10.303175    2.297196    3.748903
     95          1           0        7.402857   -2.290435    4.442988
     96          1           0        8.424617   -3.240180    3.427793
     97          1           0        6.944112   -4.043175    4.074849
     98          1           0        3.229953   -4.675054    0.687306
     99          1           0        4.879541   -4.901302   -3.295877
    100          1           0        6.557837   -5.386978   -2.914907
    101          1           0        6.185163   -3.637507   -3.263171
    102          1           0       -3.681982   -1.929467   -1.934425
    103          1           0       -2.822177   -0.401176   -1.589913
    104          1           0       -3.480713   -1.860655    0.957632
    105          1           0       -5.740540    1.165925   -0.455092
    106          1           0       -6.795730   -0.186905   -0.878347
    107          1           0       -5.195902    0.120379   -1.716739
    108          1           0       -5.439357   -1.654415    2.108893
    109          1           0       -6.904295   -0.924599    1.727561
    110          1           0       -4.977928    1.189263    2.177358
    111          1           0       -4.988764    0.083388    3.546677
    112          1           0       -6.553545    1.470683    4.071028
    113          1           0       -7.494274    0.154118    3.479210
    114          1           0       -6.786798    1.927764    1.320037
    115          1           0       -6.093432    3.345811    2.911896
    116          1           0       -7.837296    3.644302    3.382619
    117          1           0       -7.164417    4.021631    1.655693
    118          1           0       -9.455196    2.427853    2.283932
    119          1           0       -9.194121    0.647670    2.287733
    120          1           0       -8.342571    1.458228   -0.243143
    121          1           0       -9.860375    2.262068    0.119079
    122          1           0       -9.821821   -0.647155    0.742705
    123          1           0       -9.395962   -0.469383   -0.969427
    124          1           0      -11.709861    1.107240    0.162346
    125          1           0      -11.723397    0.097609   -2.654098
    126          1           0      -10.601836    1.288683   -2.210217
    127          1           0      -12.376358    1.448901   -2.001578
    128          1           0      -11.601401   -1.842441   -0.019999
    129          1           0      -12.684030   -1.172139   -1.210446
    130          1           0      -12.938042    0.012938    1.677227
    131          1           0      -12.975487   -1.679306    1.669782
    132          1           0      -15.204542   -1.530033    1.307657
    133          1           0      -14.760612   -1.146002   -0.316980
    134          1           0      -14.723655    1.122489    1.583231
    135          1           0      -17.428108    1.183304    0.830239
    136          1           0      -16.826026    0.722822    2.473525
    137          1           0      -17.261338   -0.508373    1.293539
    138          1           0      -14.783052    0.954433   -1.261206
    139          1           0      -14.763225    2.334465   -0.190037
    140          1           0      -16.326201    1.574496   -0.793735
 ---------------------------------------------------------------------

 SCF Done:  E(RCAM-B3LYP) =  -3007.16480269     A.U. after   19 cycles

 Excitation energies and oscillator strengths:

 Excited State   1:      Singlet-A      1.7690 eV  700.86 nm  f=0.3580  <S**2>=0.000
     245 -> 248       -0.19070
     246 -> 247        0.68176
     245 <- 248       -0.10720
 This state for optimization and/or second-order correction.
 Total Energy, E(TD-HF/TD-DFT) =  -3007.09979216
 Copying the excited state density for this state as the 1-particle RhoCI density.

 Excited State   2:      Singlet-A      2.2760 eV  544.75 nm  f=0.0728  <S**2>=0.000
     245 -> 247        0.61903
     246 -> 248        0.33101

 Excited State   3:      Singlet-A      3.4906 eV  355.20 nm  f=0.6531  <S**2>=0.000
     242 -> 247        0.18956
     245 -> 247       -0.30218
     246 -> 248        0.58698
     245 <- 247        0.10650

 Excited State   4:      Singlet-A      3.6250 eV  342.03 nm  f=0.0096  <S**2>=0.000
     239 -> 247       -0.18907
     239 -> 249       -0.13094
     242 -> 247       -0.18798
     244 -> 247        0.59248
     246 -> 249        0.10142
     246 -> 250        0.11224

 Excited State   5:      Singlet-A      3.6825 eV  336.68 nm  f=0.0264  <S**2>=0.000
     239 -> 247        0.47800
     239 -> 249        0.31192
     239 -> 251       -0.12121
     240 -> 247       -0.14360
     244 -> 247        0.26750

 The electronic state is 1-A.
 Alpha  occ. eigenvalues --  -46.89593 -19.26061 -19.24540 -19.20716 -19.20354
 Alpha  occ. eigenvalues --  -19.19823 -19.18838 -14.42570 -14.42310 -14.39373
 Alpha  occ. eigenvalues --  -14.39269 -10.40272 -10.39469 -10.35680 -10.35012
 Alpha  occ. eigenvalues --  -10.32906 -10.31963 -10.31463 -10.31171 -10.30961
 Alpha  occ. eigenvalues --  -10.30885 -10.30124 -10.29537 -10.28906 -10.28880
 Alpha  occ. eigenvalues --  -10.28703 -10.28633 -10.28421 -10.28412 -10.28322
 Alpha  occ. eigenvalues --  -10.28302 -10.28173 -10.28089 -10.28016 -10.27386
 Alpha  occ. eigenvalues --  -10.27042 -10.26872 -10.26781 -10.26747 -10.26633
 Alpha  occ. eigenvalues --  -10.26633 -10.26618 -10.26513 -10.26137 -10.25996
 Alpha  occ. eigenvalues --  -10.25832 -10.25773 -10.25762 -10.25522 -10.25455
 Alpha  occ. eigenvalues --  -10.25261 -10.25203 -10.25158 -10.25079 -10.25050
 Alpha  occ. eigenvalues --  -10.24872 -10.24870 -10.24756 -10.24750 -10.24685
 Alpha  occ. eigenvalues --  -10.24546 -10.24442 -10.24168 -10.24156 -10.24152
 Alpha  occ. eigenvalues --  -10.23931  -3.18086  -1.92975  -1.92541  -1.92386
 Alpha  occ. eigenvalues --   -1.17123  -1.16544  -1.10452  -1.10339  -1.08604
 Alpha  occ. eigenvalues --   -1.07629  -1.05631  -1.04665  -1.04387  -1.03404
 Alpha  occ. eigenvalues --   -0.93474  -0.91266  -0.90183  -0.89903  -0.89503
 Alpha  occ. eigenvalues --   -0.88818  -0.88409  -0.87657  -0.87628  -0.87406
 Alpha  occ. eigenvalues --   -0.86319  -0.85507  -0.84784  -0.84396  -0.83889
 Alpha  occ. eigenvalues --   -0.82485  -0.82336  -0.81326  -0.80762  -0.80582
 Alpha  occ. eigenvalues --   -0.80088  -0.78219  -0.77827  -0.77050  -0.76718
 Alpha  occ. eigenvalues --   -0.76197  -0.75625  -0.75246  -0.75144  -0.74327
 Alpha  occ. eigenvalues --   -0.73143  -0.72628  -0.72258  -0.70817  -0.69113
 Alpha  occ. eigenvalues --   -0.68920  -0.68659  -0.67298  -0.66843  -0.66341
 Alpha  occ. eigenvalues --   -0.65756  -0.64965  -0.64903  -0.64603  -0.64565
 Alpha  occ. eigenvalues --   -0.63865  -0.63492  -0.63136  -0.62821  -0.60487
 Alpha  occ. eigenvalues --   -0.60258  -0.60090  -0.59205  -0.58938  -0.58542
 Alpha  occ. eigenvalues --   -0.57942  -0.57720  -0.56598  -0.56361  -0.55841
 Alpha  occ. eigenvalues --   -0.55659  -0.55162  -0.54913  -0.54365  -0.54240
 Alpha  occ. eigenvalues --   -0.53599  -0.53504  -0.53120  -0.53077  -0.52980
 Alpha  occ. eigenvalues --   -0.52621  -0.52361  -0.52152  -0.51945  -0.51884
 Alpha  occ. eigenvalues --   -0.51714  -0.51543  -0.51323  -0.51212  -0.50885
 Alpha  occ. eigenvalues --   -0.50718  -0.50620  -0.50363  -0.50290  -0.50129
 Alpha  occ. eigenvalues --   -0.50007  -0.49688  -0.49405  -0.49321  -0.49170
 Alpha  occ. eigenvalues --   -0.49039  -0.48661  -0.48234  -0.47923  -0.47707
 Alpha  occ. eigenvalues --   -0.47430  -0.47151  -0.46984  -0.46869  -0.46764
 Alpha  occ. eigenvalues --   -0.46695  -0.46375  -0.46150  -0.45970  -0.45888
 Alpha  occ. eigenvalues --   -0.45869  -0.45715  -0.45569  -0.45494  -0.45331
 Alpha  occ. eigenvalues --   -0.45116  -0.45064  -0.44529  -0.44228  -0.44042
 Alpha  occ. eigenvalues --   -0.43787  -0.43765  -0.43593  -0.43433  -0.43360
 Alpha  occ. eigenvalues --   -0.43135  -0.42806  -0.42767  -0.42676  -0.42458
 Alpha  occ. eigenvalues --   -0.42394  -0.42075  -0.41925  -0.41876  -0.41855
 Alpha  occ. eigenvalues --   -0.41530  -0.41215  -0.40672  -0.40649  -0.40247
 Alpha  occ. eigenvalues --   -0.40077  -0.39886  -0.39275  -0.39130  -0.38868
 Alpha  occ. eigenvalues --   -0.38768  -0.38639  -0.38198  -0.37841  -0.37436
 Alpha  occ. eigenvalues --   -0.37394  -0.37280  -0.37055  -0.37052  -0.36705
 Alpha  occ. eigenvalues --   -0.35616  -0.35301  -0.35298  -0.34857  -0.34722
 Alpha  occ. eigenvalues --   -0.34340  -0.33642  -0.33523  -0.31623  -0.31286
 Alpha  occ. eigenvalues --   -0.30797  -0.30705  -0.29860  -0.29803  -0.24009
 Alpha  occ. eigenvalues --   -0.21038
 Alpha virt. eigenvalues --   -0.08160  -0.02035   0.00402   0.01330   0.02437
 Alpha virt. eigenvalues --    0.04013   0.04787   0.05217   0.05624   0.06965
 Alpha virt. eigenvalues --    0.07904   0.08308   0.08429   0.08741   0.08830

 Mulliken charges:
               1
     1  Mg   0.827793
     2  C   -0.043522
     3  C   -0.062223
     4  C   -0.052937
     5  C   -0.129535
     6  N   -0.256767
     7  C   -0.040764
     8  C   -0.009037
     9  C   -0.057179
    10  C    0.062004
    11  C    0.042446
    12  C    0.024418
    13  C    0.115684
    14  C    0.140960
    15  O   -0.253931
    16  O   -0.328289
    17  N   -0.314246
    18  C    0.086150
    19  C   -0.139376
    20  C   -0.057351
    21  C    0.097836
    22  C    0.127764
    23  C   -0.011799
    24  O   -0.187262
    25  C    0.064170
    26  N   -0.281786
    27  C    0.007466
    28  C   -0.041926
    29  C   -0.033032
    30  C    0.041293
    31  C    0.083257
    32  C    0.013123
    33  C    0.003541
    34  N   -0.339752
    35  C    0.168395
    36  C   -0.205228
    37  C    0.025610
    38  C    0.151154
    39  C    0.146627
    40  C    0.024987
    41  O   -0.159459
    42  C   -0.000754
    43  C    0.204495
    44  O   -0.175952
    45  O   -0.367574
    46  C    0.183319
    47  C    0.263409
    48  C   -0.149328
    49  C   -0.171703
    50  C    0.096609
    51  C    0.107180
    52  C    0.032620
    53  C    0.021314
    54  C   -0.170155
    55  C    0.054584
    56  C    0.087907
    57  C    0.002875
    58  C    0.046674
    59  C   -0.124748
    60  C    0.033272
    61  C    0.080724
    62  C    0.006104
    63  C    0.050243
    64  C   -0.167196
    65  C    0.050541
    66  C    0.052441
    67  H   -0.039584
    68  H   -0.066316
    69  H   -0.035912
    70  H    0.011360
    71  H    0.043143
    72  H    0.002575
    73  H    0.012626
    74  H    0.034351
    75  H    0.022151
    76  H    0.015422
    77  H    0.028351
    78  H    0.016703
    79  H    0.035733
    80  H    0.010725
    81  H    0.031891
    82  H    0.056802
    83  H    0.040153
    84  H    0.021033
    85  H    0.019691
    86  H    0.021999
    87  H    0.019165
    88  H    0.010492
    89  H    0.015541
    90  H    0.008926
    91  H   -0.003320
    92  H    0.026289
    93  H    0.012219
    94  H    0.008786
    95  H    0.013454
    96  H    0.024826
    97  H    0.045964
    98  H    0.037939
    99  H    0.036096
   100  H    0.043034
   101  H    0.037014
   102  H    0.050522
   103  H    0.040381
   104  H    0.005938
   105  H    0.024960
   106  H    0.032899
   107  H    0.004252
   108  H   -0.008007
   109  H    0.001982
   110  H   -0.000735
   111  H   -0.002279
   112  H   -0.027530
   113  H   -0.008361
   114  H   -0.024500
   115  H    0.007379
   116  H    0.021204
   117  H    0.020327
   118  H   -0.010653
   119  H   -0.014355
   120  H   -0.015848
   121  H    0.003470
   122  H   -0.006908
   123  H    0.008399
   124  H   -0.000260
   125  H   -0.007165
   126  H   -0.000405
   127  H    0.003631
   128  H   -0.008229
   129  H   -0.006050
   130  H   -0.006853
   131  H   -0.012388
   132  H   -0.012473
   133  H   -0.013726
   134  H   -0.005688
   135  H    0.002258
   136  H    0.013404
   137  H    0.012563
   138  H    0.004895
   139  H    0.013987
   140  H    0.004461
 Sum of Mulliken charges =  -0.00000

 Dipole moment (field-independent basis, Debye):
    X=              1.2174    Y=              3.1366    Z=              2.3396  Tot=              4.0981
 Quadrupole moment (field-independent basis, Debye-Ang):
   XX=           -357.7915   YY=           -459.4463   ZZ=           -405.7586
   XY=             28.6000   XZ=              3.1486   YZ=             24.4335

 Normal termination of Gaussian 16 at Thu Apr 28 12:46:13 2022.
