 Gaussian 16, Revision A.03,
 Gaussian 16:  ES64L-G16RevA.03 25-Dec-2016

 ---------------------------------
 #p PBE1PBE/Def2SVP td=(nstates=5)
 ---------------------------------

 -----------------------------------------------------
 step_1551_chromophore_5 TDDFT with PBE1PBE functional
 -----------------------------------------------------
 Symbolic Z-matrix:
 Charge =  0 Multiplicity = 1

                         Standard orientation:
 ---------------------------------------------------------------------
 Center     Atomic      Atomic             Coordinates (Angstroms)
 Number     Number       Type             X           Y           Z
 ---------------------------------------------------------------------
      1         12           0        5.282271    0.509502   -0.280030
      2          6           0        4.206726   -2.751971   -0.013771
      3          6           0        2.847883    0.986236   -2.680751
      4          6           0        5.858398    3.781395   -0.161805
      5          6           0        7.312303   -0.068035    2.467038
      6          7           0        3.563906   -0.702978   -1.075706
      7          6           0        3.370590   -2.002222   -0.877692
      8          6           0        2.157719   -2.542772   -1.609497
      9          6           0        1.718628   -1.365987   -2.518796
     10          6           0        2.797711   -0.302589   -2.151469
     11          6           0        1.847826   -1.852778   -4.048251
     12          6           0        0.997746   -2.768398   -0.580708
     13          6           0       -0.134986   -3.679122   -1.179148
     14          6           0       -1.313877   -2.877487   -1.742289
     15          8           0       -1.618230   -2.789737   -2.944526
     16          8           0       -1.902735   -2.114597   -0.774776
     17          7           0        4.438209    2.216910   -1.282971
     18          6           0        3.561773    2.161045   -2.346689
     19          6           0        3.396196    3.452510   -2.915411
     20          6           0        4.231318    4.319699   -2.209111
     21          6           0        4.898338    3.434139   -1.142450
     22          6           0        2.530995    3.726195   -4.047714
     23          6           0        4.476814    5.859818   -2.439706
     24          8           0        3.951205    6.483541   -3.340455
     25          6           0        5.440587    6.574650   -1.564476
     26          7           0        6.386431    1.708586    1.020955
     27          6           0        6.571442    3.032766    0.833250
     28          6           0        7.645778    3.652457    1.807867
     29          6           0        8.161672    2.321367    2.465481
     30          6           0        7.177146    1.263241    2.002880
     31          6           0        8.786770    4.485076    1.201041
     32          6           0        8.252916    2.421529    4.033480
     33          6           0        9.650368    2.149715    4.609136
     34          7           0        5.792590   -1.057736    0.972519
     35          6           0        6.597707   -1.153334    2.073433
     36          6           0        6.618777   -2.526784    2.535081
     37          6           0        5.728587   -3.168920    1.724495
     38          6           0        5.205782   -2.242483    0.829476
     39          6           0        7.383568   -3.109670    3.723848
     40          6           0        5.192257   -4.498386    1.421474
     41          8           0        5.491590   -5.600839    1.865817
     42          6           0        4.172947   -4.291385    0.298474
     43          6           0        4.667010   -5.056569   -0.826579
     44          8           0        4.324927   -6.148051   -1.214767
     45          8           0        5.609272   -4.234831   -1.451456
     46          6           0        5.824316   -4.582553   -2.856623
     47          6           0       -3.089572   -1.383106   -1.199780
     48          6           0       -3.945072   -1.333484    0.123833
     49          6           0       -5.111179   -0.651288    0.331816
     50          6           0       -5.756161    0.126698   -0.782047
     51          6           0       -5.833057   -0.731989    1.681552
     52          6           0       -5.520395    0.364150    2.637559
     53          6           0       -6.812743    0.939560    3.154725
     54          6           0       -7.436312    1.943454    2.194499
     55          6           0       -7.126522    3.445640    2.579279
     56          6           0       -8.931724    1.594105    1.814810
     57          6           0       -9.255546    1.384597    0.348377
     58          6           0       -9.887787    0.011525   -0.124228
     59          6           0      -11.357070    0.279056   -0.452595
     60          6           0      -11.510819    0.804015   -1.852730
     61          6           0      -12.216531   -0.971958   -0.246127
     62          6           0      -13.169600   -0.825774    1.020924
     63          6           0      -14.678421   -0.785495    0.708872
     64          6           0      -15.356959    0.607007    0.861044
     65          6           0      -16.825141    0.483828    1.409163
     66          6           0      -15.310318    1.422691   -0.430355
     67          1           0        2.135817    1.220134   -3.474816
     68          1           0        6.246347    4.794464   -0.287822
     69          1           0        8.075902   -0.167093    3.241576
     70          1           0        2.431670   -3.507217   -2.036256
     71          1           0        0.691083   -1.027399   -2.390491
     72          1           0        2.248445   -2.860111   -4.171252
     73          1           0        2.557275   -1.270124   -4.635578
     74          1           0        0.846972   -1.894253   -4.477471
     75          1           0        0.544767   -1.788002   -0.435508
     76          1           0        1.337489   -3.092550    0.402552
     77          1           0       -0.502670   -4.412620   -0.461385
     78          1           0        0.221062   -4.396775   -1.916801
     79          1           0        2.192993    4.761357   -4.001820
     80          1           0        1.653504    3.078949   -4.047745
     81          1           0        3.067792    3.533053   -4.977401
     82          1           0        6.447492    6.162186   -1.637226
     83          1           0        4.988496    6.559519   -0.573211
     84          1           0        5.418425    7.601378   -1.931209
     85          1           0        7.166243    4.315499    2.527011
     86          1           0        9.114339    2.107316    1.982024
     87          1           0        8.769722    5.477609    1.651678
     88          1           0        8.539663    4.610229    0.146421
     89          1           0        9.739620    3.959543    1.259193
     90          1           0        7.584264    1.802894    4.634000
     91          1           0        7.917523    3.393284    4.397523
     92          1           0        9.670194    1.160567    5.064972
     93          1           0        9.926446    2.888067    5.362367
     94          1           0       10.303175    2.297196    3.748903
     95          1           0        7.402857   -2.290435    4.442988
     96          1           0        8.424617   -3.240180    3.427793
     97          1           0        6.944112   -4.043175    4.074849
     98          1           0        3.229953   -4.675054    0.687306
     99          1           0        4.879541   -4.901302   -3.295877
    100          1           0        6.557837   -5.386978   -2.914907
    101          1           0        6.185163   -3.637507   -3.263171
    102          1           0       -3.681982   -1.929467   -1.934425
    103          1           0       -2.822177   -0.401176   -1.589913
    104          1           0       -3.480713   -1.860655    0.957632
    105          1           0       -5.740540    1.165925   -0.455092
    106          1           0       -6.795730   -0.186905   -0.878347
    107          1           0       -5.195902    0.120379   -1.716739
    108          1           0       -5.439357   -1.654415    2.108893
    109          1           0       -6.904295   -0.924599    1.727561
    110          1           0       -4.977928    1.189263    2.177358
    111          1           0       -4.988764    0.083388    3.546677
    112          1           0       -6.553545    1.470683    4.071028
    113          1           0       -7.494274    0.154118    3.479210
    114          1           0       -6.786798    1.927764    1.320037
    115          1           0       -6.093432    3.345811    2.911896
    116          1           0       -7.837296    3.644302    3.382619
    117          1           0       -7.164417    4.021631    1.655693
    118          1           0       -9.455196    2.427853    2.283932
    119          1           0       -9.194121    0.647670    2.287733
    120          1           0       -8.342571    1.458228   -0.243143
    121          1           0       -9.860375    2.262068    0.119079
    122          1           0       -9.821821   -0.647155    0.742705
    123          1           0       -9.395962   -0.469383   -0.969427
    124          1           0      -11.709861    1.107240    0.162346
    125          1           0      -11.723397    0.097609   -2.654098
    126          1           0      -10.601836    1.288683   -2.210217
    127          1           0      -12.376358    1.448901   -2.001578
    128          1           0      -11.601401   -1.842441   -0.019999
    129          1           0      -12.684030   -1.172139   -1.210446
    130          1           0      -12.938042    0.012938    1.677227
    131          1           0      -12.975487   -1.679306    1.669782
    132          1           0      -15.204542   -1.530033    1.307657
    133          1           0      -14.760612   -1.146002   -0.316980
    134          1           0      -14.723655    1.122489    1.583231
    135          1           0      -17.428108    1.183304    0.830239
    136          1           0      -16.826026    0.722822    2.473525
    137          1           0      -17.261338   -0.508373    1.293539
    138          1           0      -14.783052    0.954433   -1.261206
    139          1           0      -14.763225    2.334465   -0.190037
    140          1           0      -16.326201    1.574496   -0.793735
 ---------------------------------------------------------------------

 SCF Done:  E(RPBE1PBE) =  -3005.35364889     A.U. after   15 cycles

 Excitation energies and oscillator strengths:

 Excited State   1:      Singlet-A      1.9138 eV  647.84 nm  f=0.3505  <S**2>=0.000
     245 -> 248       -0.18360
     246 -> 247        0.68829
 This state for optimization and/or second-order correction.
 Total Energy, E(TD-HF/TD-DFT) =  -3005.28331801
 Copying the excited state density for this state as the 1-particle RhoCI density.

 Excited State   2:      Singlet-A      2.2827 eV  543.15 nm  f=0.0786  <S**2>=0.000
     245 -> 247        0.63604
     246 -> 248        0.29615

 Excited State   3:      Singlet-A      3.2105 eV  386.18 nm  f=0.0227  <S**2>=0.000
     240 -> 247       -0.19541
     241 -> 247       -0.25545
     242 -> 247        0.15016
     243 -> 247        0.56311
     246 -> 248       -0.12959

 Excited State   4:      Singlet-A      3.2381 eV  382.89 nm  f=0.0221  <S**2>=0.000
     240 -> 247        0.32035
     240 -> 249        0.11120
     241 -> 247        0.28854
     242 -> 247        0.44108
     243 -> 247        0.17662
     246 -> 248        0.16846

 Excited State   5:      Singlet-A      3.2782 eV  378.21 nm  f=0.0019  <S**2>=0.000
     240 -> 247       -0.28006
     241 -> 247       -0.15615
     242 -> 247        0.48512
     243 -> 247       -0.35768

 The electronic state is 1-A.
 Alpha  occ. eigenvalues --  -46.92987 -19.26756 -19.25165 -19.20871 -19.20658
 Alpha  occ. eigenvalues --  -19.19911 -19.19139 -14.42052 -14.41818 -14.39007
 Alpha  occ. eigenvalues --  -14.38881 -10.37339 -10.36405 -10.32728 -10.32255
 Alpha  occ. eigenvalues --  -10.30343 -10.29281 -10.29121 -10.28840 -10.28835
 Alpha  occ. eigenvalues --  -10.28538 -10.27907 -10.27093 -10.26772 -10.26750
 Alpha  occ. eigenvalues --  -10.26280 -10.26263 -10.26225 -10.26190 -10.26151
 Alpha  occ. eigenvalues --  -10.26016 -10.25813 -10.25677 -10.25629 -10.25052
 Alpha  occ. eigenvalues --  -10.24801 -10.24760 -10.24468 -10.24443 -10.24272
 Alpha  occ. eigenvalues --  -10.24120 -10.24101 -10.23968 -10.23728 -10.23381
 Alpha  occ. eigenvalues --  -10.23303 -10.23228 -10.23190 -10.23126 -10.23054
 Alpha  occ. eigenvalues --  -10.22995 -10.22778 -10.22610 -10.22589 -10.22581
 Alpha  occ. eigenvalues --  -10.22545 -10.22431 -10.22317 -10.22283 -10.22242
 Alpha  occ. eigenvalues --  -10.22127 -10.21843 -10.21743 -10.21704 -10.21524
 Alpha  occ. eigenvalues --  -10.21316  -3.15061  -1.87889  -1.87435  -1.87282
 Alpha  occ. eigenvalues --   -1.11951  -1.11218  -1.05175  -1.05068  -1.03374
 Alpha  occ. eigenvalues --   -1.02493  -1.00244  -0.99294  -0.99058  -0.98165
 Alpha  occ. eigenvalues --   -0.87754  -0.85369  -0.84396  -0.84009  -0.83784
 Alpha  occ. eigenvalues --   -0.83182  -0.82548  -0.81987  -0.81746  -0.81709
 Alpha  occ. eigenvalues --   -0.80670  -0.79755  -0.79036  -0.78605  -0.78141
 Alpha  occ. eigenvalues --   -0.76734  -0.76490  -0.75597  -0.75063  -0.74851
 Alpha  occ. eigenvalues --   -0.74322  -0.72498  -0.72089  -0.71359  -0.71021
 Alpha  occ. eigenvalues --   -0.70362  -0.70007  -0.69354  -0.69256  -0.68492
 Alpha  occ. eigenvalues --   -0.67551  -0.66972  -0.66726  -0.65122  -0.63522
 Alpha  occ. eigenvalues --   -0.63240  -0.62862  -0.61729  -0.61061  -0.60717
 Alpha  occ. eigenvalues --   -0.60274  -0.59523  -0.59287  -0.59173  -0.58913
 Alpha  occ. eigenvalues --   -0.57990  -0.57934  -0.57274  -0.57005  -0.54943
 Alpha  occ. eigenvalues --   -0.54765  -0.54542  -0.53824  -0.53573  -0.53012
 Alpha  occ. eigenvalues --   -0.52365  -0.52171  -0.51152  -0.50930  -0.50388
 Alpha  occ. eigenvalues --   -0.50249  -0.49608  -0.49351  -0.48978  -0.48766
 Alpha  occ. eigenvalues --   -0.48200  -0.48059  -0.47718  -0.47599  -0.47435
 Alpha  occ. eigenvalues --   -0.47095  -0.46900  -0.46666  -0.46472  -0.46396
 Alpha  occ. eigenvalues --   -0.46200  -0.46106  -0.45855  -0.45766  -0.45394
 Alpha  occ. eigenvalues --   -0.45263  -0.45218  -0.44905  -0.44890  -0.44701
 Alpha  occ. eigenvalues --   -0.44553  -0.44292  -0.43971  -0.43941  -0.43811
 Alpha  occ. eigenvalues --   -0.43635  -0.43334  -0.42928  -0.42563  -0.42343
 Alpha  occ. eigenvalues --   -0.42043  -0.41804  -0.41684  -0.41494  -0.41443
 Alpha  occ. eigenvalues --   -0.41368  -0.41051  -0.40737  -0.40695  -0.40634
 Alpha  occ. eigenvalues --   -0.40584  -0.40461  -0.40317  -0.40187  -0.39945
 Alpha  occ. eigenvalues --   -0.39877  -0.39746  -0.39394  -0.38868  -0.38822
 Alpha  occ. eigenvalues --   -0.38591  -0.38521  -0.38422  -0.38203  -0.38137
 Alpha  occ. eigenvalues --   -0.37952  -0.37637  -0.37513  -0.37389  -0.37272
 Alpha  occ. eigenvalues --   -0.37217  -0.36922  -0.36832  -0.36744  -0.36583
 Alpha  occ. eigenvalues --   -0.36359  -0.35922  -0.35633  -0.35398  -0.35025
 Alpha  occ. eigenvalues --   -0.34976  -0.34714  -0.34261  -0.33964  -0.33855
 Alpha  occ. eigenvalues --   -0.33553  -0.33441  -0.33000  -0.32843  -0.32371
 Alpha  occ. eigenvalues --   -0.32270  -0.32179  -0.32083  -0.31863  -0.31651
 Alpha  occ. eigenvalues --   -0.30492  -0.30309  -0.30154  -0.29769  -0.29723
 Alpha  occ. eigenvalues --   -0.29182  -0.29141  -0.28488  -0.26927  -0.26374
 Alpha  occ. eigenvalues --   -0.26258  -0.25698  -0.25446  -0.25140  -0.20937
 Alpha  occ. eigenvalues --   -0.18700
 Alpha virt. eigenvalues --   -0.10740  -0.05482  -0.03789  -0.02037  -0.01480
 Alpha virt. eigenvalues --   -0.00644   0.00349   0.00898   0.01204   0.03260
 Alpha virt. eigenvalues --    0.04097   0.04414   0.04974   0.05321   0.05448

 Mulliken charges:
               1
     1  Mg   0.970164
     2  C   -0.054098
     3  C   -0.060708
     4  C   -0.063184
     5  C   -0.112691
     6  N   -0.358653
     7  C    0.035461
     8  C   -0.081257
     9  C   -0.138539
    10  C    0.100318
    11  C   -0.008311
    12  C   -0.027101
    13  C    0.050047
    14  C    0.198966
    15  O   -0.286459
    16  O   -0.357756
    17  N   -0.431725
    18  C    0.115556
    19  C   -0.172049
    20  C   -0.098053
    21  C    0.136531
    22  C    0.070129
    23  C    0.045591
    24  O   -0.224075
    25  C   -0.020728
    26  N   -0.393050
    27  C    0.050453
    28  C   -0.110265
    29  C   -0.122595
    30  C    0.085524
    31  C    0.025076
    32  C   -0.040038
    33  C   -0.069796
    34  N   -0.469303
    35  C    0.177337
    36  C   -0.212585
    37  C   -0.029322
    38  C    0.208499
    39  C    0.091215
    40  C    0.126070
    41  O   -0.206866
    42  C   -0.117059
    43  C    0.300117
    44  O   -0.216009
    45  O   -0.393903
    46  C    0.128740
    47  C    0.224308
    48  C   -0.155095
    49  C   -0.221472
    50  C    0.028179
    51  C    0.044824
    52  C   -0.032307
    53  C   -0.039020
    54  C   -0.250613
    55  C   -0.011589
    56  C    0.034766
    57  C   -0.061373
    58  C   -0.010752
    59  C   -0.214337
    60  C   -0.022058
    61  C    0.027424
    62  C   -0.054870
    63  C   -0.002980
    64  C   -0.260375
    65  C   -0.011629
    66  C   -0.006300
    67  H   -0.006665
    68  H   -0.029018
    69  H   -0.001287
    70  H    0.051063
    71  H    0.078697
    72  H    0.029830
    73  H    0.039386
    74  H    0.061528
    75  H    0.055908
    76  H    0.048431
    77  H    0.060006
    78  H    0.047747
    79  H    0.063878
    80  H    0.037874
    81  H    0.061018
    82  H    0.082555
    83  H    0.068799
    84  H    0.050552
    85  H    0.055513
    86  H    0.058448
    87  H    0.046405
    88  H    0.038660
    89  H    0.042300
    90  H    0.040760
    91  H    0.028969
    92  H    0.052476
    93  H    0.040460
    94  H    0.037185
    95  H    0.040571
    96  H    0.053101
    97  H    0.072131
    98  H    0.073798
    99  H    0.056649
   100  H    0.065328
   101  H    0.058640
   102  H    0.076716
   103  H    0.065629
   104  H    0.035632
   105  H    0.052398
   106  H    0.064804
   107  H    0.032029
   108  H    0.025578
   109  H    0.035168
   110  H    0.032721
   111  H    0.030422
   112  H    0.007233
   113  H    0.023875
   114  H    0.020981
   115  H    0.036195
   116  H    0.048873
   117  H    0.048403
   118  H    0.022079
   119  H    0.017733
   120  H    0.019235
   121  H    0.035083
   122  H    0.026471
   123  H    0.039319
   124  H    0.038249
   125  H    0.019926
   126  H    0.027491
   127  H    0.032386
   128  H    0.024229
   129  H    0.024210
   130  H    0.023401
   131  H    0.020881
   132  H    0.020269
   133  H    0.019582
   134  H    0.032388
   135  H    0.029431
   136  H    0.041124
   137  H    0.039152
   138  H    0.033108
   139  H    0.040467
   140  H    0.031079
 Sum of Mulliken charges =  -0.00000

 Dipole moment (field-independent basis, Debye):
    X=              1.2054    Y=              3.3897    Z=              2.2376  Tot=              4.2367
 Quadrupole moment (field-independent basis, Debye-Ang):
   XX=           -354.3820   YY=           -456.7103   ZZ=           -401.8750
   XY=             30.2844   XZ=              3.6403   YZ=             24.5697

 Normal termination of Gaussian 16 at Thu Apr 28 13:08:42 2022.
