 Gaussian 16, Revision A.03,
 Gaussian 16:  ES64L-G16RevA.03 25-Dec-2016

 --------------------------------
 #p wB97XD/Def2SVP td=(nstates=5)
 --------------------------------

 ----------------------------------------------------
 step_1551_chromophore_5 TDDFT with wB97XD functional
 ----------------------------------------------------
 Symbolic Z-matrix:
 Charge =  0 Multiplicity = 1

                         Standard orientation:
 ---------------------------------------------------------------------
 Center     Atomic      Atomic             Coordinates (Angstroms)
 Number     Number       Type             X           Y           Z
 ---------------------------------------------------------------------
      1         12           0        5.282271    0.509502   -0.280030
      2          6           0        4.206726   -2.751971   -0.013771
      3          6           0        2.847883    0.986236   -2.680751
      4          6           0        5.858398    3.781395   -0.161805
      5          6           0        7.312303   -0.068035    2.467038
      6          7           0        3.563906   -0.702978   -1.075706
      7          6           0        3.370590   -2.002222   -0.877692
      8          6           0        2.157719   -2.542772   -1.609497
      9          6           0        1.718628   -1.365987   -2.518796
     10          6           0        2.797711   -0.302589   -2.151469
     11          6           0        1.847826   -1.852778   -4.048251
     12          6           0        0.997746   -2.768398   -0.580708
     13          6           0       -0.134986   -3.679122   -1.179148
     14          6           0       -1.313877   -2.877487   -1.742289
     15          8           0       -1.618230   -2.789737   -2.944526
     16          8           0       -1.902735   -2.114597   -0.774776
     17          7           0        4.438209    2.216910   -1.282971
     18          6           0        3.561773    2.161045   -2.346689
     19          6           0        3.396196    3.452510   -2.915411
     20          6           0        4.231318    4.319699   -2.209111
     21          6           0        4.898338    3.434139   -1.142450
     22          6           0        2.530995    3.726195   -4.047714
     23          6           0        4.476814    5.859818   -2.439706
     24          8           0        3.951205    6.483541   -3.340455
     25          6           0        5.440587    6.574650   -1.564476
     26          7           0        6.386431    1.708586    1.020955
     27          6           0        6.571442    3.032766    0.833250
     28          6           0        7.645778    3.652457    1.807867
     29          6           0        8.161672    2.321367    2.465481
     30          6           0        7.177146    1.263241    2.002880
     31          6           0        8.786770    4.485076    1.201041
     32          6           0        8.252916    2.421529    4.033480
     33          6           0        9.650368    2.149715    4.609136
     34          7           0        5.792590   -1.057736    0.972519
     35          6           0        6.597707   -1.153334    2.073433
     36          6           0        6.618777   -2.526784    2.535081
     37          6           0        5.728587   -3.168920    1.724495
     38          6           0        5.205782   -2.242483    0.829476
     39          6           0        7.383568   -3.109670    3.723848
     40          6           0        5.192257   -4.498386    1.421474
     41          8           0        5.491590   -5.600839    1.865817
     42          6           0        4.172947   -4.291385    0.298474
     43          6           0        4.667010   -5.056569   -0.826579
     44          8           0        4.324927   -6.148051   -1.214767
     45          8           0        5.609272   -4.234831   -1.451456
     46          6           0        5.824316   -4.582553   -2.856623
     47          6           0       -3.089572   -1.383106   -1.199780
     48          6           0       -3.945072   -1.333484    0.123833
     49          6           0       -5.111179   -0.651288    0.331816
     50          6           0       -5.756161    0.126698   -0.782047
     51          6           0       -5.833057   -0.731989    1.681552
     52          6           0       -5.520395    0.364150    2.637559
     53          6           0       -6.812743    0.939560    3.154725
     54          6           0       -7.436312    1.943454    2.194499
     55          6           0       -7.126522    3.445640    2.579279
     56          6           0       -8.931724    1.594105    1.814810
     57          6           0       -9.255546    1.384597    0.348377
     58          6           0       -9.887787    0.011525   -0.124228
     59          6           0      -11.357070    0.279056   -0.452595
     60          6           0      -11.510819    0.804015   -1.852730
     61          6           0      -12.216531   -0.971958   -0.246127
     62          6           0      -13.169600   -0.825774    1.020924
     63          6           0      -14.678421   -0.785495    0.708872
     64          6           0      -15.356959    0.607007    0.861044
     65          6           0      -16.825141    0.483828    1.409163
     66          6           0      -15.310318    1.422691   -0.430355
     67          1           0        2.135817    1.220134   -3.474816
     68          1           0        6.246347    4.794464   -0.287822
     69          1           0        8.075902   -0.167093    3.241576
     70          1           0        2.431670   -3.507217   -2.036256
     71          1           0        0.691083   -1.027399   -2.390491
     72          1           0        2.248445   -2.860111   -4.171252
     73          1           0        2.557275   -1.270124   -4.635578
     74          1           0        0.846972   -1.894253   -4.477471
     75          1           0        0.544767   -1.788002   -0.435508
     76          1           0        1.337489   -3.092550    0.402552
     77          1           0       -0.502670   -4.412620   -0.461385
     78          1           0        0.221062   -4.396775   -1.916801
     79          1           0        2.192993    4.761357   -4.001820
     80          1           0        1.653504    3.078949   -4.047745
     81          1           0        3.067792    3.533053   -4.977401
     82          1           0        6.447492    6.162186   -1.637226
     83          1           0        4.988496    6.559519   -0.573211
     84          1           0        5.418425    7.601378   -1.931209
     85          1           0        7.166243    4.315499    2.527011
     86          1           0        9.114339    2.107316    1.982024
     87          1           0        8.769722    5.477609    1.651678
     88          1           0        8.539663    4.610229    0.146421
     89          1           0        9.739620    3.959543    1.259193
     90          1           0        7.584264    1.802894    4.634000
     91          1           0        7.917523    3.393284    4.397523
     92          1           0        9.670194    1.160567    5.064972
     93          1           0        9.926446    2.888067    5.362367
     94          1           0       10.303175    2.297196    3.748903
     95          1           0        7.402857   -2.290435    4.442988
     96          1           0        8.424617   -3.240180    3.427793
     97          1           0        6.944112   -4.043175    4.074849
     98          1           0        3.229953   -4.675054    0.687306
     99          1           0        4.879541   -4.901302   -3.295877
    100          1           0        6.557837   -5.386978   -2.914907
    101          1           0        6.185163   -3.637507   -3.263171
    102          1           0       -3.681982   -1.929467   -1.934425
    103          1           0       -2.822177   -0.401176   -1.589913
    104          1           0       -3.480713   -1.860655    0.957632
    105          1           0       -5.740540    1.165925   -0.455092
    106          1           0       -6.795730   -0.186905   -0.878347
    107          1           0       -5.195902    0.120379   -1.716739
    108          1           0       -5.439357   -1.654415    2.108893
    109          1           0       -6.904295   -0.924599    1.727561
    110          1           0       -4.977928    1.189263    2.177358
    111          1           0       -4.988764    0.083388    3.546677
    112          1           0       -6.553545    1.470683    4.071028
    113          1           0       -7.494274    0.154118    3.479210
    114          1           0       -6.786798    1.927764    1.320037
    115          1           0       -6.093432    3.345811    2.911896
    116          1           0       -7.837296    3.644302    3.382619
    117          1           0       -7.164417    4.021631    1.655693
    118          1           0       -9.455196    2.427853    2.283932
    119          1           0       -9.194121    0.647670    2.287733
    120          1           0       -8.342571    1.458228   -0.243143
    121          1           0       -9.860375    2.262068    0.119079
    122          1           0       -9.821821   -0.647155    0.742705
    123          1           0       -9.395962   -0.469383   -0.969427
    124          1           0      -11.709861    1.107240    0.162346
    125          1           0      -11.723397    0.097609   -2.654098
    126          1           0      -10.601836    1.288683   -2.210217
    127          1           0      -12.376358    1.448901   -2.001578
    128          1           0      -11.601401   -1.842441   -0.019999
    129          1           0      -12.684030   -1.172139   -1.210446
    130          1           0      -12.938042    0.012938    1.677227
    131          1           0      -12.975487   -1.679306    1.669782
    132          1           0      -15.204542   -1.530033    1.307657
    133          1           0      -14.760612   -1.146002   -0.316980
    134          1           0      -14.723655    1.122489    1.583231
    135          1           0      -17.428108    1.183304    0.830239
    136          1           0      -16.826026    0.722822    2.473525
    137          1           0      -17.261338   -0.508373    1.293539
    138          1           0      -14.783052    0.954433   -1.261206
    139          1           0      -14.763225    2.334465   -0.190037
    140          1           0      -16.326201    1.574496   -0.793735
 ---------------------------------------------------------------------

 SCF Done:  E(RwB97XD) =  -3007.86625020     A.U. after   19 cycles

 Excitation energies and oscillator strengths:

 Excited State   1:      Singlet-A      1.7156 eV  722.68 nm  f=0.3561  <S**2>=0.000
     245 -> 248       -0.19624
     246 -> 247        0.67965
     245 <- 248       -0.11661
 This state for optimization and/or second-order correction.
 Total Energy, E(TD-HF/TD-DFT) =  -3007.80320285
 Copying the excited state density for this state as the 1-particle RhoCI density.

 Excited State   2:      Singlet-A      2.2222 eV  557.93 nm  f=0.0715  <S**2>=0.000
     245 -> 247        0.61786
     246 -> 248        0.33253

 Excited State   3:      Singlet-A      3.5052 eV  353.71 nm  f=0.6536  <S**2>=0.000
     241 -> 247        0.23234
     245 -> 247       -0.29820
     246 -> 248        0.57904
     245 <- 247        0.11165

 Excited State   4:      Singlet-A      3.6569 eV  339.05 nm  f=0.0501  <S**2>=0.000
     239 -> 247       -0.25188
     239 -> 249       -0.18257
     241 -> 247       -0.21281
     243 -> 247        0.52809
     246 -> 248        0.15151

 Excited State   5:      Singlet-A      3.7032 eV  334.81 nm  f=0.0183  <S**2>=0.000
     239 -> 247        0.38928
     239 -> 249        0.28455
     240 -> 247        0.26189
     240 -> 249        0.15619
     241 -> 247       -0.10877
     243 -> 247        0.33573

 The electronic state is 1-A.
 Alpha  occ. eigenvalues --  -46.95950 -19.31294 -19.29774 -19.25682 -19.25300
 Alpha  occ. eigenvalues --  -19.24920 -19.23829 -14.47171 -14.46883 -14.43934
 Alpha  occ. eigenvalues --  -14.43887 -10.44099 -10.43337 -10.39744 -10.38954
 Alpha  occ. eigenvalues --  -10.36809 -10.35687 -10.35501 -10.35211 -10.34987
 Alpha  occ. eigenvalues --  -10.34913 -10.34130 -10.33587 -10.32951 -10.32900
 Alpha  occ. eigenvalues --  -10.32733 -10.32712 -10.32502 -10.32486 -10.32466
 Alpha  occ. eigenvalues --  -10.32250 -10.32241 -10.32223 -10.32017 -10.31395
 Alpha  occ. eigenvalues --  -10.31104 -10.30957 -10.30826 -10.30817 -10.30592
 Alpha  occ. eigenvalues --  -10.30542 -10.30527 -10.30484 -10.30096 -10.29845
 Alpha  occ. eigenvalues --  -10.29694 -10.29635 -10.29599 -10.29441 -10.29394
 Alpha  occ. eigenvalues --  -10.29247 -10.29141 -10.29129 -10.28997 -10.28959
 Alpha  occ. eigenvalues --  -10.28831 -10.28799 -10.28668 -10.28638 -10.28620
 Alpha  occ. eigenvalues --  -10.28479 -10.28256 -10.28083 -10.28055 -10.27953
 Alpha  occ. eigenvalues --  -10.27757  -3.21892  -1.95467  -1.95013  -1.94860
 Alpha  occ. eigenvalues --   -1.19308  -1.18713  -1.12731  -1.12531  -1.10823
 Alpha  occ. eigenvalues --   -1.09821  -1.07678  -1.06677  -1.06426  -1.05434
 Alpha  occ. eigenvalues --   -0.95493  -0.93032  -0.92028  -0.91666  -0.91371
 Alpha  occ. eigenvalues --   -0.90735  -0.90206  -0.89600  -0.89400  -0.89370
 Alpha  occ. eigenvalues --   -0.88264  -0.87385  -0.86690  -0.86245  -0.85776
 Alpha  occ. eigenvalues --   -0.84403  -0.84150  -0.83239  -0.82686  -0.82491
 Alpha  occ. eigenvalues --   -0.81974  -0.80161  -0.79739  -0.78981  -0.78660
 Alpha  occ. eigenvalues --   -0.78032  -0.77567  -0.77042  -0.76942  -0.76155
 Alpha  occ. eigenvalues --   -0.75132  -0.74563  -0.74241  -0.72735  -0.71118
 Alpha  occ. eigenvalues --   -0.70835  -0.70511  -0.69249  -0.68695  -0.68251
 Alpha  occ. eigenvalues --   -0.67744  -0.66972  -0.66813  -0.66598  -0.66488
 Alpha  occ. eigenvalues --   -0.65661  -0.65491  -0.64940  -0.64637  -0.62445
 Alpha  occ. eigenvalues --   -0.62242  -0.62037  -0.61186  -0.60929  -0.60497
 Alpha  occ. eigenvalues --   -0.59871  -0.59643  -0.58556  -0.58331  -0.57786
 Alpha  occ. eigenvalues --   -0.57642  -0.57074  -0.56795  -0.56347  -0.56162
 Alpha  occ. eigenvalues --   -0.55525  -0.55419  -0.55085  -0.54990  -0.54849
 Alpha  occ. eigenvalues --   -0.54537  -0.54291  -0.54041  -0.53825  -0.53770
 Alpha  occ. eigenvalues --   -0.53601  -0.53495  -0.53265  -0.53131  -0.52741
 Alpha  occ. eigenvalues --   -0.52596  -0.52555  -0.52255  -0.52226  -0.52063
 Alpha  occ. eigenvalues --   -0.51899  -0.51614  -0.51282  -0.51251  -0.51081
 Alpha  occ. eigenvalues --   -0.50956  -0.50615  -0.50156  -0.49821  -0.49585
 Alpha  occ. eigenvalues --   -0.49302  -0.49098  -0.48923  -0.48740  -0.48718
 Alpha  occ. eigenvalues --   -0.48630  -0.48306  -0.47982  -0.47883  -0.47806
 Alpha  occ. eigenvalues --   -0.47786  -0.47665  -0.47490  -0.47394  -0.47180
 Alpha  occ. eigenvalues --   -0.47042  -0.46991  -0.46522  -0.46087  -0.45951
 Alpha  occ. eigenvalues --   -0.45717  -0.45649  -0.45532  -0.45361  -0.45275
 Alpha  occ. eigenvalues --   -0.45052  -0.44812  -0.44695  -0.44541  -0.44429
 Alpha  occ. eigenvalues --   -0.44314  -0.43981  -0.43813  -0.43776  -0.43707
 Alpha  occ. eigenvalues --   -0.43425  -0.43050  -0.42573  -0.42503  -0.42086
 Alpha  occ. eigenvalues --   -0.41974  -0.41749  -0.41185  -0.40980  -0.40839
 Alpha  occ. eigenvalues --   -0.40602  -0.40487  -0.40039  -0.39774  -0.39440
 Alpha  occ. eigenvalues --   -0.39296  -0.39250  -0.39000  -0.38887  -0.38752
 Alpha  occ. eigenvalues --   -0.37450  -0.37314  -0.37135  -0.36704  -0.36692
 Alpha  occ. eigenvalues --   -0.36242  -0.35906  -0.35353  -0.33655  -0.33499
 Alpha  occ. eigenvalues --   -0.32906  -0.32703  -0.31982  -0.31888  -0.25947
 Alpha  occ. eigenvalues --   -0.22861
 Alpha virt. eigenvalues --   -0.06503  -0.00128   0.02474   0.04447   0.04578
 Alpha virt. eigenvalues --    0.06251   0.07001   0.07572   0.07909   0.09738
 Alpha virt. eigenvalues --    0.10822   0.11012   0.11676   0.12040   0.12113

 Mulliken charges:
               1
     1  Mg   0.962675
     2  C   -0.051972
     3  C   -0.071047
     4  C   -0.064452
     5  C   -0.134184
     6  N   -0.324441
     7  C    0.002661
     8  C   -0.054479
     9  C   -0.112110
    10  C    0.083996
    11  C    0.001114
    12  C   -0.010862
    13  C    0.058968
    14  C    0.189787
    15  O   -0.283158
    16  O   -0.356839
    17  N   -0.395646
    18  C    0.101325
    19  C   -0.158762
    20  C   -0.097438
    21  C    0.124041
    22  C    0.080604
    23  C    0.039505
    24  O   -0.219609
    25  C   -0.002876
    26  N   -0.358378
    27  C    0.034165
    28  C   -0.087901
    29  C   -0.089458
    30  C    0.073622
    31  C    0.036529
    32  C   -0.031187
    33  C   -0.051167
    34  N   -0.430823
    35  C    0.174555
    36  C   -0.211642
    37  C   -0.023862
    38  C    0.186639
    39  C    0.103105
    40  C    0.105146
    41  O   -0.195248
    42  C   -0.075536
    43  C    0.275200
    44  O   -0.209733
    45  O   -0.395229
    46  C    0.143125
    47  C    0.235068
    48  C   -0.165492
    49  C   -0.203381
    50  C    0.046227
    51  C    0.062561
    52  C   -0.012608
    53  C   -0.021851
    54  C   -0.215457
    55  C    0.005009
    56  C    0.051311
    57  C   -0.039231
    58  C    0.006751
    59  C   -0.177737
    60  C   -0.012597
    61  C    0.040357
    62  C   -0.038389
    63  C    0.011278
    64  C   -0.230401
    65  C    0.002540
    66  C    0.007136
    67  H   -0.014863
    68  H   -0.046865
    69  H   -0.009790
    70  H    0.034560
    71  H    0.068219
    72  H    0.023122
    73  H    0.033286
    74  H    0.057513
    75  H    0.045934
    76  H    0.040030
    77  H    0.055643
    78  H    0.042627
    79  H    0.059305
    80  H    0.032034
    81  H    0.056263
    82  H    0.076649
    83  H    0.061980
    84  H    0.048569
    85  H    0.045947
    86  H    0.044645
    87  H    0.042008
    88  H    0.030694
    89  H    0.036626
    90  H    0.032981
    91  H    0.021337
    92  H    0.046823
    93  H    0.035615
    94  H    0.028444
    95  H    0.034433
    96  H    0.048652
    97  H    0.069958
    98  H    0.069206
    99  H    0.052137
   100  H    0.061877
   101  H    0.055769
   102  H    0.071539
   103  H    0.061591
   104  H    0.032131
   105  H    0.046401
   106  H    0.053296
   107  H    0.028093
   108  H    0.018437
   109  H    0.023657
   110  H    0.020567
   111  H    0.024752
   112  H   -0.001566
   113  H    0.014923
   114  H   -0.008527
   115  H    0.028183
   116  H    0.042141
   117  H    0.043499
   118  H    0.014091
   119  H    0.004356
   120  H    0.003654
   121  H    0.026458
   122  H    0.013904
   123  H    0.032053
   124  H    0.021079
   125  H    0.013661
   126  H    0.021423
   127  H    0.025340
   128  H    0.016916
   129  H    0.014374
   130  H    0.012947
   131  H    0.014445
   132  H    0.012624
   133  H    0.008420
   134  H    0.019764
   135  H    0.022393
   136  H    0.035789
   137  H    0.033095
   138  H    0.022349
   139  H    0.035421
   140  H    0.025138
 Sum of Mulliken charges =  -0.00000

 Dipole moment (field-independent basis, Debye):
    X=              1.3181    Y=              3.1591    Z=              2.3724  Tot=              4.1648
 Quadrupole moment (field-independent basis, Debye-Ang):
   XX=           -352.8928   YY=           -455.9606   ZZ=           -401.7177
   XY=             28.7995   XZ=              3.8244   YZ=             24.3908

 Normal termination of Gaussian 16 at Thu Apr 28 13:39:56 2022.
