 Gaussian 16, Revision A.03,
 Gaussian 16:  ES64L-G16RevA.03 25-Dec-2016

 --------------------
 #p ZINDO=(nstates=5)
 --------------------

 -----------------------------
 step_1551_chromophore_5 ZINDO
 -----------------------------
 Symbolic Z-matrix:
 Charge =  0 Multiplicity = 1

                         Standard orientation:
 ---------------------------------------------------------------------
 Center     Atomic      Atomic             Coordinates (Angstroms)
 Number     Number       Type             X           Y           Z
 ---------------------------------------------------------------------
      1         12           0        5.282271    0.509502   -0.280030
      2          6           0        4.206726   -2.751971   -0.013771
      3          6           0        2.847883    0.986236   -2.680751
      4          6           0        5.858398    3.781395   -0.161805
      5          6           0        7.312303   -0.068035    2.467038
      6          7           0        3.563906   -0.702978   -1.075706
      7          6           0        3.370590   -2.002222   -0.877692
      8          6           0        2.157719   -2.542772   -1.609497
      9          6           0        1.718628   -1.365987   -2.518796
     10          6           0        2.797711   -0.302589   -2.151469
     11          6           0        1.847826   -1.852778   -4.048251
     12          6           0        0.997746   -2.768398   -0.580708
     13          6           0       -0.134986   -3.679122   -1.179148
     14          6           0       -1.313877   -2.877487   -1.742289
     15          8           0       -1.618230   -2.789737   -2.944526
     16          8           0       -1.902735   -2.114597   -0.774776
     17          7           0        4.438209    2.216910   -1.282971
     18          6           0        3.561773    2.161045   -2.346689
     19          6           0        3.396196    3.452510   -2.915411
     20          6           0        4.231318    4.319699   -2.209111
     21          6           0        4.898338    3.434139   -1.142450
     22          6           0        2.530995    3.726195   -4.047714
     23          6           0        4.476814    5.859818   -2.439706
     24          8           0        3.951205    6.483541   -3.340455
     25          6           0        5.440587    6.574650   -1.564476
     26          7           0        6.386431    1.708586    1.020955
     27          6           0        6.571442    3.032766    0.833250
     28          6           0        7.645778    3.652457    1.807867
     29          6           0        8.161672    2.321367    2.465481
     30          6           0        7.177146    1.263241    2.002880
     31          6           0        8.786770    4.485076    1.201041
     32          6           0        8.252916    2.421529    4.033480
     33          6           0        9.650368    2.149715    4.609136
     34          7           0        5.792590   -1.057736    0.972519
     35          6           0        6.597707   -1.153334    2.073433
     36          6           0        6.618777   -2.526784    2.535081
     37          6           0        5.728587   -3.168920    1.724495
     38          6           0        5.205782   -2.242483    0.829476
     39          6           0        7.383568   -3.109670    3.723848
     40          6           0        5.192257   -4.498386    1.421474
     41          8           0        5.491590   -5.600839    1.865817
     42          6           0        4.172947   -4.291385    0.298474
     43          6           0        4.667010   -5.056569   -0.826579
     44          8           0        4.324927   -6.148051   -1.214767
     45          8           0        5.609272   -4.234831   -1.451456
     46          6           0        5.824316   -4.582553   -2.856623
     47          6           0       -3.089572   -1.383106   -1.199780
     48          6           0       -3.945072   -1.333484    0.123833
     49          6           0       -5.111179   -0.651288    0.331816
     50          6           0       -5.756161    0.126698   -0.782047
     51          6           0       -5.833057   -0.731989    1.681552
     52          6           0       -5.520395    0.364150    2.637559
     53          6           0       -6.812743    0.939560    3.154725
     54          6           0       -7.436312    1.943454    2.194499
     55          6           0       -7.126522    3.445640    2.579279
     56          6           0       -8.931724    1.594105    1.814810
     57          6           0       -9.255546    1.384597    0.348377
     58          6           0       -9.887787    0.011525   -0.124228
     59          6           0      -11.357070    0.279056   -0.452595
     60          6           0      -11.510819    0.804015   -1.852730
     61          6           0      -12.216531   -0.971958   -0.246127
     62          6           0      -13.169600   -0.825774    1.020924
     63          6           0      -14.678421   -0.785495    0.708872
     64          6           0      -15.356959    0.607007    0.861044
     65          6           0      -16.825141    0.483828    1.409163
     66          6           0      -15.310318    1.422691   -0.430355
     67          1           0        2.135817    1.220134   -3.474816
     68          1           0        6.246347    4.794464   -0.287822
     69          1           0        8.075902   -0.167093    3.241576
     70          1           0        2.431670   -3.507217   -2.036256
     71          1           0        0.691083   -1.027399   -2.390491
     72          1           0        2.248445   -2.860111   -4.171252
     73          1           0        2.557275   -1.270124   -4.635578
     74          1           0        0.846972   -1.894253   -4.477471
     75          1           0        0.544767   -1.788002   -0.435508
     76          1           0        1.337489   -3.092550    0.402552
     77          1           0       -0.502670   -4.412620   -0.461385
     78          1           0        0.221062   -4.396775   -1.916801
     79          1           0        2.192993    4.761357   -4.001820
     80          1           0        1.653504    3.078949   -4.047745
     81          1           0        3.067792    3.533053   -4.977401
     82          1           0        6.447492    6.162186   -1.637226
     83          1           0        4.988496    6.559519   -0.573211
     84          1           0        5.418425    7.601378   -1.931209
     85          1           0        7.166243    4.315499    2.527011
     86          1           0        9.114339    2.107316    1.982024
     87          1           0        8.769722    5.477609    1.651678
     88          1           0        8.539663    4.610229    0.146421
     89          1           0        9.739620    3.959543    1.259193
     90          1           0        7.584264    1.802894    4.634000
     91          1           0        7.917523    3.393284    4.397523
     92          1           0        9.670194    1.160567    5.064972
     93          1           0        9.926446    2.888067    5.362367
     94          1           0       10.303175    2.297196    3.748903
     95          1           0        7.402857   -2.290435    4.442988
     96          1           0        8.424617   -3.240180    3.427793
     97          1           0        6.944112   -4.043175    4.074849
     98          1           0        3.229953   -4.675054    0.687306
     99          1           0        4.879541   -4.901302   -3.295877
    100          1           0        6.557837   -5.386978   -2.914907
    101          1           0        6.185163   -3.637507   -3.263171
    102          1           0       -3.681982   -1.929467   -1.934425
    103          1           0       -2.822177   -0.401176   -1.589913
    104          1           0       -3.480713   -1.860655    0.957632
    105          1           0       -5.740540    1.165925   -0.455092
    106          1           0       -6.795730   -0.186905   -0.878347
    107          1           0       -5.195902    0.120379   -1.716739
    108          1           0       -5.439357   -1.654415    2.108893
    109          1           0       -6.904295   -0.924599    1.727561
    110          1           0       -4.977928    1.189263    2.177358
    111          1           0       -4.988764    0.083388    3.546677
    112          1           0       -6.553545    1.470683    4.071028
    113          1           0       -7.494274    0.154118    3.479210
    114          1           0       -6.786798    1.927764    1.320037
    115          1           0       -6.093432    3.345811    2.911896
    116          1           0       -7.837296    3.644302    3.382619
    117          1           0       -7.164417    4.021631    1.655693
    118          1           0       -9.455196    2.427853    2.283932
    119          1           0       -9.194121    0.647670    2.287733
    120          1           0       -8.342571    1.458228   -0.243143
    121          1           0       -9.860375    2.262068    0.119079
    122          1           0       -9.821821   -0.647155    0.742705
    123          1           0       -9.395962   -0.469383   -0.969427
    124          1           0      -11.709861    1.107240    0.162346
    125          1           0      -11.723397    0.097609   -2.654098
    126          1           0      -10.601836    1.288683   -2.210217
    127          1           0      -12.376358    1.448901   -2.001578
    128          1           0      -11.601401   -1.842441   -0.019999
    129          1           0      -12.684030   -1.172139   -1.210446
    130          1           0      -12.938042    0.012938    1.677227
    131          1           0      -12.975487   -1.679306    1.669782
    132          1           0      -15.204542   -1.530033    1.307657
    133          1           0      -14.760612   -1.146002   -0.316980
    134          1           0      -14.723655    1.122489    1.583231
    135          1           0      -17.428108    1.183304    0.830239
    136          1           0      -16.826026    0.722822    2.473525
    137          1           0      -17.261338   -0.508373    1.293539
    138          1           0      -14.783052    0.954433   -1.261206
    139          1           0      -14.763225    2.334465   -0.190037
    140          1           0      -16.326201    1.574496   -0.793735
 ---------------------------------------------------------------------

 SCF Done:  E(RZINDO/S) =  -474.579720546     A.U. after   20 cycles

 Excitation energies and oscillator strengths:

 Excited State   1:      Singlet-A      1.2804 eV  968.36 nm  f=0.5616  <S**2>=0.000
     175 ->178         0.20392
     176 ->177         0.65978
 This state for optimization and/or second-order correction.
 Total Energy, E(CIS/TDA) =  -474.532668280
 Copying the excited state density for this state as the 1-particle RhoCI density.

 Excited State   2:      Singlet-A      1.8949 eV  654.31 nm  f=0.0093  <S**2>=0.000
     175 ->177         0.51495
     176 ->178        -0.46369

 Excited State   3:      Singlet-A      2.9482 eV  420.54 nm  f=0.0823  <S**2>=0.000
     168 ->177         0.29094
     168 ->179        -0.41972
     168 ->182         0.10337
     168 ->186        -0.16357
     168 ->187        -0.11117
     168 ->198         0.10733
     169 ->177         0.14498
     169 ->179        -0.18769
     175 ->177        -0.12000
     176 ->178        -0.14369
     176 ->180         0.10493

 Excited State   4:      Singlet-A      2.9657 eV  418.07 nm  f=0.0383  <S**2>=0.000
     176 ->178        -0.10759
     176 ->179        -0.10203
     176 ->180         0.66643

 Excited State   5:      Singlet-A      3.0281 eV  409.45 nm  f=1.2220  <S**2>=0.000
     168 ->179        -0.12253
     173 ->177         0.11052
     175 ->177         0.41288
     176 ->178         0.46352
     176 ->180         0.14580

 The electronic state is 1-A.
 Alpha  occ. eigenvalues --   -1.88422  -1.81991  -1.81588  -1.75096  -1.73943
 Alpha  occ. eigenvalues --   -1.71892  -1.67692  -1.63133  -1.59468  -1.59053
 Alpha  occ. eigenvalues --   -1.55088  -1.50555  -1.49359  -1.48778  -1.46975
 Alpha  occ. eigenvalues --   -1.45412  -1.44069  -1.41787  -1.39664  -1.39616
 Alpha  occ. eigenvalues --   -1.35965  -1.33705  -1.33424  -1.31383  -1.29679
 Alpha  occ. eigenvalues --   -1.28625  -1.27937  -1.23228  -1.19538  -1.18446
 Alpha  occ. eigenvalues --   -1.16080  -1.15409  -1.14881  -1.13968  -1.13433
 Alpha  occ. eigenvalues --   -1.12450  -1.11694  -1.08269  -1.05381  -1.04670
 Alpha  occ. eigenvalues --   -1.01642  -1.01201  -0.98853  -0.98199  -0.96726
 Alpha  occ. eigenvalues --   -0.96425  -0.94714  -0.94277  -0.93773  -0.93492
 Alpha  occ. eigenvalues --   -0.91471  -0.90565  -0.89430  -0.88666  -0.87611
 Alpha  occ. eigenvalues --   -0.87127  -0.85619  -0.84117  -0.83680  -0.81941
 Alpha  occ. eigenvalues --   -0.80954  -0.80054  -0.78376  -0.77782  -0.76347
 Alpha  occ. eigenvalues --   -0.75204  -0.74429  -0.73974  -0.73879  -0.73509
 Alpha  occ. eigenvalues --   -0.72904  -0.72241  -0.71521  -0.71257  -0.70458
 Alpha  occ. eigenvalues --   -0.70043  -0.69442  -0.68933  -0.68335  -0.68196
 Alpha  occ. eigenvalues --   -0.67910  -0.67032  -0.66649  -0.66184  -0.66004
 Alpha  occ. eigenvalues --   -0.65736  -0.64920  -0.64567  -0.64086  -0.63907
 Alpha  occ. eigenvalues --   -0.63361  -0.63068  -0.62859  -0.62654  -0.62417
 Alpha  occ. eigenvalues --   -0.62076  -0.61577  -0.60788  -0.60566  -0.60210
 Alpha  occ. eigenvalues --   -0.59954  -0.59619  -0.59070  -0.58982  -0.58281
 Alpha  occ. eigenvalues --   -0.57708  -0.57357  -0.57074  -0.56657  -0.56620
 Alpha  occ. eigenvalues --   -0.56077  -0.55673  -0.55476  -0.55086  -0.54975
 Alpha  occ. eigenvalues --   -0.54473  -0.54257  -0.53912  -0.53252  -0.53180
 Alpha  occ. eigenvalues --   -0.52671  -0.52444  -0.52179  -0.51824  -0.51423
 Alpha  occ. eigenvalues --   -0.51302  -0.50965  -0.50755  -0.50561  -0.50516
 Alpha  occ. eigenvalues --   -0.50042  -0.49809  -0.49723  -0.49437  -0.49330
 Alpha  occ. eigenvalues --   -0.49121  -0.49011  -0.48550  -0.48312  -0.47831
 Alpha  occ. eigenvalues --   -0.47608  -0.47480  -0.47094  -0.46930  -0.46297
 Alpha  occ. eigenvalues --   -0.46148  -0.45996  -0.45671  -0.45613  -0.45370
 Alpha  occ. eigenvalues --   -0.45035  -0.44998  -0.44885  -0.44581  -0.44370
 Alpha  occ. eigenvalues --   -0.43487  -0.42893  -0.42812  -0.42760  -0.42525
 Alpha  occ. eigenvalues --   -0.42103  -0.41560  -0.41021  -0.39412  -0.39132
 Alpha  occ. eigenvalues --   -0.38650  -0.37650  -0.35802  -0.35461  -0.34991
 Alpha  occ. eigenvalues --   -0.34110  -0.32775  -0.32443  -0.32124  -0.26743
 Alpha  occ. eigenvalues --   -0.21768
 Alpha virt. eigenvalues --   -0.08170  -0.02555  -0.00747   0.00800   0.01146
 Alpha virt. eigenvalues --    0.01413   0.02686   0.02880   0.04620   0.04794
 Alpha virt. eigenvalues --    0.06037   0.06810   0.07098   0.07861   0.07996

 Mulliken charges:
               1
     1  Mg   0.435911
     2  C   -0.067333
     3  C   -0.062189
     4  C   -0.091685
     5  C   -0.067896
     6  N   -0.276107
     7  C    0.143396
     8  C    0.008834
     9  C    0.006770
    10  C    0.094016
    11  C   -0.063400
    12  C   -0.022003
    13  C    0.001274
    14  C    0.468069
    15  O   -0.529454
    16  O   -0.264753
    17  N   -0.300751
    18  C    0.078194
    19  C    0.048124
    20  C   -0.080438
    21  C    0.118360
    22  C   -0.033884
    23  C    0.327782
    24  O   -0.517122
    25  C   -0.029322
    26  N   -0.248438
    27  C    0.104935
    28  C   -0.003527
    29  C    0.004767
    30  C    0.126935
    31  C   -0.054213
    32  C   -0.037366
    33  C   -0.061722
    34  N   -0.330307
    35  C    0.110764
    36  C    0.034480
    37  C   -0.042759
    38  C    0.126847
    39  C   -0.039702
    40  C    0.336186
    41  O   -0.510781
    42  C    0.056276
    43  C    0.499202
    44  O   -0.508540
    45  O   -0.286146
    46  C    0.073058
    47  C    0.104070
    48  C   -0.107611
    49  C   -0.003222
    50  C   -0.044396
    51  C   -0.015548
    52  C   -0.021511
    53  C   -0.029813
    54  C   -0.033341
    55  C   -0.065613
    56  C   -0.035632
    57  C   -0.040236
    58  C   -0.031239
    59  C   -0.002870
    60  C   -0.058000
    61  C   -0.037102
    62  C   -0.040848
    63  C   -0.034756
    64  C   -0.012801
    65  C   -0.059988
    66  C   -0.057199
    67  H    0.020578
    68  H    0.021478
    69  H    0.022174
    70  H    0.043827
    71  H    0.053187
    72  H    0.016421
    73  H    0.023670
    74  H    0.029444
    75  H    0.028438
    76  H    0.027858
    77  H    0.037297
    78  H    0.037378
    79  H    0.036879
    80  H    0.020974
    81  H    0.036695
    82  H    0.046171
    83  H    0.040346
    84  H    0.032041
    85  H    0.034924
    86  H    0.042520
    87  H    0.023909
    88  H    0.018919
    89  H    0.028758
    90  H    0.020889
    91  H    0.014756
    92  H    0.026401
    93  H    0.018662
    94  H    0.021021
    95  H    0.024899
    96  H    0.034564
    97  H    0.046095
    98  H    0.057082
    99  H    0.045461
   100  H    0.049094
   101  H    0.031971
   102  H    0.057522
   103  H    0.052628
   104  H    0.032993
   105  H    0.026375
   106  H    0.033020
   107  H    0.026156
   108  H    0.008749
   109  H    0.032857
   110  H    0.020997
   111  H    0.016412
   112  H    0.000462
   113  H    0.018374
   114  H    0.011436
   115  H    0.022013
   116  H    0.031007
   117  H    0.028070
   118  H    0.021527
   119  H    0.018881
   120  H    0.011893
   121  H    0.020542
   122  H    0.015334
   123  H    0.028693
   124  H    0.023283
   125  H    0.012219
   126  H    0.011676
   127  H    0.013386
   128  H    0.014996
   129  H    0.027374
   130  H    0.022186
   131  H    0.009330
   132  H    0.014054
   133  H    0.015016
   134  H    0.019903
   135  H    0.020356
   136  H    0.018586
   137  H    0.022253
   138  H    0.017054
   139  H    0.018533
   140  H    0.022387
 Sum of Mulliken charges =  -0.00000

 Dipole moment (field-independent basis, Debye):
    X=              2.0989    Y=              3.8942    Z=              4.2025  Tot=              6.1018
 N-N= 4.335055184641D+03 E-N= 0.000000000000D+00  KE=-9.343920448730D+03
 Leave Link  601 at Thu Apr 28 13:52:14 2022, MaxMem=  6710886400 cpu:               1.0 elap:               0.1
 (Enter /sw/apps/gaussian-16.0/g16/l9999.exe)
 1\1\GINC-BP1-COMPUTE159\SP\RZINDO CIS\STO-3G\C55H74Mg1N4O6\OF15641\28-
 Apr-2022\0\\#p ZINDO=(nstates=5)\\step_1551_chromophore_5 ZINDO\\0,1\M
 g,0,24.726,-6.656,46.93\C,0,27.168,-4.381,46.078\C,0,22.636,-5.065,44.
 69\C,0,22.547,-9.146,47.251\C,0,27.13,-8.367,48.745\N,0,24.973,-5.043,
 45.383\C,0,26.015,-4.227,45.269\C,0,25.848,-3.197,44.169\C,0,24.371,-3
 .363,43.727\C,0,23.911,-4.501,44.688\C,0,23.61,-1.976,44.027\C,0,26.73
 ,-3.611,42.942\C,0,26.917,-2.417,41.937\C,0,25.94,-2.468,40.757\O,0,25

 Normal termination of Gaussian 16 at Thu Apr 28 13:52:14 2022.
