 Gaussian 16, Revision A.03,
 Gaussian 16:  ES64L-G16RevA.03 25-Dec-2016

 ------------------------------
 #p blyp/Def2SVP td=(nstates=5)
 ------------------------------

 ---------------------------------------------------
 step_1451_chromophore_12 TDDFT with blyp functional
 ---------------------------------------------------
 Symbolic Z-matrix:
 Charge =  0 Multiplicity = 1

                         Standard orientation:
 ---------------------------------------------------------------------
 Center     Atomic      Atomic             Coordinates (Angstroms)
 Number     Number       Type             X           Y           Z
 ---------------------------------------------------------------------
      1         12           0       -4.145930    0.184375   -0.403161
      2          6           0       -2.709251   -2.865436    0.535184
      3          6           0       -1.072203    1.423920   -0.833694
      4          6           0       -5.593398    3.139653   -0.978787
      5          6           0       -7.363095   -1.180534    0.412351
      6          7           0       -2.104907   -0.690417   -0.127555
      7          6           0       -1.757615   -1.955261    0.176331
      8          6           0       -0.267908   -2.189429   -0.033841
      9          6           0        0.239102   -0.712676   -0.076046
     10          6           0       -0.967791    0.067580   -0.406576
     11          6           0        1.024489   -0.292039    1.232894
     12          6           0       -0.017505   -3.118990   -1.263566
     13          6           0        1.219596   -4.028350   -1.222488
     14          6           0        2.325894   -3.723943   -2.208929
     15          8           0        2.142578   -3.726073   -3.415832
     16          8           0        3.589122   -3.719895   -1.687222
     17          7           0       -3.484655    2.029020   -0.904760
     18          6           0       -2.124754    2.323607   -1.160378
     19          6           0       -2.009616    3.743804   -1.473750
     20          6           0       -3.315958    4.255628   -1.456355
     21          6           0       -4.184530    3.113404   -1.120004
     22          6           0       -0.628270    4.464387   -1.697273
     23          6           0       -3.889751    5.703207   -1.678452
     24          8           0       -5.112634    6.058617   -1.728869
     25          6           0       -2.927226    6.834586   -1.699113
     26          7           0       -6.202324    0.840126   -0.290737
     27          6           0       -6.493444    2.140281   -0.614620
     28          6           0       -8.041591    2.341342   -0.582869
     29          6           0       -8.596849    0.883101   -0.305192
     30          6           0       -7.309355    0.093526   -0.140321
     31          6           0       -8.596965    3.459030    0.262585
     32          6           0       -9.375567    0.132883   -1.449657
     33          6           0      -10.376187    1.017627   -2.252212
     34          7           0       -4.925043   -1.674326    0.367813
     35          6           0       -6.237715   -2.043771    0.652269
     36          6           0       -6.210103   -3.424072    1.265270
     37          6           0       -4.835938   -3.757361    1.172406
     38          6           0       -4.126222   -2.687537    0.618974
     39          6           0       -7.317139   -4.167349    1.941936
     40          6           0       -3.864732   -4.784155    1.568123
     41          8           0       -4.037678   -5.903729    2.130697
     42          6           0       -2.463167   -4.254201    1.125233
     43          6           0       -1.596966   -4.209014    2.264350
     44          8           0       -1.917836   -3.838939    3.362991
     45          8           0       -0.429612   -4.934931    2.018457
     46          6           0        0.634620   -4.791630    3.027011
     47          6           0        4.805528   -3.782053   -2.537271
     48          6           0        6.080654   -3.597597   -1.810794
     49          6           0        7.254125   -3.049805   -2.291622
     50          6           0        7.450802   -2.715052   -3.764496
     51          6           0        8.504064   -2.802298   -1.428089
     52          6           0        9.073611   -1.353776   -1.501603
     53          6           0       10.109675   -1.148966   -0.430255
     54          6           0       10.630278    0.331516   -0.585121
     55          6           0       12.123002    0.353737   -0.999695
     56          6           0       10.282116    1.021117    0.703591
     57          6           0        8.777161    1.425745    0.774762
     58          6           0        8.471631    2.589991    1.687292
     59          6           0        7.248630    3.433891    1.220310
     60          6           0        7.775830    4.609170    0.343288
     61          6           0        6.571088    4.000002    2.474140
     62          6           0        5.216090    3.338773    2.737912
     63          6           0        4.117579    4.328327    3.287574
     64          6           0        2.697154    3.984582    2.730012
     65          6           0        2.251491    4.923807    1.563432
     66          6           0        1.698376    3.983046    3.896649
     67          1           0       -0.092591    1.864223   -1.031617
     68          1           0       -6.149456    4.022853   -1.300477
     69          1           0       -8.324720   -1.515832    0.806023
     70          1           0        0.202591   -2.676377    0.821094
     71          1           0        0.899231   -0.528103   -0.923448
     72          1           0        0.636844   -0.875753    2.068293
     73          1           0        0.941846    0.790662    1.331149
     74          1           0        2.062703   -0.586176    1.081688
     75          1           0        0.140465   -2.472721   -2.128192
     76          1           0       -0.914609   -3.654140   -1.574412
     77          1           0        0.738137   -4.965234   -1.500171
     78          1           0        1.646462   -4.094879   -0.221056
     79          1           0        0.133547    3.705146   -1.872581
     80          1           0       -0.421572    5.037543   -0.793691
     81          1           0       -0.639347    5.063826   -2.607626
     82          1           0       -3.567316    7.707231   -1.828363
     83          1           0       -2.334231    6.675827   -2.599592
     84          1           0       -2.295406    6.815497   -0.811715
     85          1           0       -8.315203    2.574256   -1.611616
     86          1           0       -9.205505    0.929964    0.598144
     87          1           0       -9.361260    3.033030    0.912640
     88          1           0       -9.042480    4.248749   -0.341778
     89          1           0       -7.801116    3.933773    0.836597
     90          1           0       -9.953255   -0.728363   -1.114054
     91          1           0       -8.612288   -0.258048   -2.122291
     92          1           0      -11.236946    0.444029   -2.596267
     93          1           0       -9.901206    1.299674   -3.191992
     94          1           0      -10.535128    1.957009   -1.721652
     95          1           0       -7.616114   -3.898416    2.954740
     96          1           0       -7.056685   -5.221104    2.041026
     97          1           0       -8.257760   -4.002448    1.415092
     98          1           0       -2.001639   -4.889284    0.369880
     99          1           0        0.747375   -3.723175    3.209324
    100          1           0        1.563472   -5.084578    2.537086
    101          1           0        0.408009   -5.267605    3.981579
    102          1           0        4.703423   -3.175232   -3.437753
    103          1           0        4.791815   -4.746175   -3.046325
    104          1           0        5.859340   -3.837907   -0.771256
    105          1           0        6.756322   -3.277407   -4.388444
    106          1           0        8.437769   -3.122888   -3.983637
    107          1           0        7.362313   -1.680802   -4.098134
    108          1           0        9.243781   -3.465964   -1.877327
    109          1           0        8.347865   -3.235713   -0.439863
    110          1           0        8.251296   -0.638958   -1.546533
    111          1           0        9.534608   -1.372144   -2.488961
    112          1           0       10.838945   -1.954936   -0.505657
    113          1           0        9.588596   -1.331736    0.509033
    114          1           0       10.090771    0.867988   -1.365623
    115          1           0       12.252920    0.793654   -1.987956
    116          1           0       12.570764   -0.639394   -0.973362
    117          1           0       12.748259    0.994176   -0.376110
    118          1           0       10.876666    1.932148    0.776666
    119          1           0       10.512688    0.375145    1.551598
    120          1           0        8.217874    0.687724    1.350304
    121          1           0        8.248867    1.423375   -0.179072
    122          1           0        9.371176    3.192592    1.812897
    123          1           0        8.295270    2.157039    2.672009
    124          1           0        6.462964    2.979846    0.616736
    125          1           0        8.426279    4.397941   -0.505502
    126          1           0        8.224996    5.327017    1.030134
    127          1           0        6.965122    5.132583   -0.164866
    128          1           0        6.209509    4.963009    2.113964
    129          1           0        7.209728    4.019689    3.357954
    130          1           0        5.318953    2.562746    3.495755
    131          1           0        4.857657    2.873069    1.820323
    132          1           0        4.335315    5.361535    3.013974
    133          1           0        4.178900    4.422338    4.371090
    134          1           0        2.868094    2.979300    2.344680
    135          1           0        1.374350    5.456187    1.931998
    136          1           0        1.993554    4.354912    0.670114
    137          1           0        3.000360    5.613401    1.173239
    138          1           0        0.766330    4.400896    3.517156
    139          1           0        1.979744    4.425211    4.852092
    140          1           0        1.469424    2.945099    4.140877
 ---------------------------------------------------------------------

 SCF Done:  E(RB-LYP) =  -3007.38603383     A.U. after   22 cycles

 Excitation energies and oscillator strengths:

 Excited State   1:      Singlet-A      1.8049 eV  686.93 nm  f=0.2922  <S**2>=0.000
     245 -> 248        0.15180
     245 -> 249        0.12119
     246 -> 247        0.68637
     246 <- 247       -0.14793
 This state for optimization and/or second-order correction.
 Total Energy, E(TD-HF/TD-DFT) =  -3007.31970518
 Copying the excited state density for this state as the 1-particle RhoCI density.

 Excited State   2:      Singlet-A      1.8633 eV  665.39 nm  f=0.0065  <S**2>=0.000
     244 -> 247        0.70155

 Excited State   3:      Singlet-A      1.9553 eV  634.10 nm  f=0.0256  <S**2>=0.000
     243 -> 247        0.62413
     245 -> 247        0.31219

 Excited State   4:      Singlet-A      2.0074 eV  617.63 nm  f=0.0835  <S**2>=0.000
     243 -> 247       -0.33041
     245 -> 247        0.57567
     246 -> 248       -0.17246
     246 -> 249       -0.13956

 Excited State   5:      Singlet-A      2.2984 eV  539.43 nm  f=0.0000  <S**2>=0.000
     242 -> 247        0.70710

 The electronic state is 1-A.
 Alpha  occ. eigenvalues --  -46.27612 -18.82228 -18.81566 -18.76575 -18.76359
 Alpha  occ. eigenvalues --  -18.76088 -18.75448 -14.03370 -14.02937 -14.01557
 Alpha  occ. eigenvalues --  -14.00891 -10.04261 -10.03213 -10.00624  -9.99629
 Alpha  occ. eigenvalues --   -9.98229  -9.97852  -9.96861  -9.96412  -9.96357
 Alpha  occ. eigenvalues --   -9.96277  -9.96143  -9.96126  -9.95835  -9.94849
 Alpha  occ. eigenvalues --   -9.94657  -9.94496  -9.94438  -9.94242  -9.94150
 Alpha  occ. eigenvalues --   -9.94110  -9.94025  -9.93725  -9.93676  -9.93622
 Alpha  occ. eigenvalues --   -9.93555  -9.93484  -9.93423  -9.93416  -9.93368
 Alpha  occ. eigenvalues --   -9.92861  -9.92792  -9.92760  -9.92690  -9.92539
 Alpha  occ. eigenvalues --   -9.92375  -9.92320  -9.92278  -9.92217  -9.92091
 Alpha  occ. eigenvalues --   -9.91975  -9.91808  -9.91799  -9.91792  -9.91694
 Alpha  occ. eigenvalues --   -9.91594  -9.91452  -9.91291  -9.91229  -9.91173
 Alpha  occ. eigenvalues --   -9.91159  -9.91074  -9.91055  -9.91018  -9.91006
 Alpha  occ. eigenvalues --   -9.90897  -2.92153  -1.72595  -1.72008  -1.71884
 Alpha  occ. eigenvalues --   -0.97631  -0.97425  -0.90019  -0.89468  -0.89451
 Alpha  occ. eigenvalues --   -0.88700  -0.86893  -0.86333  -0.85998  -0.85274
 Alpha  occ. eigenvalues --   -0.75638  -0.74251  -0.73459  -0.73100  -0.72459
 Alpha  occ. eigenvalues --   -0.72200  -0.71685  -0.71303  -0.71115  -0.70460
 Alpha  occ. eigenvalues --   -0.69630  -0.69424  -0.68834  -0.67587  -0.67460
 Alpha  occ. eigenvalues --   -0.66952  -0.66045  -0.65658  -0.65340  -0.64712
 Alpha  occ. eigenvalues --   -0.64550  -0.62892  -0.62759  -0.62082  -0.61107
 Alpha  occ. eigenvalues --   -0.60726  -0.60551  -0.60205  -0.60074  -0.59302
 Alpha  occ. eigenvalues --   -0.58607  -0.57912  -0.57137  -0.55872  -0.54591
 Alpha  occ. eigenvalues --   -0.53964  -0.53767  -0.52802  -0.52445  -0.51484
 Alpha  occ. eigenvalues --   -0.51351  -0.50939  -0.50767  -0.50716  -0.50417
 Alpha  occ. eigenvalues --   -0.50124  -0.50048  -0.49047  -0.48288  -0.47282
 Alpha  occ. eigenvalues --   -0.46760  -0.46551  -0.45752  -0.45274  -0.44929
 Alpha  occ. eigenvalues --   -0.44256  -0.44135  -0.43307  -0.42650  -0.42527
 Alpha  occ. eigenvalues --   -0.42332  -0.42276  -0.41906  -0.41821  -0.41747
 Alpha  occ. eigenvalues --   -0.41347  -0.41057  -0.40798  -0.40444  -0.40123
 Alpha  occ. eigenvalues --   -0.39907  -0.39707  -0.39677  -0.39493  -0.39144
 Alpha  occ. eigenvalues --   -0.39018  -0.38865  -0.38750  -0.38500  -0.38359
 Alpha  occ. eigenvalues --   -0.38319  -0.37936  -0.37880  -0.37810  -0.37715
 Alpha  occ. eigenvalues --   -0.37314  -0.36890  -0.36654  -0.36635  -0.36575
 Alpha  occ. eigenvalues --   -0.36263  -0.36052  -0.35913  -0.35876  -0.35734
 Alpha  occ. eigenvalues --   -0.35543  -0.35261  -0.35192  -0.34801  -0.34703
 Alpha  occ. eigenvalues --   -0.34509  -0.34361  -0.34225  -0.34052  -0.34012
 Alpha  occ. eigenvalues --   -0.33874  -0.33792  -0.33719  -0.33588  -0.33558
 Alpha  occ. eigenvalues --   -0.33194  -0.32614  -0.32476  -0.32363  -0.32329
 Alpha  occ. eigenvalues --   -0.32141  -0.32069  -0.31860  -0.31657  -0.31522
 Alpha  occ. eigenvalues --   -0.31507  -0.31255  -0.31192  -0.31043  -0.30904
 Alpha  occ. eigenvalues --   -0.30728  -0.30595  -0.30314  -0.30022  -0.29772
 Alpha  occ. eigenvalues --   -0.29722  -0.29628  -0.29377  -0.29307  -0.29223
 Alpha  occ. eigenvalues --   -0.29110  -0.28759  -0.28674  -0.28550  -0.28268
 Alpha  occ. eigenvalues --   -0.28126  -0.27665  -0.27587  -0.27142  -0.26867
 Alpha  occ. eigenvalues --   -0.26768  -0.26231  -0.26140  -0.26043  -0.25518
 Alpha  occ. eigenvalues --   -0.25041  -0.25005  -0.24902  -0.23701  -0.23647
 Alpha  occ. eigenvalues --   -0.23319  -0.22613  -0.21932  -0.21600  -0.21256
 Alpha  occ. eigenvalues --   -0.20402  -0.20169  -0.18862  -0.18457  -0.17315
 Alpha  occ. eigenvalues --   -0.16003
 Alpha virt. eigenvalues --   -0.11723  -0.06932  -0.06373  -0.05224  -0.03566
 Alpha virt. eigenvalues --   -0.03110  -0.02955  -0.02166  -0.01552   0.00059
 Alpha virt. eigenvalues --    0.00363   0.01090   0.01305   0.02126   0.02437

 Mulliken charges:
               1
     1  Mg   0.689982
     2  C    0.005342
     3  C   -0.052141
     4  C   -0.034188
     5  C   -0.063483
     6  N   -0.217426
     7  C   -0.107834
     8  C    0.034200
     9  C    0.032130
    10  C    0.004495
    11  C    0.128974
    12  C    0.099840
    13  C    0.172222
    14  C    0.060242
    15  O   -0.201452
    16  O   -0.274364
    17  N   -0.298379
    18  C    0.131406
    19  C   -0.157950
    20  C    0.026607
    21  C    0.096248
    22  C    0.155821
    23  C   -0.048138
    24  O   -0.203401
    25  C    0.143544
    26  N   -0.205138
    27  C   -0.010038
    28  C    0.023403
    29  C   -0.003640
    30  C    0.037183
    31  C    0.156826
    32  C    0.060240
    33  C    0.072285
    34  N   -0.214431
    35  C    0.084409
    36  C   -0.144770
    37  C    0.080000
    38  C    0.060359
    39  C    0.144964
    40  C   -0.014690
    41  O   -0.170769
    42  C    0.133438
    43  C    0.063490
    44  O   -0.149830
    45  O   -0.300545
    46  C    0.227538
    47  C    0.292066
    48  C   -0.081490
    49  C   -0.121454
    50  C    0.125945
    51  C    0.122527
    52  C    0.025001
    53  C    0.129307
    54  C   -0.047804
    55  C    0.125394
    56  C    0.121004
    57  C    0.034649
    58  C    0.125076
    59  C   -0.062665
    60  C    0.088186
    61  C    0.133727
    62  C    0.044503
    63  C    0.075637
    64  C   -0.101521
    65  C    0.102000
    66  C    0.110763
    67  H   -0.071603
    68  H   -0.046301
    69  H   -0.049033
    70  H   -0.036929
    71  H   -0.035975
    72  H    0.009577
    73  H    0.006119
    74  H   -0.001476
    75  H   -0.021195
    76  H   -0.015825
    77  H    0.015897
    78  H   -0.015744
    79  H   -0.007595
    80  H    0.026338
    81  H    0.005161
    82  H    0.001308
    83  H   -0.000045
    84  H    0.015696
    85  H   -0.023757
    86  H   -0.024150
    87  H   -0.016488
    88  H   -0.005990
    89  H   -0.002342
    90  H   -0.014092
    91  H   -0.018050
    92  H   -0.006645
    93  H   -0.014658
    94  H   -0.000086
    95  H    0.005072
    96  H    0.011837
    97  H   -0.013684
    98  H   -0.015752
    99  H   -0.003985
   100  H    0.014694
   101  H    0.030245
   102  H   -0.010707
   103  H   -0.008631
   104  H   -0.037188
   105  H   -0.014941
   106  H   -0.007893
   107  H    0.015366
   108  H   -0.027548
   109  H   -0.040326
   110  H   -0.012485
   111  H   -0.028480
   112  H   -0.034403
   113  H   -0.029565
   114  H   -0.033304
   115  H   -0.019195
   116  H   -0.018169
   117  H   -0.029523
   118  H   -0.039957
   119  H   -0.029924
   120  H   -0.037918
   121  H   -0.020970
   122  H   -0.038121
   123  H   -0.041976
   124  H   -0.041919
   125  H   -0.020855
   126  H   -0.013322
   127  H   -0.028181
   128  H   -0.050412
   129  H   -0.017056
   130  H   -0.030665
   131  H   -0.030506
   132  H   -0.042821
   133  H   -0.038094
   134  H   -0.021968
   135  H   -0.010586
   136  H   -0.018209
   137  H   -0.013803
   138  H   -0.026323
   139  H   -0.001742
   140  H   -0.021652
 Sum of Mulliken charges =  -0.00000

 Dipole moment (field-independent basis, Debye):
    X=              4.6680    Y=              2.8911    Z=             -1.6156  Tot=              5.7236
 Quadrupole moment (field-independent basis, Debye-Ang):
   XX=           -362.2814   YY=           -444.1888   ZZ=           -417.0914
   XY=             -6.9022   XZ=              5.3505   YZ=             10.6741

 Normal termination of Gaussian 16 at Wed May  4 07:27:34 2022.
