 Gaussian 16, Revision A.03,
 Gaussian 16:  ES64L-G16RevA.03 25-Dec-2016

 -----------------------------------
 #p cam-b3lyp/Def2SVP td=(nstates=5)
 -----------------------------------

 --------------------------------------------------------
 step_1451_chromophore_12 TDDFT with cam-b3lyp functional
 --------------------------------------------------------
 Symbolic Z-matrix:
 Charge =  0 Multiplicity = 1

                         Standard orientation:
 ---------------------------------------------------------------------
 Center     Atomic      Atomic             Coordinates (Angstroms)
 Number     Number       Type             X           Y           Z
 ---------------------------------------------------------------------
      1         12           0       -4.145930    0.184375   -0.403161
      2          6           0       -2.709251   -2.865436    0.535184
      3          6           0       -1.072203    1.423920   -0.833694
      4          6           0       -5.593398    3.139653   -0.978787
      5          6           0       -7.363095   -1.180534    0.412351
      6          7           0       -2.104907   -0.690417   -0.127555
      7          6           0       -1.757615   -1.955261    0.176331
      8          6           0       -0.267908   -2.189429   -0.033841
      9          6           0        0.239102   -0.712676   -0.076046
     10          6           0       -0.967791    0.067580   -0.406576
     11          6           0        1.024489   -0.292039    1.232894
     12          6           0       -0.017505   -3.118990   -1.263566
     13          6           0        1.219596   -4.028350   -1.222488
     14          6           0        2.325894   -3.723943   -2.208929
     15          8           0        2.142578   -3.726073   -3.415832
     16          8           0        3.589122   -3.719895   -1.687222
     17          7           0       -3.484655    2.029020   -0.904760
     18          6           0       -2.124754    2.323607   -1.160378
     19          6           0       -2.009616    3.743804   -1.473750
     20          6           0       -3.315958    4.255628   -1.456355
     21          6           0       -4.184530    3.113404   -1.120004
     22          6           0       -0.628270    4.464387   -1.697273
     23          6           0       -3.889751    5.703207   -1.678452
     24          8           0       -5.112634    6.058617   -1.728869
     25          6           0       -2.927226    6.834586   -1.699113
     26          7           0       -6.202324    0.840126   -0.290737
     27          6           0       -6.493444    2.140281   -0.614620
     28          6           0       -8.041591    2.341342   -0.582869
     29          6           0       -8.596849    0.883101   -0.305192
     30          6           0       -7.309355    0.093526   -0.140321
     31          6           0       -8.596965    3.459030    0.262585
     32          6           0       -9.375567    0.132883   -1.449657
     33          6           0      -10.376187    1.017627   -2.252212
     34          7           0       -4.925043   -1.674326    0.367813
     35          6           0       -6.237715   -2.043771    0.652269
     36          6           0       -6.210103   -3.424072    1.265270
     37          6           0       -4.835938   -3.757361    1.172406
     38          6           0       -4.126222   -2.687537    0.618974
     39          6           0       -7.317139   -4.167349    1.941936
     40          6           0       -3.864732   -4.784155    1.568123
     41          8           0       -4.037678   -5.903729    2.130697
     42          6           0       -2.463167   -4.254201    1.125233
     43          6           0       -1.596966   -4.209014    2.264350
     44          8           0       -1.917836   -3.838939    3.362991
     45          8           0       -0.429612   -4.934931    2.018457
     46          6           0        0.634620   -4.791630    3.027011
     47          6           0        4.805528   -3.782053   -2.537271
     48          6           0        6.080654   -3.597597   -1.810794
     49          6           0        7.254125   -3.049805   -2.291622
     50          6           0        7.450802   -2.715052   -3.764496
     51          6           0        8.504064   -2.802298   -1.428089
     52          6           0        9.073611   -1.353776   -1.501603
     53          6           0       10.109675   -1.148966   -0.430255
     54          6           0       10.630278    0.331516   -0.585121
     55          6           0       12.123002    0.353737   -0.999695
     56          6           0       10.282116    1.021117    0.703591
     57          6           0        8.777161    1.425745    0.774762
     58          6           0        8.471631    2.589991    1.687292
     59          6           0        7.248630    3.433891    1.220310
     60          6           0        7.775830    4.609170    0.343288
     61          6           0        6.571088    4.000002    2.474140
     62          6           0        5.216090    3.338773    2.737912
     63          6           0        4.117579    4.328327    3.287574
     64          6           0        2.697154    3.984582    2.730012
     65          6           0        2.251491    4.923807    1.563432
     66          6           0        1.698376    3.983046    3.896649
     67          1           0       -0.092591    1.864223   -1.031617
     68          1           0       -6.149456    4.022853   -1.300477
     69          1           0       -8.324720   -1.515832    0.806023
     70          1           0        0.202591   -2.676377    0.821094
     71          1           0        0.899231   -0.528103   -0.923448
     72          1           0        0.636844   -0.875753    2.068293
     73          1           0        0.941846    0.790662    1.331149
     74          1           0        2.062703   -0.586176    1.081688
     75          1           0        0.140465   -2.472721   -2.128192
     76          1           0       -0.914609   -3.654140   -1.574412
     77          1           0        0.738137   -4.965234   -1.500171
     78          1           0        1.646462   -4.094879   -0.221056
     79          1           0        0.133547    3.705146   -1.872581
     80          1           0       -0.421572    5.037543   -0.793691
     81          1           0       -0.639347    5.063826   -2.607626
     82          1           0       -3.567316    7.707231   -1.828363
     83          1           0       -2.334231    6.675827   -2.599592
     84          1           0       -2.295406    6.815497   -0.811715
     85          1           0       -8.315203    2.574256   -1.611616
     86          1           0       -9.205505    0.929964    0.598144
     87          1           0       -9.361260    3.033030    0.912640
     88          1           0       -9.042480    4.248749   -0.341778
     89          1           0       -7.801116    3.933773    0.836597
     90          1           0       -9.953255   -0.728363   -1.114054
     91          1           0       -8.612288   -0.258048   -2.122291
     92          1           0      -11.236946    0.444029   -2.596267
     93          1           0       -9.901206    1.299674   -3.191992
     94          1           0      -10.535128    1.957009   -1.721652
     95          1           0       -7.616114   -3.898416    2.954740
     96          1           0       -7.056685   -5.221104    2.041026
     97          1           0       -8.257760   -4.002448    1.415092
     98          1           0       -2.001639   -4.889284    0.369880
     99          1           0        0.747375   -3.723175    3.209324
    100          1           0        1.563472   -5.084578    2.537086
    101          1           0        0.408009   -5.267605    3.981579
    102          1           0        4.703423   -3.175232   -3.437753
    103          1           0        4.791815   -4.746175   -3.046325
    104          1           0        5.859340   -3.837907   -0.771256
    105          1           0        6.756322   -3.277407   -4.388444
    106          1           0        8.437769   -3.122888   -3.983637
    107          1           0        7.362313   -1.680802   -4.098134
    108          1           0        9.243781   -3.465964   -1.877327
    109          1           0        8.347865   -3.235713   -0.439863
    110          1           0        8.251296   -0.638958   -1.546533
    111          1           0        9.534608   -1.372144   -2.488961
    112          1           0       10.838945   -1.954936   -0.505657
    113          1           0        9.588596   -1.331736    0.509033
    114          1           0       10.090771    0.867988   -1.365623
    115          1           0       12.252920    0.793654   -1.987956
    116          1           0       12.570764   -0.639394   -0.973362
    117          1           0       12.748259    0.994176   -0.376110
    118          1           0       10.876666    1.932148    0.776666
    119          1           0       10.512688    0.375145    1.551598
    120          1           0        8.217874    0.687724    1.350304
    121          1           0        8.248867    1.423375   -0.179072
    122          1           0        9.371176    3.192592    1.812897
    123          1           0        8.295270    2.157039    2.672009
    124          1           0        6.462964    2.979846    0.616736
    125          1           0        8.426279    4.397941   -0.505502
    126          1           0        8.224996    5.327017    1.030134
    127          1           0        6.965122    5.132583   -0.164866
    128          1           0        6.209509    4.963009    2.113964
    129          1           0        7.209728    4.019689    3.357954
    130          1           0        5.318953    2.562746    3.495755
    131          1           0        4.857657    2.873069    1.820323
    132          1           0        4.335315    5.361535    3.013974
    133          1           0        4.178900    4.422338    4.371090
    134          1           0        2.868094    2.979300    2.344680
    135          1           0        1.374350    5.456187    1.931998
    136          1           0        1.993554    4.354912    0.670114
    137          1           0        3.000360    5.613401    1.173239
    138          1           0        0.766330    4.400896    3.517156
    139          1           0        1.979744    4.425211    4.852092
    140          1           0        1.469424    2.945099    4.140877
 ---------------------------------------------------------------------

 SCF Done:  E(RCAM-B3LYP) =  -3007.17576290     A.U. after   18 cycles

 Excitation energies and oscillator strengths:

 Excited State   1:      Singlet-A      1.7025 eV  728.26 nm  f=0.3857  <S**2>=0.000
     245 -> 248       -0.18187
     246 -> 247        0.68539
     245 <- 248       -0.10915
 This state for optimization and/or second-order correction.
 Total Energy, E(TD-HF/TD-DFT) =  -3007.11319856
 Copying the excited state density for this state as the 1-particle RhoCI density.

 Excited State   2:      Singlet-A      2.2173 eV  559.16 nm  f=0.1314  <S**2>=0.000
     245 -> 247        0.64684
     246 -> 248        0.27683

 Excited State   3:      Singlet-A      3.3650 eV  368.45 nm  f=0.0014  <S**2>=0.000
     241 -> 247        0.43095
     241 -> 249        0.24256
     241 -> 250       -0.21181
     242 -> 247       -0.14063
     243 -> 247        0.40647

 Excited State   4:      Singlet-A      3.3923 eV  365.48 nm  f=0.0015  <S**2>=0.000
     241 -> 247       -0.36188
     241 -> 249       -0.16480
     241 -> 250        0.13877
     243 -> 247        0.54380

 Excited State   5:      Singlet-A      3.5876 eV  345.59 nm  f=0.2302  <S**2>=0.000
     240 -> 247        0.38373
     240 -> 249       -0.29338
     240 -> 250       -0.21078
     242 -> 247        0.17620
     245 -> 247        0.15110
     246 -> 248       -0.35957

 The electronic state is 1-A.
 Alpha  occ. eigenvalues --  -46.89192 -19.25097 -19.24649 -19.19860 -19.19374
 Alpha  occ. eigenvalues --  -19.19262 -19.18760 -14.42363 -14.41706 -14.40059
 Alpha  occ. eigenvalues --  -14.39334 -10.39579 -10.38740 -10.35945 -10.35168
 Alpha  occ. eigenvalues --  -10.32302 -10.31987 -10.31288 -10.30853 -10.30682
 Alpha  occ. eigenvalues --  -10.30670 -10.30614 -10.30549 -10.30165 -10.29483
 Alpha  occ. eigenvalues --  -10.28887 -10.28788 -10.28785 -10.28454 -10.28410
 Alpha  occ. eigenvalues --  -10.28110 -10.28002 -10.27995 -10.27898 -10.27876
 Alpha  occ. eigenvalues --  -10.27840 -10.27636 -10.27546 -10.27249 -10.27157
 Alpha  occ. eigenvalues --  -10.26920 -10.26722 -10.26513 -10.26467 -10.26291
 Alpha  occ. eigenvalues --  -10.26129 -10.26054 -10.26041 -10.25988 -10.25915
 Alpha  occ. eigenvalues --  -10.25760 -10.25737 -10.25409 -10.25405 -10.25381
 Alpha  occ. eigenvalues --  -10.25341 -10.25267 -10.25135 -10.24922 -10.24893
 Alpha  occ. eigenvalues --  -10.24772 -10.24756 -10.24694 -10.24649 -10.24599
 Alpha  occ. eigenvalues --  -10.24542  -3.17635  -1.92555  -1.92059  -1.91960
 Alpha  occ. eigenvalues --   -1.16164  -1.16098  -1.08124  -1.07719  -1.07332
 Alpha  occ. eigenvalues --   -1.07069  -1.04681  -1.03977  -1.03654  -1.02821
 Alpha  occ. eigenvalues --   -0.92884  -0.91133  -0.90289  -0.89890  -0.89185
 Alpha  occ. eigenvalues --   -0.88924  -0.88286  -0.87911  -0.87719  -0.87099
 Alpha  occ. eigenvalues --   -0.86028  -0.86006  -0.85142  -0.83813  -0.83604
 Alpha  occ. eigenvalues --   -0.83079  -0.82163  -0.81639  -0.81248  -0.80570
 Alpha  occ. eigenvalues --   -0.80380  -0.78600  -0.78477  -0.77613  -0.76584
 Alpha  occ. eigenvalues --   -0.76091  -0.75939  -0.75514  -0.75372  -0.74562
 Alpha  occ. eigenvalues --   -0.73647  -0.72947  -0.72046  -0.70669  -0.69202
 Alpha  occ. eigenvalues --   -0.68523  -0.68352  -0.67209  -0.66755  -0.65741
 Alpha  occ. eigenvalues --   -0.65592  -0.64993  -0.64797  -0.64757  -0.64264
 Alpha  occ. eigenvalues --   -0.64123  -0.63998  -0.62955  -0.62111  -0.60816
 Alpha  occ. eigenvalues --   -0.60432  -0.60143  -0.59278  -0.58751  -0.58622
 Alpha  occ. eigenvalues --   -0.57733  -0.57459  -0.56406  -0.55735  -0.55512
 Alpha  occ. eigenvalues --   -0.55407  -0.55283  -0.55048  -0.54787  -0.54562
 Alpha  occ. eigenvalues --   -0.54403  -0.54318  -0.53360  -0.53120  -0.52887
 Alpha  occ. eigenvalues --   -0.52814  -0.52543  -0.52463  -0.52225  -0.51695
 Alpha  occ. eigenvalues --   -0.51547  -0.51422  -0.51254  -0.50924  -0.50778
 Alpha  occ. eigenvalues --   -0.50587  -0.50480  -0.50250  -0.50110  -0.49905
 Alpha  occ. eigenvalues --   -0.49581  -0.49343  -0.49086  -0.48950  -0.48680
 Alpha  occ. eigenvalues --   -0.48513  -0.48399  -0.48274  -0.48027  -0.47938
 Alpha  occ. eigenvalues --   -0.47739  -0.47598  -0.47107  -0.46707  -0.46620
 Alpha  occ. eigenvalues --   -0.46532  -0.46133  -0.46059  -0.45970  -0.45725
 Alpha  occ. eigenvalues --   -0.45610  -0.45549  -0.45542  -0.45491  -0.45198
 Alpha  occ. eigenvalues --   -0.44999  -0.44503  -0.44374  -0.44056  -0.43894
 Alpha  occ. eigenvalues --   -0.43851  -0.43722  -0.43297  -0.43249  -0.43059
 Alpha  occ. eigenvalues --   -0.42993  -0.42551  -0.42522  -0.42431  -0.42367
 Alpha  occ. eigenvalues --   -0.42224  -0.42114  -0.41914  -0.41510  -0.41447
 Alpha  occ. eigenvalues --   -0.41150  -0.40740  -0.40700  -0.40472  -0.40331
 Alpha  occ. eigenvalues --   -0.40188  -0.39786  -0.39700  -0.39623  -0.39306
 Alpha  occ. eigenvalues --   -0.39005  -0.38510  -0.38494  -0.38241  -0.37978
 Alpha  occ. eigenvalues --   -0.37491  -0.37237  -0.37034  -0.36858  -0.36785
 Alpha  occ. eigenvalues --   -0.36452  -0.35742  -0.35470  -0.34631  -0.34287
 Alpha  occ. eigenvalues --   -0.34015  -0.33943  -0.33009  -0.31847  -0.31152
 Alpha  occ. eigenvalues --   -0.30773  -0.30618  -0.29719  -0.29680  -0.24061
 Alpha  occ. eigenvalues --   -0.21301
 Alpha virt. eigenvalues --   -0.08890  -0.01610  -0.00013   0.01702   0.02942
 Alpha virt. eigenvalues --    0.04013   0.04253   0.04630   0.05230   0.06021
 Alpha virt. eigenvalues --    0.06958   0.07614   0.08151   0.08615   0.08777

 Mulliken charges:
               1
     1  Mg   0.823039
     2  C   -0.023858
     3  C   -0.065818
     4  C   -0.055573
     5  C   -0.068769
     6  N   -0.284426
     7  C   -0.070930
     8  C   -0.010338
     9  C   -0.025893
    10  C    0.021000
    11  C    0.081330
    12  C    0.046089
    13  C    0.097038
    14  C    0.146548
    15  O   -0.241623
    16  O   -0.343466
    17  N   -0.386791
    18  C    0.136111
    19  C   -0.162829
    20  C   -0.044647
    21  C    0.121286
    22  C    0.108891
    23  C    0.036847
    24  O   -0.245239
    25  C    0.060048
    26  N   -0.279506
    27  C    0.014780
    28  C   -0.033595
    29  C   -0.056586
    30  C    0.052273
    31  C    0.093352
    32  C    0.009171
    33  C    0.008386
    34  N   -0.303601
    35  C    0.090164
    36  C   -0.137595
    37  C   -0.002127
    38  C    0.106101
    39  C    0.094565
    40  C    0.086321
    41  O   -0.208076
    42  C    0.049335
    43  C    0.154799
    44  O   -0.184192
    45  O   -0.364019
    46  C    0.186996
    47  C    0.260277
    48  C   -0.103632
    49  C   -0.141003
    50  C    0.060868
    51  C    0.067053
    52  C   -0.025076
    53  C    0.072208
    54  C   -0.109121
    55  C    0.067633
    56  C    0.066873
    57  C   -0.015692
    58  C    0.074564
    59  C   -0.121038
    60  C    0.032329
    61  C    0.070439
    62  C   -0.004346
    63  C    0.026182
    64  C   -0.159670
    65  C    0.047024
    66  C    0.050813
    67  H   -0.039759
    68  H   -0.004925
    69  H   -0.014013
    70  H   -0.005634
    71  H   -0.000467
    72  H    0.029455
    73  H    0.026891
    74  H    0.022430
    75  H    0.013012
    76  H    0.016587
    77  H    0.049064
    78  H    0.016784
    79  H    0.017775
    80  H    0.048513
    81  H    0.030397
    82  H    0.036778
    83  H    0.025404
    84  H    0.042049
    85  H    0.011671
    86  H    0.010559
    87  H    0.007550
    88  H    0.018693
    89  H    0.024552
    90  H    0.013700
    91  H    0.011919
    92  H    0.018832
    93  H    0.008808
    94  H    0.020750
    95  H    0.032337
    96  H    0.039322
    97  H    0.009894
    98  H    0.029981
    99  H    0.016681
   100  H    0.037550
   101  H    0.055848
   102  H    0.019189
   103  H    0.019884
   104  H   -0.000536
   105  H    0.009990
   106  H    0.016392
   107  H    0.039964
   108  H    0.001232
   109  H   -0.009520
   110  H    0.012877
   111  H   -0.001905
   112  H   -0.004837
   113  H   -0.001721
   114  H   -0.000404
   115  H    0.005216
   116  H    0.005659
   117  H   -0.003799
   118  H   -0.011564
   119  H   -0.001326
   120  H   -0.010087
   121  H    0.003241
   122  H   -0.009996
   123  H   -0.012810
   124  H   -0.009310
   125  H    0.004254
   126  H    0.010087
   127  H   -0.003963
   128  H   -0.019361
   129  H    0.011554
   130  H   -0.002802
   131  H   -0.005097
   132  H   -0.014731
   133  H   -0.008290
   134  H    0.006839
   135  H    0.011381
   136  H    0.001347
   137  H    0.009759
   138  H   -0.001924
   139  H    0.021624
   140  H    0.002847
 Sum of Mulliken charges =  -0.00000

 Dipole moment (field-independent basis, Debye):
    X=              4.9073    Y=              3.1143    Z=             -1.6663  Tot=              6.0463
 Quadrupole moment (field-independent basis, Debye-Ang):
   XX=           -361.6206   YY=           -441.6761   ZZ=           -417.2013
   XY=             -6.5313   XZ=              5.3586   YZ=              9.5814

 Normal termination of Gaussian 16 at Wed May  4 06:22:19 2022.
