 Gaussian 16, Revision A.03,
 Gaussian 16:  ES64L-G16RevA.03 25-Dec-2016

 ---------------------------------
 #p PBE1PBE/Def2SVP td=(nstates=5)
 ---------------------------------

 ------------------------------------------------------
 step_1451_chromophore_12 TDDFT with PBE1PBE functional
 ------------------------------------------------------
 Symbolic Z-matrix:
 Charge =  0 Multiplicity = 1

                         Standard orientation:
 ---------------------------------------------------------------------
 Center     Atomic      Atomic             Coordinates (Angstroms)
 Number     Number       Type             X           Y           Z
 ---------------------------------------------------------------------
      1         12           0       -4.145930    0.184375   -0.403161
      2          6           0       -2.709251   -2.865436    0.535184
      3          6           0       -1.072203    1.423920   -0.833694
      4          6           0       -5.593398    3.139653   -0.978787
      5          6           0       -7.363095   -1.180534    0.412351
      6          7           0       -2.104907   -0.690417   -0.127555
      7          6           0       -1.757615   -1.955261    0.176331
      8          6           0       -0.267908   -2.189429   -0.033841
      9          6           0        0.239102   -0.712676   -0.076046
     10          6           0       -0.967791    0.067580   -0.406576
     11          6           0        1.024489   -0.292039    1.232894
     12          6           0       -0.017505   -3.118990   -1.263566
     13          6           0        1.219596   -4.028350   -1.222488
     14          6           0        2.325894   -3.723943   -2.208929
     15          8           0        2.142578   -3.726073   -3.415832
     16          8           0        3.589122   -3.719895   -1.687222
     17          7           0       -3.484655    2.029020   -0.904760
     18          6           0       -2.124754    2.323607   -1.160378
     19          6           0       -2.009616    3.743804   -1.473750
     20          6           0       -3.315958    4.255628   -1.456355
     21          6           0       -4.184530    3.113404   -1.120004
     22          6           0       -0.628270    4.464387   -1.697273
     23          6           0       -3.889751    5.703207   -1.678452
     24          8           0       -5.112634    6.058617   -1.728869
     25          6           0       -2.927226    6.834586   -1.699113
     26          7           0       -6.202324    0.840126   -0.290737
     27          6           0       -6.493444    2.140281   -0.614620
     28          6           0       -8.041591    2.341342   -0.582869
     29          6           0       -8.596849    0.883101   -0.305192
     30          6           0       -7.309355    0.093526   -0.140321
     31          6           0       -8.596965    3.459030    0.262585
     32          6           0       -9.375567    0.132883   -1.449657
     33          6           0      -10.376187    1.017627   -2.252212
     34          7           0       -4.925043   -1.674326    0.367813
     35          6           0       -6.237715   -2.043771    0.652269
     36          6           0       -6.210103   -3.424072    1.265270
     37          6           0       -4.835938   -3.757361    1.172406
     38          6           0       -4.126222   -2.687537    0.618974
     39          6           0       -7.317139   -4.167349    1.941936
     40          6           0       -3.864732   -4.784155    1.568123
     41          8           0       -4.037678   -5.903729    2.130697
     42          6           0       -2.463167   -4.254201    1.125233
     43          6           0       -1.596966   -4.209014    2.264350
     44          8           0       -1.917836   -3.838939    3.362991
     45          8           0       -0.429612   -4.934931    2.018457
     46          6           0        0.634620   -4.791630    3.027011
     47          6           0        4.805528   -3.782053   -2.537271
     48          6           0        6.080654   -3.597597   -1.810794
     49          6           0        7.254125   -3.049805   -2.291622
     50          6           0        7.450802   -2.715052   -3.764496
     51          6           0        8.504064   -2.802298   -1.428089
     52          6           0        9.073611   -1.353776   -1.501603
     53          6           0       10.109675   -1.148966   -0.430255
     54          6           0       10.630278    0.331516   -0.585121
     55          6           0       12.123002    0.353737   -0.999695
     56          6           0       10.282116    1.021117    0.703591
     57          6           0        8.777161    1.425745    0.774762
     58          6           0        8.471631    2.589991    1.687292
     59          6           0        7.248630    3.433891    1.220310
     60          6           0        7.775830    4.609170    0.343288
     61          6           0        6.571088    4.000002    2.474140
     62          6           0        5.216090    3.338773    2.737912
     63          6           0        4.117579    4.328327    3.287574
     64          6           0        2.697154    3.984582    2.730012
     65          6           0        2.251491    4.923807    1.563432
     66          6           0        1.698376    3.983046    3.896649
     67          1           0       -0.092591    1.864223   -1.031617
     68          1           0       -6.149456    4.022853   -1.300477
     69          1           0       -8.324720   -1.515832    0.806023
     70          1           0        0.202591   -2.676377    0.821094
     71          1           0        0.899231   -0.528103   -0.923448
     72          1           0        0.636844   -0.875753    2.068293
     73          1           0        0.941846    0.790662    1.331149
     74          1           0        2.062703   -0.586176    1.081688
     75          1           0        0.140465   -2.472721   -2.128192
     76          1           0       -0.914609   -3.654140   -1.574412
     77          1           0        0.738137   -4.965234   -1.500171
     78          1           0        1.646462   -4.094879   -0.221056
     79          1           0        0.133547    3.705146   -1.872581
     80          1           0       -0.421572    5.037543   -0.793691
     81          1           0       -0.639347    5.063826   -2.607626
     82          1           0       -3.567316    7.707231   -1.828363
     83          1           0       -2.334231    6.675827   -2.599592
     84          1           0       -2.295406    6.815497   -0.811715
     85          1           0       -8.315203    2.574256   -1.611616
     86          1           0       -9.205505    0.929964    0.598144
     87          1           0       -9.361260    3.033030    0.912640
     88          1           0       -9.042480    4.248749   -0.341778
     89          1           0       -7.801116    3.933773    0.836597
     90          1           0       -9.953255   -0.728363   -1.114054
     91          1           0       -8.612288   -0.258048   -2.122291
     92          1           0      -11.236946    0.444029   -2.596267
     93          1           0       -9.901206    1.299674   -3.191992
     94          1           0      -10.535128    1.957009   -1.721652
     95          1           0       -7.616114   -3.898416    2.954740
     96          1           0       -7.056685   -5.221104    2.041026
     97          1           0       -8.257760   -4.002448    1.415092
     98          1           0       -2.001639   -4.889284    0.369880
     99          1           0        0.747375   -3.723175    3.209324
    100          1           0        1.563472   -5.084578    2.537086
    101          1           0        0.408009   -5.267605    3.981579
    102          1           0        4.703423   -3.175232   -3.437753
    103          1           0        4.791815   -4.746175   -3.046325
    104          1           0        5.859340   -3.837907   -0.771256
    105          1           0        6.756322   -3.277407   -4.388444
    106          1           0        8.437769   -3.122888   -3.983637
    107          1           0        7.362313   -1.680802   -4.098134
    108          1           0        9.243781   -3.465964   -1.877327
    109          1           0        8.347865   -3.235713   -0.439863
    110          1           0        8.251296   -0.638958   -1.546533
    111          1           0        9.534608   -1.372144   -2.488961
    112          1           0       10.838945   -1.954936   -0.505657
    113          1           0        9.588596   -1.331736    0.509033
    114          1           0       10.090771    0.867988   -1.365623
    115          1           0       12.252920    0.793654   -1.987956
    116          1           0       12.570764   -0.639394   -0.973362
    117          1           0       12.748259    0.994176   -0.376110
    118          1           0       10.876666    1.932148    0.776666
    119          1           0       10.512688    0.375145    1.551598
    120          1           0        8.217874    0.687724    1.350304
    121          1           0        8.248867    1.423375   -0.179072
    122          1           0        9.371176    3.192592    1.812897
    123          1           0        8.295270    2.157039    2.672009
    124          1           0        6.462964    2.979846    0.616736
    125          1           0        8.426279    4.397941   -0.505502
    126          1           0        8.224996    5.327017    1.030134
    127          1           0        6.965122    5.132583   -0.164866
    128          1           0        6.209509    4.963009    2.113964
    129          1           0        7.209728    4.019689    3.357954
    130          1           0        5.318953    2.562746    3.495755
    131          1           0        4.857657    2.873069    1.820323
    132          1           0        4.335315    5.361535    3.013974
    133          1           0        4.178900    4.422338    4.371090
    134          1           0        2.868094    2.979300    2.344680
    135          1           0        1.374350    5.456187    1.931998
    136          1           0        1.993554    4.354912    0.670114
    137          1           0        3.000360    5.613401    1.173239
    138          1           0        0.766330    4.400896    3.517156
    139          1           0        1.979744    4.425211    4.852092
    140          1           0        1.469424    2.945099    4.140877
 ---------------------------------------------------------------------

 SCF Done:  E(RPBE1PBE) =  -3005.36471795     A.U. after   15 cycles

 Excitation energies and oscillator strengths:

 Excited State   1:      Singlet-A      1.8597 eV  666.69 nm  f=0.3716  <S**2>=0.000
     245 -> 248        0.16999
     246 -> 247        0.69310
     246 <- 247       -0.10738
 This state for optimization and/or second-order correction.
 Total Energy, E(TD-HF/TD-DFT) =  -3005.29637562
 Copying the excited state density for this state as the 1-particle RhoCI density.

 Excited State   2:      Singlet-A      2.2177 eV  559.07 nm  f=0.1297  <S**2>=0.000
     245 -> 247        0.65789
     246 -> 248       -0.24583

 Excited State   3:      Singlet-A      2.9068 eV  426.53 nm  f=0.0001  <S**2>=0.000
     242 -> 247        0.62352
     242 -> 249       -0.15541
     242 -> 250        0.12810
     243 -> 247        0.24945

 Excited State   4:      Singlet-A      3.0596 eV  405.23 nm  f=0.0048  <S**2>=0.000
     242 -> 247       -0.25125
     243 -> 247        0.64158

 Excited State   5:      Singlet-A      3.1030 eV  399.57 nm  f=0.0003  <S**2>=0.000
     241 -> 247        0.65482
     241 -> 249        0.18924
     241 -> 250        0.11572

 The electronic state is 1-A.
 Alpha  occ. eigenvalues --  -46.92583 -19.25802 -19.25246 -19.19975 -19.19645
 Alpha  occ. eigenvalues --  -19.19559 -19.18952 -14.41833 -14.41259 -14.39701
 Alpha  occ. eigenvalues --  -14.38966 -10.36611 -10.35667 -10.33146 -10.32288
 Alpha  occ. eigenvalues --  -10.29700 -10.29174 -10.29069 -10.28530 -10.28495
 Alpha  occ. eigenvalues --  -10.28450 -10.28316 -10.28246 -10.27846 -10.27207
 Alpha  occ. eigenvalues --  -10.26595 -10.26543 -10.26412 -10.26255 -10.26086
 Alpha  occ. eigenvalues --  -10.25668 -10.25659 -10.25625 -10.25558 -10.25496
 Alpha  occ. eigenvalues --  -10.25402 -10.25386 -10.25258 -10.25085 -10.24644
 Alpha  occ. eigenvalues --  -10.24587 -10.24257 -10.24170 -10.23994 -10.23865
 Alpha  occ. eigenvalues --  -10.23777 -10.23702 -10.23635 -10.23469 -10.23442
 Alpha  occ. eigenvalues --  -10.23304 -10.23281 -10.23063 -10.22935 -10.22867
 Alpha  occ. eigenvalues --  -10.22865 -10.22698 -10.22681 -10.22476 -10.22448
 Alpha  occ. eigenvalues --  -10.22367 -10.22186 -10.22162 -10.22121 -10.22103
 Alpha  occ. eigenvalues --  -10.22002  -3.14610  -1.87471  -1.86952  -1.86858
 Alpha  occ. eigenvalues --   -1.10918  -1.10836  -1.02866  -1.02452  -1.02206
 Alpha  occ. eigenvalues --   -1.01740  -0.99291  -0.98660  -0.98296  -0.97491
 Alpha  occ. eigenvalues --   -0.87189  -0.85234  -0.84415  -0.84096  -0.83326
 Alpha  occ. eigenvalues --   -0.83243  -0.82590  -0.82071  -0.82006  -0.81405
 Alpha  occ. eigenvalues --   -0.80301  -0.80277  -0.79343  -0.78096  -0.77828
 Alpha  occ. eigenvalues --   -0.77323  -0.76389  -0.75862  -0.75513  -0.74921
 Alpha  occ. eigenvalues --   -0.74537  -0.72869  -0.72745  -0.71919  -0.70893
 Alpha  occ. eigenvalues --   -0.70243  -0.70044  -0.69874  -0.69524  -0.68740
 Alpha  occ. eigenvalues --   -0.67998  -0.67388  -0.66471  -0.65013  -0.63541
 Alpha  occ. eigenvalues --   -0.62904  -0.62692  -0.61652  -0.60982  -0.60218
 Alpha  occ. eigenvalues --   -0.59786  -0.59512  -0.59365  -0.58916  -0.58661
 Alpha  occ. eigenvalues --   -0.58578  -0.58260  -0.57187  -0.56631  -0.55228
 Alpha  occ. eigenvalues --   -0.54920  -0.54756  -0.53861  -0.53312  -0.53090
 Alpha  occ. eigenvalues --   -0.52276  -0.51974  -0.51029  -0.50326  -0.49966
 Alpha  occ. eigenvalues --   -0.49799  -0.49641  -0.49486  -0.49237  -0.49027
 Alpha  occ. eigenvalues --   -0.48883  -0.48810  -0.47836  -0.47649  -0.47443
 Alpha  occ. eigenvalues --   -0.47370  -0.47098  -0.47034  -0.46794  -0.46240
 Alpha  occ. eigenvalues --   -0.46081  -0.45989  -0.45796  -0.45476  -0.45329
 Alpha  occ. eigenvalues --   -0.45142  -0.45033  -0.44821  -0.44713  -0.44474
 Alpha  occ. eigenvalues --   -0.44194  -0.43904  -0.43672  -0.43551  -0.43245
 Alpha  occ. eigenvalues --   -0.43124  -0.43023  -0.42928  -0.42712  -0.42585
 Alpha  occ. eigenvalues --   -0.42427  -0.42261  -0.41713  -0.41414  -0.41307
 Alpha  occ. eigenvalues --   -0.41235  -0.40846  -0.40789  -0.40711  -0.40468
 Alpha  occ. eigenvalues --   -0.40348  -0.40296  -0.40272  -0.40119  -0.39854
 Alpha  occ. eigenvalues --   -0.39766  -0.39267  -0.39129  -0.38820  -0.38598
 Alpha  occ. eigenvalues --   -0.38581  -0.38483  -0.38102  -0.37980  -0.37939
 Alpha  occ. eigenvalues --   -0.37800  -0.37402  -0.37263  -0.37202  -0.37062
 Alpha  occ. eigenvalues --   -0.37028  -0.36963  -0.36757  -0.36324  -0.36239
 Alpha  occ. eigenvalues --   -0.36017  -0.35615  -0.35510  -0.35376  -0.35188
 Alpha  occ. eigenvalues --   -0.35099  -0.34626  -0.34495  -0.34465  -0.34218
 Alpha  occ. eigenvalues --   -0.33760  -0.33425  -0.33255  -0.33233  -0.32762
 Alpha  occ. eigenvalues --   -0.32368  -0.32286  -0.31990  -0.31752  -0.31651
 Alpha  occ. eigenvalues --   -0.31435  -0.30700  -0.30337  -0.29492  -0.29401
 Alpha  occ. eigenvalues --   -0.28994  -0.28711  -0.28546  -0.27470  -0.26300
 Alpha  occ. eigenvalues --   -0.25911  -0.25540  -0.25327  -0.25006  -0.21001
 Alpha  occ. eigenvalues --   -0.18953
 Alpha virt. eigenvalues --   -0.11340  -0.05149  -0.04224  -0.02681  -0.00456
 Alpha virt. eigenvalues --   -0.00182   0.00059   0.00173   0.01112   0.02726
 Alpha virt. eigenvalues --    0.03178   0.03767   0.04371   0.04921   0.05410

 Mulliken charges:
               1
     1  Mg   0.971084
     2  C   -0.047358
     3  C   -0.075022
     4  C   -0.047145
     5  C   -0.050834
     6  N   -0.386207
     7  C    0.003466
     8  C   -0.084877
     9  C   -0.103684
    10  C    0.063188
    11  C    0.018434
    12  C    0.005269
    13  C    0.011605
    14  C    0.218517
    15  O   -0.274154
    16  O   -0.378853
    17  N   -0.505780
    18  C    0.160140
    19  C   -0.186182
    20  C   -0.090183
    21  C    0.157009
    22  C    0.049029
    23  C    0.085469
    24  O   -0.280428
    25  C   -0.015308
    26  N   -0.385716
    27  C    0.050515
    28  C   -0.105929
    29  C   -0.132558
    30  C    0.081747
    31  C    0.032803
    32  C   -0.045865
    33  C   -0.067929
    34  N   -0.430437
    35  C    0.107936
    36  C   -0.151547
    37  C   -0.061220
    38  C    0.177250
    39  C    0.044243
    40  C    0.181252
    41  O   -0.252762
    42  C   -0.062621
    43  C    0.250000
    44  O   -0.220422
    45  O   -0.395991
    46  C    0.129014
    47  C    0.224818
    48  C   -0.116691
    49  C   -0.184037
    50  C   -0.002047
    51  C    0.004985
    52  C   -0.091161
    53  C    0.020394
    54  C   -0.200068
    55  C    0.012379
    56  C    0.005276
    57  C   -0.070810
    58  C    0.023840
    59  C   -0.208329
    60  C   -0.027739
    61  C    0.006634
    62  C   -0.063636
    63  C   -0.019305
    64  C   -0.256794
    65  C   -0.013543
    66  C   -0.009329
    67  H   -0.006258
    68  H    0.027574
    69  H    0.016583
    70  H    0.041235
    71  H    0.037355
    72  H    0.057710
    73  H    0.055936
    74  H    0.050659
    75  H    0.045920
    76  H    0.048039
    77  H    0.081829
    78  H    0.049878
    79  H    0.044524
    80  H    0.076120
    81  H    0.057811
    82  H    0.063956
    83  H    0.053371
    84  H    0.068592
    85  H    0.051352
    86  H    0.046394
    87  H    0.034955
    88  H    0.045255
    89  H    0.052493
    90  H    0.045541
    91  H    0.046044
    92  H    0.047092
    93  H    0.037337
    94  H    0.050197
    95  H    0.059103
    96  H    0.066189
    97  H    0.036617
    98  H    0.067676
    99  H    0.038466
   100  H    0.059059
   101  H    0.077751
   102  H    0.044705
   103  H    0.047124
   104  H    0.029945
   105  H    0.037723
   106  H    0.043963
   107  H    0.066042
   108  H    0.035722
   109  H    0.021799
   110  H    0.046292
   111  H    0.032634
   112  H    0.026667
   113  H    0.030857
   114  H    0.036901
   115  H    0.032621
   116  H    0.032291
   117  H    0.023212
   118  H    0.021639
   119  H    0.032217
   120  H    0.024195
   121  H    0.033501
   122  H    0.021078
   123  H    0.020044
   124  H    0.026746
   125  H    0.032535
   126  H    0.038047
   127  H    0.024736
   128  H    0.017716
   129  H    0.042433
   130  H    0.031315
   131  H    0.025492
   132  H    0.016620
   133  H    0.023565
   134  H    0.046009
   135  H    0.037597
   136  H    0.029428
   137  H    0.036053
   138  H    0.025736
   139  H    0.047534
   140  H    0.031119
 Sum of Mulliken charges =  -0.00000

 Dipole moment (field-independent basis, Debye):
    X=              4.8601    Y=              3.2399    Z=             -1.7058  Tot=              6.0850
 Quadrupole moment (field-independent basis, Debye-Ang):
   XX=           -355.0789   YY=           -439.4233   ZZ=           -414.5238
   XY=             -6.9738   XZ=              5.3367   YZ=              9.6427

 Normal termination of Gaussian 16 at Wed May  4 06:39:44 2022.
