 Gaussian 16, Revision A.03,
 Gaussian 16:  ES64L-G16RevA.03 25-Dec-2016

 --------------------------------
 #p wB97XD/Def2SVP td=(nstates=5)
 --------------------------------

 -----------------------------------------------------
 step_1451_chromophore_12 TDDFT with wB97XD functional
 -----------------------------------------------------
 Symbolic Z-matrix:
 Charge =  0 Multiplicity = 1

                         Standard orientation:
 ---------------------------------------------------------------------
 Center     Atomic      Atomic             Coordinates (Angstroms)
 Number     Number       Type             X           Y           Z
 ---------------------------------------------------------------------
      1         12           0       -4.145930    0.184375   -0.403161
      2          6           0       -2.709251   -2.865436    0.535184
      3          6           0       -1.072203    1.423920   -0.833694
      4          6           0       -5.593398    3.139653   -0.978787
      5          6           0       -7.363095   -1.180534    0.412351
      6          7           0       -2.104907   -0.690417   -0.127555
      7          6           0       -1.757615   -1.955261    0.176331
      8          6           0       -0.267908   -2.189429   -0.033841
      9          6           0        0.239102   -0.712676   -0.076046
     10          6           0       -0.967791    0.067580   -0.406576
     11          6           0        1.024489   -0.292039    1.232894
     12          6           0       -0.017505   -3.118990   -1.263566
     13          6           0        1.219596   -4.028350   -1.222488
     14          6           0        2.325894   -3.723943   -2.208929
     15          8           0        2.142578   -3.726073   -3.415832
     16          8           0        3.589122   -3.719895   -1.687222
     17          7           0       -3.484655    2.029020   -0.904760
     18          6           0       -2.124754    2.323607   -1.160378
     19          6           0       -2.009616    3.743804   -1.473750
     20          6           0       -3.315958    4.255628   -1.456355
     21          6           0       -4.184530    3.113404   -1.120004
     22          6           0       -0.628270    4.464387   -1.697273
     23          6           0       -3.889751    5.703207   -1.678452
     24          8           0       -5.112634    6.058617   -1.728869
     25          6           0       -2.927226    6.834586   -1.699113
     26          7           0       -6.202324    0.840126   -0.290737
     27          6           0       -6.493444    2.140281   -0.614620
     28          6           0       -8.041591    2.341342   -0.582869
     29          6           0       -8.596849    0.883101   -0.305192
     30          6           0       -7.309355    0.093526   -0.140321
     31          6           0       -8.596965    3.459030    0.262585
     32          6           0       -9.375567    0.132883   -1.449657
     33          6           0      -10.376187    1.017627   -2.252212
     34          7           0       -4.925043   -1.674326    0.367813
     35          6           0       -6.237715   -2.043771    0.652269
     36          6           0       -6.210103   -3.424072    1.265270
     37          6           0       -4.835938   -3.757361    1.172406
     38          6           0       -4.126222   -2.687537    0.618974
     39          6           0       -7.317139   -4.167349    1.941936
     40          6           0       -3.864732   -4.784155    1.568123
     41          8           0       -4.037678   -5.903729    2.130697
     42          6           0       -2.463167   -4.254201    1.125233
     43          6           0       -1.596966   -4.209014    2.264350
     44          8           0       -1.917836   -3.838939    3.362991
     45          8           0       -0.429612   -4.934931    2.018457
     46          6           0        0.634620   -4.791630    3.027011
     47          6           0        4.805528   -3.782053   -2.537271
     48          6           0        6.080654   -3.597597   -1.810794
     49          6           0        7.254125   -3.049805   -2.291622
     50          6           0        7.450802   -2.715052   -3.764496
     51          6           0        8.504064   -2.802298   -1.428089
     52          6           0        9.073611   -1.353776   -1.501603
     53          6           0       10.109675   -1.148966   -0.430255
     54          6           0       10.630278    0.331516   -0.585121
     55          6           0       12.123002    0.353737   -0.999695
     56          6           0       10.282116    1.021117    0.703591
     57          6           0        8.777161    1.425745    0.774762
     58          6           0        8.471631    2.589991    1.687292
     59          6           0        7.248630    3.433891    1.220310
     60          6           0        7.775830    4.609170    0.343288
     61          6           0        6.571088    4.000002    2.474140
     62          6           0        5.216090    3.338773    2.737912
     63          6           0        4.117579    4.328327    3.287574
     64          6           0        2.697154    3.984582    2.730012
     65          6           0        2.251491    4.923807    1.563432
     66          6           0        1.698376    3.983046    3.896649
     67          1           0       -0.092591    1.864223   -1.031617
     68          1           0       -6.149456    4.022853   -1.300477
     69          1           0       -8.324720   -1.515832    0.806023
     70          1           0        0.202591   -2.676377    0.821094
     71          1           0        0.899231   -0.528103   -0.923448
     72          1           0        0.636844   -0.875753    2.068293
     73          1           0        0.941846    0.790662    1.331149
     74          1           0        2.062703   -0.586176    1.081688
     75          1           0        0.140465   -2.472721   -2.128192
     76          1           0       -0.914609   -3.654140   -1.574412
     77          1           0        0.738137   -4.965234   -1.500171
     78          1           0        1.646462   -4.094879   -0.221056
     79          1           0        0.133547    3.705146   -1.872581
     80          1           0       -0.421572    5.037543   -0.793691
     81          1           0       -0.639347    5.063826   -2.607626
     82          1           0       -3.567316    7.707231   -1.828363
     83          1           0       -2.334231    6.675827   -2.599592
     84          1           0       -2.295406    6.815497   -0.811715
     85          1           0       -8.315203    2.574256   -1.611616
     86          1           0       -9.205505    0.929964    0.598144
     87          1           0       -9.361260    3.033030    0.912640
     88          1           0       -9.042480    4.248749   -0.341778
     89          1           0       -7.801116    3.933773    0.836597
     90          1           0       -9.953255   -0.728363   -1.114054
     91          1           0       -8.612288   -0.258048   -2.122291
     92          1           0      -11.236946    0.444029   -2.596267
     93          1           0       -9.901206    1.299674   -3.191992
     94          1           0      -10.535128    1.957009   -1.721652
     95          1           0       -7.616114   -3.898416    2.954740
     96          1           0       -7.056685   -5.221104    2.041026
     97          1           0       -8.257760   -4.002448    1.415092
     98          1           0       -2.001639   -4.889284    0.369880
     99          1           0        0.747375   -3.723175    3.209324
    100          1           0        1.563472   -5.084578    2.537086
    101          1           0        0.408009   -5.267605    3.981579
    102          1           0        4.703423   -3.175232   -3.437753
    103          1           0        4.791815   -4.746175   -3.046325
    104          1           0        5.859340   -3.837907   -0.771256
    105          1           0        6.756322   -3.277407   -4.388444
    106          1           0        8.437769   -3.122888   -3.983637
    107          1           0        7.362313   -1.680802   -4.098134
    108          1           0        9.243781   -3.465964   -1.877327
    109          1           0        8.347865   -3.235713   -0.439863
    110          1           0        8.251296   -0.638958   -1.546533
    111          1           0        9.534608   -1.372144   -2.488961
    112          1           0       10.838945   -1.954936   -0.505657
    113          1           0        9.588596   -1.331736    0.509033
    114          1           0       10.090771    0.867988   -1.365623
    115          1           0       12.252920    0.793654   -1.987956
    116          1           0       12.570764   -0.639394   -0.973362
    117          1           0       12.748259    0.994176   -0.376110
    118          1           0       10.876666    1.932148    0.776666
    119          1           0       10.512688    0.375145    1.551598
    120          1           0        8.217874    0.687724    1.350304
    121          1           0        8.248867    1.423375   -0.179072
    122          1           0        9.371176    3.192592    1.812897
    123          1           0        8.295270    2.157039    2.672009
    124          1           0        6.462964    2.979846    0.616736
    125          1           0        8.426279    4.397941   -0.505502
    126          1           0        8.224996    5.327017    1.030134
    127          1           0        6.965122    5.132583   -0.164866
    128          1           0        6.209509    4.963009    2.113964
    129          1           0        7.209728    4.019689    3.357954
    130          1           0        5.318953    2.562746    3.495755
    131          1           0        4.857657    2.873069    1.820323
    132          1           0        4.335315    5.361535    3.013974
    133          1           0        4.178900    4.422338    4.371090
    134          1           0        2.868094    2.979300    2.344680
    135          1           0        1.374350    5.456187    1.931998
    136          1           0        1.993554    4.354912    0.670114
    137          1           0        3.000360    5.613401    1.173239
    138          1           0        0.766330    4.400896    3.517156
    139          1           0        1.979744    4.425211    4.852092
    140          1           0        1.469424    2.945099    4.140877
 ---------------------------------------------------------------------

 SCF Done:  E(RwB97XD) =  -3007.87296867     A.U. after   19 cycles

 Excitation energies and oscillator strengths:

 Excited State   1:      Singlet-A      1.6428 eV  754.72 nm  f=0.3832  <S**2>=0.000
     245 -> 248        0.18824
     246 -> 247        0.68307
     245 <- 248        0.11905
 This state for optimization and/or second-order correction.
 Total Energy, E(TD-HF/TD-DFT) =  -3007.81259723
 Copying the excited state density for this state as the 1-particle RhoCI density.

 Excited State   2:      Singlet-A      2.1618 eV  573.53 nm  f=0.1278  <S**2>=0.000
     245 -> 247        0.64471
     246 -> 248       -0.28081

 Excited State   3:      Singlet-A      3.3890 eV  365.85 nm  f=0.0025  <S**2>=0.000
     241 -> 247        0.13154
     241 -> 249       -0.12382
     241 -> 250        0.10056
     242 -> 247        0.43920
     242 -> 249       -0.24266
     242 -> 250        0.20385
     243 -> 247        0.36998

 Excited State   4:      Singlet-A      3.4122 eV  363.36 nm  f=0.0030  <S**2>=0.000
     241 -> 247       -0.20824
     242 -> 247       -0.26045
     242 -> 249        0.15936
     242 -> 250       -0.12264
     243 -> 247        0.55638
     246 -> 248        0.11783

 Excited State   5:      Singlet-A      3.6059 eV  343.84 nm  f=0.2891  <S**2>=0.000
     240 -> 247        0.31270
     240 -> 249        0.27772
     240 -> 250        0.20966
     241 -> 247        0.21986
     241 -> 249        0.10719
     245 -> 247        0.16844
     246 -> 248        0.38903

 The electronic state is 1-A.
 Alpha  occ. eigenvalues --  -46.95518 -19.30358 -19.29890 -19.24798 -19.24327
 Alpha  occ. eigenvalues --  -19.24300 -19.23879 -14.46969 -14.46287 -14.44642
 Alpha  occ. eigenvalues --  -14.43931 -10.43394 -10.42585 -10.39927 -10.39253
 Alpha  occ. eigenvalues --  -10.36203 -10.35747 -10.35304 -10.34877 -10.34713
 Alpha  occ. eigenvalues --  -10.34703 -10.34702 -10.34554 -10.34153 -10.33620
 Alpha  occ. eigenvalues --  -10.33076 -10.32878 -10.32796 -10.32479 -10.32452
 Alpha  occ. eigenvalues --  -10.32070 -10.32045 -10.32043 -10.31956 -10.31914
 Alpha  occ. eigenvalues --  -10.31885 -10.31625 -10.31596 -10.31274 -10.31004
 Alpha  occ. eigenvalues --  -10.30954 -10.30678 -10.30453 -10.30324 -10.30246
 Alpha  occ. eigenvalues --  -10.30084 -10.30046 -10.29939 -10.29911 -10.29835
 Alpha  occ. eigenvalues --  -10.29773 -10.29704 -10.29499 -10.29296 -10.29234
 Alpha  occ. eigenvalues --  -10.29216 -10.29090 -10.29052 -10.28851 -10.28825
 Alpha  occ. eigenvalues --  -10.28699 -10.28584 -10.28569 -10.28532 -10.28471
 Alpha  occ. eigenvalues --  -10.28411  -3.21411  -1.95020  -1.94503  -1.94402
 Alpha  occ. eigenvalues --   -1.18326  -1.18291  -1.10339  -1.09915  -1.09545
 Alpha  occ. eigenvalues --   -1.09337  -1.06687  -1.05998  -1.05679  -1.04852
 Alpha  occ. eigenvalues --   -0.94884  -0.92912  -0.92081  -0.91735  -0.90991
 Alpha  occ. eigenvalues --   -0.90832  -0.90154  -0.89695  -0.89625  -0.89033
 Alpha  occ. eigenvalues --   -0.87975  -0.87918  -0.86997  -0.85748  -0.85468
 Alpha  occ. eigenvalues --   -0.84960  -0.84065  -0.83536  -0.83160  -0.82528
 Alpha  occ. eigenvalues --   -0.82207  -0.80535  -0.80397  -0.79531  -0.78537
 Alpha  occ. eigenvalues --   -0.77934  -0.77732  -0.77449  -0.77201  -0.76394
 Alpha  occ. eigenvalues --   -0.75594  -0.74943  -0.74007  -0.72604  -0.71114
 Alpha  occ. eigenvalues --   -0.70457  -0.70301  -0.69189  -0.68626  -0.67723
 Alpha  occ. eigenvalues --   -0.67434  -0.66989  -0.66753  -0.66597  -0.66177
 Alpha  occ. eigenvalues --   -0.66067  -0.65876  -0.64806  -0.64113  -0.62739
 Alpha  occ. eigenvalues --   -0.62398  -0.62146  -0.61264  -0.60738  -0.60611
 Alpha  occ. eigenvalues --   -0.59733  -0.59399  -0.58385  -0.57722  -0.57400
 Alpha  occ. eigenvalues --   -0.57294  -0.57147  -0.56934  -0.56675  -0.56456
 Alpha  occ. eigenvalues --   -0.56339  -0.56243  -0.55228  -0.55041  -0.54809
 Alpha  occ. eigenvalues --   -0.54724  -0.54471  -0.54426  -0.54134  -0.53621
 Alpha  occ. eigenvalues --   -0.53449  -0.53340  -0.53136  -0.52813  -0.52679
 Alpha  occ. eigenvalues --   -0.52468  -0.52397  -0.52151  -0.52026  -0.51800
 Alpha  occ. eigenvalues --   -0.51490  -0.51279  -0.51039  -0.50866  -0.50563
 Alpha  occ. eigenvalues --   -0.50471  -0.50350  -0.50206  -0.49976  -0.49863
 Alpha  occ. eigenvalues --   -0.49674  -0.49490  -0.48986  -0.48616  -0.48554
 Alpha  occ. eigenvalues --   -0.48475  -0.48031  -0.47962  -0.47877  -0.47663
 Alpha  occ. eigenvalues --   -0.47532  -0.47463  -0.47443  -0.47345  -0.47057
 Alpha  occ. eigenvalues --   -0.46952  -0.46447  -0.46324  -0.45972  -0.45769
 Alpha  occ. eigenvalues --   -0.45750  -0.45611  -0.45191  -0.45142  -0.44973
 Alpha  occ. eigenvalues --   -0.44903  -0.44479  -0.44403  -0.44381  -0.44213
 Alpha  occ. eigenvalues --   -0.44129  -0.44047  -0.43819  -0.43504  -0.43341
 Alpha  occ. eigenvalues --   -0.43092  -0.42726  -0.42556  -0.42415  -0.42167
 Alpha  occ. eigenvalues --   -0.42096  -0.41651  -0.41546  -0.41492  -0.41216
 Alpha  occ. eigenvalues --   -0.40848  -0.40434  -0.40354  -0.40169  -0.39822
 Alpha  occ. eigenvalues --   -0.39333  -0.39158  -0.39090  -0.38825  -0.38695
 Alpha  occ. eigenvalues --   -0.38538  -0.37613  -0.37313  -0.36591  -0.36275
 Alpha  occ. eigenvalues --   -0.35869  -0.35830  -0.35265  -0.34028  -0.33070
 Alpha  occ. eigenvalues --   -0.32831  -0.32758  -0.31921  -0.31718  -0.25972
 Alpha  occ. eigenvalues --   -0.23103
 Alpha virt. eigenvalues --   -0.07247   0.00299   0.02024   0.03809   0.05993
 Alpha virt. eigenvalues --    0.06427   0.06460   0.06781   0.07739   0.08963
 Alpha virt. eigenvalues --    0.09959   0.10445   0.11215   0.11660   0.12163

 Mulliken charges:
               1
     1  Mg   0.962047
     2  C   -0.045524
     3  C   -0.079615
     4  C   -0.065527
     5  C   -0.075444
     6  N   -0.352628
     7  C   -0.029883
     8  C   -0.044869
     9  C   -0.078832
    10  C    0.043783
    11  C    0.033720
    12  C    0.010844
    13  C    0.030011
    14  C    0.207014
    15  O   -0.271313
    16  O   -0.376494
    17  N   -0.472920
    18  C    0.149737
    19  C   -0.178314
    20  C   -0.088230
    21  C    0.147471
    22  C    0.063308
    23  C    0.083180
    24  O   -0.275152
    25  C   -0.002534
    26  N   -0.352572
    27  C    0.038258
    28  C   -0.082070
    29  C   -0.108382
    30  C    0.076291
    31  C    0.043607
    32  C   -0.034204
    33  C   -0.049517
    34  N   -0.391586
    35  C    0.101917
    36  C   -0.149376
    37  C   -0.051227
    38  C    0.152352
    39  C    0.053658
    40  C    0.161213
    41  O   -0.241996
    42  C   -0.021877
    43  C    0.225598
    44  O   -0.214264
    45  O   -0.393688
    46  C    0.143904
    47  C    0.235910
    48  C   -0.124930
    49  C   -0.171281
    50  C    0.009148
    51  C    0.023816
    52  C   -0.068973
    53  C    0.032706
    54  C   -0.167948
    55  C    0.021878
    56  C    0.026188
    57  C   -0.057164
    58  C    0.038148
    59  C   -0.179572
    60  C   -0.014384
    61  C    0.027101
    62  C   -0.045810
    63  C   -0.008479
    64  C   -0.224147
    65  C    0.000310
    66  C    0.003837
    67  H   -0.016091
    68  H    0.022042
    69  H    0.012440
    70  H    0.011378
    71  H    0.027266
    72  H    0.050095
    73  H    0.049182
    74  H    0.044864
    75  H    0.037526
    76  H    0.040721
    77  H    0.076835
    78  H    0.043873
    79  H    0.039660
    80  H    0.070664
    81  H    0.052590
    82  H    0.062588
    83  H    0.046256
    84  H    0.063785
    85  H    0.037802
    86  H    0.036676
    87  H    0.028509
    88  H    0.040628
    89  H    0.046664
    90  H    0.038238
    91  H    0.036620
    92  H    0.042682
    93  H    0.030524
    94  H    0.041347
    95  H    0.055176
    96  H    0.063129
    97  H    0.030966
    98  H    0.060774
    99  H    0.033325
   100  H    0.056447
   101  H    0.075457
   102  H    0.039102
   103  H    0.042418
   104  H    0.027886
   105  H    0.032367
   106  H    0.037566
   107  H    0.062269
   108  H    0.025591
   109  H    0.015181
   110  H    0.035062
   111  H    0.021049
   112  H    0.018902
   113  H    0.019414
   114  H    0.023770
   115  H    0.027451
   116  H    0.026203
   117  H    0.017727
   118  H    0.011258
   119  H    0.023124
   120  H    0.014184
   121  H    0.021811
   122  H    0.011301
   123  H    0.011318
   124  H    0.015425
   125  H    0.026967
   126  H    0.030258
   127  H    0.018136
   128  H    0.001616
   129  H    0.036382
   130  H    0.023133
   131  H    0.013217
   132  H    0.005763
   133  H    0.016033
   134  H    0.032475
   135  H    0.030243
   136  H    0.022734
   137  H    0.030046
   138  H    0.018619
   139  H    0.042012
   140  H    0.025125
 Sum of Mulliken charges =  -0.00000

 Dipole moment (field-independent basis, Debye):
    X=              4.9642    Y=              3.1485    Z=             -1.6461  Tot=              6.1046
 Quadrupole moment (field-independent basis, Debye-Ang):
   XX=           -356.1050   YY=           -437.7610   ZZ=           -414.2793
   XY=             -6.3111   XZ=              5.1233   YZ=              9.1186

 Normal termination of Gaussian 16 at Wed May  4 07:13:52 2022.
