 Gaussian 16, Revision A.03,
 Gaussian 16:  ES64L-G16RevA.03 25-Dec-2016

 --------------------
 #p ZINDO=(nstates=5)
 --------------------

 ------------------------------
 step_1451_chromophore_12 ZINDO
 ------------------------------
 Symbolic Z-matrix:
 Charge =  0 Multiplicity = 1

                         Standard orientation:
 ---------------------------------------------------------------------
 Center     Atomic      Atomic             Coordinates (Angstroms)
 Number     Number       Type             X           Y           Z
 ---------------------------------------------------------------------
      1         12           0       -4.145930    0.184375   -0.403161
      2          6           0       -2.709251   -2.865436    0.535184
      3          6           0       -1.072203    1.423920   -0.833694
      4          6           0       -5.593398    3.139653   -0.978787
      5          6           0       -7.363095   -1.180534    0.412351
      6          7           0       -2.104907   -0.690417   -0.127555
      7          6           0       -1.757615   -1.955261    0.176331
      8          6           0       -0.267908   -2.189429   -0.033841
      9          6           0        0.239102   -0.712676   -0.076046
     10          6           0       -0.967791    0.067580   -0.406576
     11          6           0        1.024489   -0.292039    1.232894
     12          6           0       -0.017505   -3.118990   -1.263566
     13          6           0        1.219596   -4.028350   -1.222488
     14          6           0        2.325894   -3.723943   -2.208929
     15          8           0        2.142578   -3.726073   -3.415832
     16          8           0        3.589122   -3.719895   -1.687222
     17          7           0       -3.484655    2.029020   -0.904760
     18          6           0       -2.124754    2.323607   -1.160378
     19          6           0       -2.009616    3.743804   -1.473750
     20          6           0       -3.315958    4.255628   -1.456355
     21          6           0       -4.184530    3.113404   -1.120004
     22          6           0       -0.628270    4.464387   -1.697273
     23          6           0       -3.889751    5.703207   -1.678452
     24          8           0       -5.112634    6.058617   -1.728869
     25          6           0       -2.927226    6.834586   -1.699113
     26          7           0       -6.202324    0.840126   -0.290737
     27          6           0       -6.493444    2.140281   -0.614620
     28          6           0       -8.041591    2.341342   -0.582869
     29          6           0       -8.596849    0.883101   -0.305192
     30          6           0       -7.309355    0.093526   -0.140321
     31          6           0       -8.596965    3.459030    0.262585
     32          6           0       -9.375567    0.132883   -1.449657
     33          6           0      -10.376187    1.017627   -2.252212
     34          7           0       -4.925043   -1.674326    0.367813
     35          6           0       -6.237715   -2.043771    0.652269
     36          6           0       -6.210103   -3.424072    1.265270
     37          6           0       -4.835938   -3.757361    1.172406
     38          6           0       -4.126222   -2.687537    0.618974
     39          6           0       -7.317139   -4.167349    1.941936
     40          6           0       -3.864732   -4.784155    1.568123
     41          8           0       -4.037678   -5.903729    2.130697
     42          6           0       -2.463167   -4.254201    1.125233
     43          6           0       -1.596966   -4.209014    2.264350
     44          8           0       -1.917836   -3.838939    3.362991
     45          8           0       -0.429612   -4.934931    2.018457
     46          6           0        0.634620   -4.791630    3.027011
     47          6           0        4.805528   -3.782053   -2.537271
     48          6           0        6.080654   -3.597597   -1.810794
     49          6           0        7.254125   -3.049805   -2.291622
     50          6           0        7.450802   -2.715052   -3.764496
     51          6           0        8.504064   -2.802298   -1.428089
     52          6           0        9.073611   -1.353776   -1.501603
     53          6           0       10.109675   -1.148966   -0.430255
     54          6           0       10.630278    0.331516   -0.585121
     55          6           0       12.123002    0.353737   -0.999695
     56          6           0       10.282116    1.021117    0.703591
     57          6           0        8.777161    1.425745    0.774762
     58          6           0        8.471631    2.589991    1.687292
     59          6           0        7.248630    3.433891    1.220310
     60          6           0        7.775830    4.609170    0.343288
     61          6           0        6.571088    4.000002    2.474140
     62          6           0        5.216090    3.338773    2.737912
     63          6           0        4.117579    4.328327    3.287574
     64          6           0        2.697154    3.984582    2.730012
     65          6           0        2.251491    4.923807    1.563432
     66          6           0        1.698376    3.983046    3.896649
     67          1           0       -0.092591    1.864223   -1.031617
     68          1           0       -6.149456    4.022853   -1.300477
     69          1           0       -8.324720   -1.515832    0.806023
     70          1           0        0.202591   -2.676377    0.821094
     71          1           0        0.899231   -0.528103   -0.923448
     72          1           0        0.636844   -0.875753    2.068293
     73          1           0        0.941846    0.790662    1.331149
     74          1           0        2.062703   -0.586176    1.081688
     75          1           0        0.140465   -2.472721   -2.128192
     76          1           0       -0.914609   -3.654140   -1.574412
     77          1           0        0.738137   -4.965234   -1.500171
     78          1           0        1.646462   -4.094879   -0.221056
     79          1           0        0.133547    3.705146   -1.872581
     80          1           0       -0.421572    5.037543   -0.793691
     81          1           0       -0.639347    5.063826   -2.607626
     82          1           0       -3.567316    7.707231   -1.828363
     83          1           0       -2.334231    6.675827   -2.599592
     84          1           0       -2.295406    6.815497   -0.811715
     85          1           0       -8.315203    2.574256   -1.611616
     86          1           0       -9.205505    0.929964    0.598144
     87          1           0       -9.361260    3.033030    0.912640
     88          1           0       -9.042480    4.248749   -0.341778
     89          1           0       -7.801116    3.933773    0.836597
     90          1           0       -9.953255   -0.728363   -1.114054
     91          1           0       -8.612288   -0.258048   -2.122291
     92          1           0      -11.236946    0.444029   -2.596267
     93          1           0       -9.901206    1.299674   -3.191992
     94          1           0      -10.535128    1.957009   -1.721652
     95          1           0       -7.616114   -3.898416    2.954740
     96          1           0       -7.056685   -5.221104    2.041026
     97          1           0       -8.257760   -4.002448    1.415092
     98          1           0       -2.001639   -4.889284    0.369880
     99          1           0        0.747375   -3.723175    3.209324
    100          1           0        1.563472   -5.084578    2.537086
    101          1           0        0.408009   -5.267605    3.981579
    102          1           0        4.703423   -3.175232   -3.437753
    103          1           0        4.791815   -4.746175   -3.046325
    104          1           0        5.859340   -3.837907   -0.771256
    105          1           0        6.756322   -3.277407   -4.388444
    106          1           0        8.437769   -3.122888   -3.983637
    107          1           0        7.362313   -1.680802   -4.098134
    108          1           0        9.243781   -3.465964   -1.877327
    109          1           0        8.347865   -3.235713   -0.439863
    110          1           0        8.251296   -0.638958   -1.546533
    111          1           0        9.534608   -1.372144   -2.488961
    112          1           0       10.838945   -1.954936   -0.505657
    113          1           0        9.588596   -1.331736    0.509033
    114          1           0       10.090771    0.867988   -1.365623
    115          1           0       12.252920    0.793654   -1.987956
    116          1           0       12.570764   -0.639394   -0.973362
    117          1           0       12.748259    0.994176   -0.376110
    118          1           0       10.876666    1.932148    0.776666
    119          1           0       10.512688    0.375145    1.551598
    120          1           0        8.217874    0.687724    1.350304
    121          1           0        8.248867    1.423375   -0.179072
    122          1           0        9.371176    3.192592    1.812897
    123          1           0        8.295270    2.157039    2.672009
    124          1           0        6.462964    2.979846    0.616736
    125          1           0        8.426279    4.397941   -0.505502
    126          1           0        8.224996    5.327017    1.030134
    127          1           0        6.965122    5.132583   -0.164866
    128          1           0        6.209509    4.963009    2.113964
    129          1           0        7.209728    4.019689    3.357954
    130          1           0        5.318953    2.562746    3.495755
    131          1           0        4.857657    2.873069    1.820323
    132          1           0        4.335315    5.361535    3.013974
    133          1           0        4.178900    4.422338    4.371090
    134          1           0        2.868094    2.979300    2.344680
    135          1           0        1.374350    5.456187    1.931998
    136          1           0        1.993554    4.354912    0.670114
    137          1           0        3.000360    5.613401    1.173239
    138          1           0        0.766330    4.400896    3.517156
    139          1           0        1.979744    4.425211    4.852092
    140          1           0        1.469424    2.945099    4.140877
 ---------------------------------------------------------------------

 SCF Done:  E(RZINDO/S) =  -474.245664582     A.U. after   20 cycles

 Excitation energies and oscillator strengths:

 Excited State   1:      Singlet-A      1.2419 eV  998.31 nm  f=0.6228  <S**2>=0.000
     175 ->178         0.19669
     176 ->177         0.66235
 This state for optimization and/or second-order correction.
 Total Energy, E(CIS/TDA) =  -474.200024281
 Copying the excited state density for this state as the 1-particle RhoCI density.

 Excited State   2:      Singlet-A      1.9195 eV  645.93 nm  f=0.0572  <S**2>=0.000
     175 ->177         0.55977
     176 ->178        -0.40983

 Excited State   3:      Singlet-A      2.9451 eV  420.99 nm  f=0.0070  <S**2>=0.000
     168 ->179        -0.26413
     168 ->180        -0.11357
     168 ->186        -0.14352
     169 ->177         0.26545
     169 ->179         0.23283
     169 ->180         0.39501
     169 ->186         0.15738
     169 ->187         0.11829

 Excited State   4:      Singlet-A      2.9512 eV  420.12 nm  f=0.0014  <S**2>=0.000
     167 ->179        -0.10827
     168 ->177         0.33670
     168 ->179        -0.29790
     168 ->180         0.30741
     168 ->186        -0.11528
     168 ->187         0.13098
     169 ->179        -0.26598
     169 ->186        -0.13092

 Excited State   5:      Singlet-A      3.0514 eV  406.32 nm  f=1.0558  <S**2>=0.000
     172 ->177        -0.14401
     175 ->177         0.34734
     176 ->178         0.49181
     176 ->179        -0.26355

 The electronic state is 1-A.
 Alpha  occ. eigenvalues --   -1.84558  -1.81242  -1.80477  -1.73376  -1.72307
 Alpha  occ. eigenvalues --   -1.71010  -1.66832  -1.62363  -1.57274  -1.56085
 Alpha  occ. eigenvalues --   -1.55219  -1.52315  -1.49255  -1.46573  -1.46247
 Alpha  occ. eigenvalues --   -1.44846  -1.42696  -1.40644  -1.39518  -1.37561
 Alpha  occ. eigenvalues --   -1.35732  -1.33661  -1.32778  -1.31385  -1.28793
 Alpha  occ. eigenvalues --   -1.28510  -1.24666  -1.22019  -1.21069  -1.19696
 Alpha  occ. eigenvalues --   -1.17856  -1.15488  -1.15371  -1.15042  -1.14112
 Alpha  occ. eigenvalues --   -1.13139  -1.11361  -1.10833  -1.05566  -1.03952
 Alpha  occ. eigenvalues --   -1.02495  -1.01609  -0.98822  -0.98086  -0.97141
 Alpha  occ. eigenvalues --   -0.95797  -0.95257  -0.94073  -0.92920  -0.91576
 Alpha  occ. eigenvalues --   -0.91442  -0.90720  -0.88852  -0.87881  -0.86114
 Alpha  occ. eigenvalues --   -0.85624  -0.85372  -0.83614  -0.82278  -0.80775
 Alpha  occ. eigenvalues --   -0.80595  -0.79857  -0.78416  -0.77671  -0.77140
 Alpha  occ. eigenvalues --   -0.75735  -0.75191  -0.74893  -0.74514  -0.74480
 Alpha  occ. eigenvalues --   -0.73614  -0.72896  -0.72118  -0.71672  -0.71070
 Alpha  occ. eigenvalues --   -0.70382  -0.68799  -0.68647  -0.68284  -0.67778
 Alpha  occ. eigenvalues --   -0.67412  -0.67039  -0.66911  -0.66310  -0.65948
 Alpha  occ. eigenvalues --   -0.65431  -0.64518  -0.64474  -0.63809  -0.63422
 Alpha  occ. eigenvalues --   -0.63068  -0.62665  -0.62480  -0.62336  -0.62019
 Alpha  occ. eigenvalues --   -0.61346  -0.60793  -0.60308  -0.60084  -0.59783
 Alpha  occ. eigenvalues --   -0.59727  -0.59422  -0.58967  -0.58605  -0.58556
 Alpha  occ. eigenvalues --   -0.57827  -0.57508  -0.57485  -0.57382  -0.57104
 Alpha  occ. eigenvalues --   -0.56392  -0.56099  -0.55565  -0.54984  -0.54444
 Alpha  occ. eigenvalues --   -0.54362  -0.53858  -0.53546  -0.53460  -0.52680
 Alpha  occ. eigenvalues --   -0.52534  -0.52325  -0.52219  -0.51539  -0.51259
 Alpha  occ. eigenvalues --   -0.50983  -0.50852  -0.50814  -0.50795  -0.50402
 Alpha  occ. eigenvalues --   -0.50389  -0.50176  -0.50083  -0.49578  -0.49292
 Alpha  occ. eigenvalues --   -0.49164  -0.49071  -0.48564  -0.48434  -0.48096
 Alpha  occ. eigenvalues --   -0.47552  -0.47283  -0.47187  -0.46823  -0.46754
 Alpha  occ. eigenvalues --   -0.46328  -0.46266  -0.46019  -0.45933  -0.45313
 Alpha  occ. eigenvalues --   -0.45280  -0.44865  -0.44290  -0.44258  -0.43945
 Alpha  occ. eigenvalues --   -0.43435  -0.43253  -0.43097  -0.42730  -0.42628
 Alpha  occ. eigenvalues --   -0.42011  -0.41924  -0.41200  -0.39084  -0.38884
 Alpha  occ. eigenvalues --   -0.38242  -0.37153  -0.35372  -0.35141  -0.34757
 Alpha  occ. eigenvalues --   -0.33674  -0.32874  -0.32416  -0.32021  -0.26686
 Alpha  occ. eigenvalues --   -0.21820
 Alpha virt. eigenvalues --   -0.08726  -0.01908  -0.00598   0.00862   0.01403
 Alpha virt. eigenvalues --    0.02238   0.02629   0.02755   0.03859   0.04510
 Alpha virt. eigenvalues --    0.06052   0.06421   0.06613   0.07524   0.07689

 Mulliken charges:
               1
     1  Mg   0.428101
     2  C   -0.056274
     3  C   -0.067629
     4  C   -0.067260
     5  C   -0.071556
     6  N   -0.293351
     7  C    0.140118
     8  C    0.005123
     9  C    0.013460
    10  C    0.110896
    11  C   -0.048521
    12  C   -0.022461
    13  C    0.009701
    14  C    0.470243
    15  O   -0.522178
    16  O   -0.282215
    17  N   -0.301378
    18  C    0.072849
    19  C    0.006458
    20  C   -0.055461
    21  C    0.152561
    22  C   -0.045437
    23  C    0.321982
    24  O   -0.542333
    25  C   -0.030933
    26  N   -0.269481
    27  C    0.121288
    28  C    0.002944
    29  C   -0.003426
    30  C    0.149808
    31  C   -0.045059
    32  C   -0.030194
    33  C   -0.066077
    34  N   -0.316651
    35  C    0.091600
    36  C    0.039361
    37  C   -0.044934
    38  C    0.132811
    39  C   -0.032457
    40  C    0.333819
    41  O   -0.528458
    42  C    0.059230
    43  C    0.495831
    44  O   -0.507327
    45  O   -0.293181
    46  C    0.073953
    47  C    0.108069
    48  C   -0.087543
    49  C   -0.010129
    50  C   -0.045235
    51  C   -0.029372
    52  C   -0.026909
    53  C   -0.030999
    54  C   -0.007698
    55  C   -0.060669
    56  C   -0.024983
    57  C   -0.048098
    58  C   -0.025871
    59  C   -0.013001
    60  C   -0.063101
    61  C   -0.042929
    62  C   -0.039589
    63  C   -0.044701
    64  C   -0.010722
    65  C   -0.058142
    66  C   -0.056464
    67  H    0.013033
    68  H    0.044243
    69  H    0.031812
    70  H    0.029352
    71  H    0.023372
    72  H    0.031910
    73  H    0.030751
    74  H    0.018929
    75  H    0.024087
    76  H    0.031475
    77  H    0.051812
    78  H    0.033741
    79  H    0.025287
    80  H    0.037005
    81  H    0.029631
    82  H    0.045451
    83  H    0.036151
    84  H    0.042760
    85  H    0.027747
    86  H    0.034128
    87  H    0.019783
    88  H    0.023678
    89  H    0.026860
    90  H    0.022643
    91  H    0.022980
    92  H    0.025455
    93  H    0.011763
    94  H    0.029445
    95  H    0.038934
    96  H    0.037101
    97  H    0.022148
    98  H    0.048933
    99  H    0.029835
   100  H    0.032010
   101  H    0.059938
   102  H    0.047744
   103  H    0.042072
   104  H    0.032877
   105  H    0.017413
   106  H    0.022538
   107  H    0.037530
   108  H    0.018420
   109  H    0.021526
   110  H    0.028389
   111  H    0.016356
   112  H    0.026440
   113  H    0.019646
   114  H    0.023965
   115  H    0.016157
   116  H    0.020860
   117  H    0.015180
   118  H    0.011804
   119  H    0.022079
   120  H    0.007939
   121  H    0.026714
   122  H    0.019984
   123  H    0.012836
   124  H    0.032458
   125  H    0.018189
   126  H    0.017874
   127  H    0.005981
   128  H    0.017394
   129  H    0.034628
   130  H    0.013354
   131  H    0.022524
   132  H    0.011467
   133  H    0.019225
   134  H    0.022840
   135  H    0.023322
   136  H    0.012338
   137  H    0.021245
   138  H    0.016090
   139  H    0.029476
   140  H    0.009135
 Sum of Mulliken charges =  -0.00000

 Dipole moment (field-independent basis, Debye):
    X=              5.7547    Y=              3.0526    Z=             -2.5679  Tot=              7.0021
 N-N= 4.515313503359D+03 E-N= 0.000000000000D+00  KE=-9.704381873911D+03
 Leave Link  601 at Wed May  4 07:27:41 2022, MaxMem=  6710886400 cpu:               0.8 elap:               0.0
 (Enter /sw/apps/gaussian-16.0/g16/l9999.exe)
 1\1\GINC-BP1-COMPUTE123\SP\RZINDO CIS\STO-3G\C55H74Mg1N4O6\OF15641\04-
 May-2022\0\\#p ZINDO=(nstates=5)\\step_1451_chromophore_12 ZINDO\\0,1\
 Mg,0,47.898,15.113,27.828\C,0,45.919,15.134,30.714\C,0,50.133,17.015,2
 9.427\C,0,49.565,15.3,24.939\C,0,45.266,13.35,26.142\N,0,47.948,15.99,
 29.886\C,0,47.091,15.806,30.908\C,0,47.66,16.341,32.215\C,0,48.794,17.
 263,31.664\C,0,49.042,16.747,30.305\C,0,48.453,18.804,31.791\C,0,48.02
 8,15.172,33.183\C,0,47.911,15.439,34.691\C,0,49.2,15.468,35.483\O,0,49

 Normal termination of Gaussian 16 at Wed May  4 07:27:41 2022.
