 Gaussian 16, Revision A.03,
 Gaussian 16:  ES64L-G16RevA.03 25-Dec-2016

 ------------------------------
 #p blyp/Def2SVP td=(nstates=5)
 ------------------------------

 -----------------------------------------------
 step_1_chromophore_9 TDDFT with blyp functional
 -----------------------------------------------
 Symbolic Z-matrix:
 Charge =  0 Multiplicity = 1

                         Standard orientation:
 ---------------------------------------------------------------------
 Center     Atomic      Atomic             Coordinates (Angstroms)
 Number     Number       Type             X           Y           Z
 ---------------------------------------------------------------------
      1         12           0       -4.894473    0.863483   -0.047349
      2          6           0       -4.159977   -2.486147    0.163152
      3          6           0       -1.421653    1.487204   -0.505738
      4          6           0       -5.370911    4.196438    0.259387
      5          6           0       -8.111144    0.297027    0.716061
      6          7           0       -3.004780   -0.375080   -0.153035
      7          6           0       -2.993198   -1.737695   -0.020725
      8          6           0       -1.588791   -2.300660   -0.250185
      9          6           0       -0.727326   -0.954504   -0.260434
     10          6           0       -1.768025    0.125740   -0.307112
     11          6           0        0.306544   -0.842059    0.919468
     12          6           0       -1.443179   -3.126718   -1.608936
     13          6           0       -0.698685   -4.437711   -1.689031
     14          6           0        0.641610   -4.530632   -1.050646
     15          8           0        0.875889   -5.288563   -0.092137
     16          8           0        1.528463   -3.713341   -1.606823
     17          7           0       -3.595334    2.645363   -0.161904
     18          6           0       -2.294132    2.688039   -0.523491
     19          6           0       -1.856914    4.026526   -0.739694
     20          6           0       -3.008908    4.854132   -0.553630
     21          6           0       -4.036616    3.887104   -0.064741
     22          6           0       -0.413854    4.267877   -1.045225
     23          6           0       -3.107665    6.369645   -0.591025
     24          8           0       -4.082897    6.980235   -0.142493
     25          6           0       -1.975583    7.195866   -1.175813
     26          7           0       -6.505241    2.107434    0.580344
     27          6           0       -6.482247    3.463489    0.493139
     28          6           0       -7.878556    4.042565    0.714545
     29          6           0       -8.781716    2.751408    0.683012
     30          6           0       -7.747856    1.643160    0.650160
     31          6           0       -8.172935    5.012068    1.897169
     32          6           0       -9.879744    2.676118   -0.458511
     33          6           0       -9.569987    1.999846   -1.777242
     34          7           0       -5.928347   -0.711713    0.455056
     35          6           0       -7.280021   -0.883671    0.614072
     36          6           0       -7.648563   -2.223427    0.894173
     37          6           0       -6.458585   -2.911845    0.679925
     38          6           0       -5.453073   -1.952693    0.394335
     39          6           0       -8.977234   -2.893744    1.218591
     40          6           0       -5.836273   -4.162785    0.676707
     41          8           0       -6.321855   -5.245679    0.947447
     42          6           0       -4.247147   -3.989503    0.355171
     43          6           0       -3.501787   -4.506164    1.496376
     44          8           0       -3.506353   -4.030730    2.649167
     45          8           0       -2.798683   -5.635484    1.216856
     46          6           0       -2.267474   -6.432764    2.328124
     47          6           0        2.955566   -3.862096   -1.188031
     48          6           0        3.769744   -2.685846   -1.603569
     49          6           0        5.098064   -2.606351   -1.976731
     50          6           0        6.038814   -3.845350   -2.036462
     51          6           0        5.725297   -1.296383   -2.376551
     52          6           0        6.198214   -1.146642   -3.810122
     53          6           0        7.756975   -0.991132   -3.885847
     54          6           0        8.203102    0.438563   -3.856018
     55          6           0        8.203560    1.043644   -5.264585
     56          6           0        9.492366    0.684641   -3.003903
     57          6           0        9.259031    1.625655   -1.802491
     58          6           0       10.606072    1.822604   -1.104173
     59          6           0       10.416294    2.111674    0.422686
     60          6           0       10.507959    3.638587    0.752250
     61          6           0       11.571921    1.477003    1.256442
     62          6           0       11.092113    0.631213    2.484918
     63          6           0       11.910934    0.877952    3.762447
     64          6           0       11.166518    0.905936    5.052978
     65          6           0       11.120413    2.337660    5.646241
     66          6           0       11.707986   -0.175698    6.072969
     67          1           0       -0.353750    1.547295   -0.724108
     68          1           0       -5.611291    5.246770    0.083143
     69          1           0       -9.166878    0.047244    0.597638
     70          1           0       -1.370001   -3.012307    0.546949
     71          1           0       -0.093222   -0.895191   -1.145183
     72          1           0        1.299347   -0.749831    0.480423
     73          1           0        0.121607   -1.726305    1.529638
     74          1           0        0.240811    0.071239    1.511574
     75          1           0       -0.941392   -2.396668   -2.244268
     76          1           0       -2.398880   -3.196708   -2.127322
     77          1           0       -0.671888   -4.788202   -2.720771
     78          1           0       -1.284494   -5.137911   -1.094604
     79          1           0       -0.420632    4.977944   -1.871377
     80          1           0        0.058695    3.361191   -1.423822
     81          1           0        0.196065    4.650335   -0.226086
     82          1           0       -1.556881    6.787086   -2.095901
     83          1           0       -1.272079    7.463717   -0.386307
     84          1           0       -2.456524    8.127214   -1.476320
     85          1           0       -8.005912    4.704562   -0.142252
     86          1           0       -9.447610    2.681571    1.542313
     87          1           0       -8.791738    4.517389    2.645680
     88          1           0       -8.731793    5.846317    1.473463
     89          1           0       -7.198457    5.308133    2.283990
     90          1           0      -10.165651    3.704055   -0.677273
     91          1           0      -10.764120    2.159802   -0.084469
     92          1           0       -9.799108    2.643429   -2.626926
     93          1           0      -10.095799    1.054463   -1.917386
     94          1           0       -8.499898    1.795947   -1.738909
     95          1           0       -9.769970   -2.145243    1.188811
     96          1           0       -8.911054   -3.361386    2.201275
     97          1           0       -9.165131   -3.665685    0.472862
     98          1           0       -4.146525   -4.681384   -0.481560
     99          1           0       -2.090074   -7.479128    2.079241
    100          1           0       -2.798386   -6.333069    3.274377
    101          1           0       -1.242741   -6.083343    2.455271
    102          1           0        3.448634   -4.640038   -1.771326
    103          1           0        3.064693   -3.839233   -0.104122
    104          1           0        3.213891   -1.748866   -1.632021
    105          1           0        7.052698   -3.561681   -1.756498
    106          1           0        6.147681   -4.205128   -3.059768
    107          1           0        5.621334   -4.628196   -1.402490
    108          1           0        6.586179   -1.053571   -1.754670
    109          1           0        4.924040   -0.567371   -2.250012
    110          1           0        5.651705   -0.429666   -4.421485
    111          1           0        5.923858   -2.091941   -4.279603
    112          1           0        7.980218   -1.495960   -4.825442
    113          1           0        8.276946   -1.620643   -3.163579
    114          1           0        7.475098    1.048176   -3.321676
    115          1           0        7.462292    1.841461   -5.316182
    116          1           0        7.789296    0.381203   -6.023945
    117          1           0        9.195232    1.332832   -5.614102
    118          1           0       10.324230    0.996638   -3.635825
    119          1           0        9.694984   -0.272760   -2.522543
    120          1           0        8.552683    1.041658   -1.211278
    121          1           0        8.874007    2.609262   -2.071884
    122          1           0       11.130505    2.639647   -1.598841
    123          1           0       11.315592    1.005053   -1.236208
    124          1           0        9.436481    1.764154    0.750505
    125          1           0       10.344732    3.769318    1.821827
    126          1           0        9.721816    4.056864    0.124285
    127          1           0       11.448041    3.945699    0.293353
    128          1           0       12.235189    2.238525    1.666981
    129          1           0       12.170669    0.822799    0.622148
    130          1           0       11.116162   -0.426040    2.224591
    131          1           0       10.055214    0.877270    2.714514
    132          1           0       12.596196    1.720944    3.669228
    133          1           0       12.618599    0.048686    3.786387
    134          1           0       10.136939    0.655483    4.798101
    135          1           0       10.123247    2.383432    6.081808
    136          1           0       11.175714    3.069918    4.841464
    137          1           0       11.846319    2.522399    6.439145
    138          1           0       12.792193   -0.248059    6.154329
    139          1           0       11.295623   -1.185197    6.048750
    140          1           0       11.363459    0.061293    7.080084
 ---------------------------------------------------------------------

 SCF Done:  E(RB-LYP) =  -3007.38644472     A.U. after   21 cycles

 Excitation energies and oscillator strengths:

 Excited State   1:      Singlet-A      1.8183 eV  681.88 nm  f=0.2617  <S**2>=0.000
     243 -> 247        0.19038
     245 -> 247        0.10866
     245 -> 248       -0.16566
     246 -> 247        0.65458
     246 <- 247       -0.14173
 This state for optimization and/or second-order correction.
 Total Energy, E(TD-HF/TD-DFT) =  -3007.31962425
 Copying the excited state density for this state as the 1-particle RhoCI density.

 Excited State   2:      Singlet-A      1.8780 eV  660.19 nm  f=0.0202  <S**2>=0.000
     244 -> 247        0.67889
     245 -> 247        0.16009

 Excited State   3:      Singlet-A      1.9263 eV  643.63 nm  f=0.0476  <S**2>=0.000
     243 -> 247        0.63880
     244 -> 247       -0.11056
     245 -> 247        0.18613
     246 -> 247       -0.19565

 Excited State   4:      Singlet-A      2.0271 eV  611.63 nm  f=0.1208  <S**2>=0.000
     243 -> 247       -0.22782
     244 -> 247       -0.14773
     245 -> 247        0.61082
     246 -> 248        0.17454

 Excited State   5:      Singlet-A      2.3365 eV  530.64 nm  f=0.0007  <S**2>=0.000
     242 -> 247        0.70299

 The electronic state is 1-A.
 Alpha  occ. eigenvalues --  -46.27508 -18.83480 -18.81516 -18.76341 -18.75548
 Alpha  occ. eigenvalues --  -18.75460 -18.74962 -14.03259 -14.02716 -14.01084
 Alpha  occ. eigenvalues --  -14.01055 -10.04113 -10.02994 -10.00013  -9.99129
 Alpha  occ. eigenvalues --   -9.99127  -9.96718  -9.96600  -9.96377  -9.96140
 Alpha  occ. eigenvalues --   -9.95715  -9.95690  -9.95615  -9.95590  -9.94684
 Alpha  occ. eigenvalues --   -9.94531  -9.94155  -9.94015  -9.93687  -9.93669
 Alpha  occ. eigenvalues --   -9.93646  -9.93620  -9.93604  -9.93422  -9.93418
 Alpha  occ. eigenvalues --   -9.93412  -9.93206  -9.93121  -9.92956  -9.92940
 Alpha  occ. eigenvalues --   -9.92816  -9.92690  -9.92539  -9.92518  -9.92334
 Alpha  occ. eigenvalues --   -9.92185  -9.92070  -9.92060  -9.92008  -9.91996
 Alpha  occ. eigenvalues --   -9.91813  -9.91804  -9.91716  -9.91564  -9.91495
 Alpha  occ. eigenvalues --   -9.91405  -9.91176  -9.91161  -9.91135  -9.91133
 Alpha  occ. eigenvalues --   -9.91006  -9.90944  -9.90900  -9.90689  -9.90640
 Alpha  occ. eigenvalues --   -9.90060  -2.92213  -1.72622  -1.72061  -1.71968
 Alpha  occ. eigenvalues --   -0.98966  -0.96764  -0.91456  -0.90962  -0.89165
 Alpha  occ. eigenvalues --   -0.87698  -0.87373  -0.86923  -0.86457  -0.85865
 Alpha  occ. eigenvalues --   -0.75386  -0.74431  -0.73360  -0.72734  -0.72312
 Alpha  occ. eigenvalues --   -0.72220  -0.71641  -0.71275  -0.71169  -0.70728
 Alpha  occ. eigenvalues --   -0.70041  -0.69584  -0.68511  -0.67496  -0.67478
 Alpha  occ. eigenvalues --   -0.66977  -0.65893  -0.65294  -0.65132  -0.64498
 Alpha  occ. eigenvalues --   -0.64304  -0.62779  -0.62332  -0.61812  -0.61171
 Alpha  occ. eigenvalues --   -0.60778  -0.60290  -0.60174  -0.59732  -0.58988
 Alpha  occ. eigenvalues --   -0.58665  -0.58174  -0.56675  -0.56087  -0.55003
 Alpha  occ. eigenvalues --   -0.54363  -0.54106  -0.52913  -0.52553  -0.51730
 Alpha  occ. eigenvalues --   -0.51148  -0.51125  -0.50682  -0.50580  -0.50217
 Alpha  occ. eigenvalues --   -0.50089  -0.49669  -0.48656  -0.48190  -0.46992
 Alpha  occ. eigenvalues --   -0.46498  -0.46167  -0.45685  -0.44942  -0.44451
 Alpha  occ. eigenvalues --   -0.44223  -0.43904  -0.43163  -0.42831  -0.42287
 Alpha  occ. eigenvalues --   -0.42175  -0.41997  -0.41814  -0.41502  -0.41331
 Alpha  occ. eigenvalues --   -0.41134  -0.40717  -0.40575  -0.40360  -0.40035
 Alpha  occ. eigenvalues --   -0.39918  -0.39845  -0.39640  -0.39303  -0.39166
 Alpha  occ. eigenvalues --   -0.38935  -0.38789  -0.38482  -0.38273  -0.38129
 Alpha  occ. eigenvalues --   -0.38087  -0.38025  -0.37904  -0.37578  -0.37469
 Alpha  occ. eigenvalues --   -0.37023  -0.36950  -0.36757  -0.36559  -0.36486
 Alpha  occ. eigenvalues --   -0.36328  -0.36106  -0.35866  -0.35811  -0.35657
 Alpha  occ. eigenvalues --   -0.35478  -0.35312  -0.35232  -0.34980  -0.34818
 Alpha  occ. eigenvalues --   -0.34764  -0.34443  -0.34175  -0.34135  -0.34083
 Alpha  occ. eigenvalues --   -0.34018  -0.33845  -0.33544  -0.33404  -0.33317
 Alpha  occ. eigenvalues --   -0.33163  -0.32855  -0.32588  -0.32507  -0.32376
 Alpha  occ. eigenvalues --   -0.32227  -0.32163  -0.32095  -0.31749  -0.31468
 Alpha  occ. eigenvalues --   -0.31285  -0.30932  -0.30746  -0.30567  -0.30509
 Alpha  occ. eigenvalues --   -0.30376  -0.30218  -0.30107  -0.30052  -0.29654
 Alpha  occ. eigenvalues --   -0.29487  -0.29381  -0.29176  -0.29064  -0.28892
 Alpha  occ. eigenvalues --   -0.28806  -0.28626  -0.28586  -0.28086  -0.28040
 Alpha  occ. eigenvalues --   -0.27530  -0.27511  -0.27231  -0.26924  -0.26770
 Alpha  occ. eigenvalues --   -0.26582  -0.26035  -0.26016  -0.25919  -0.25508
 Alpha  occ. eigenvalues --   -0.25389  -0.24752  -0.23703  -0.23660  -0.23618
 Alpha  occ. eigenvalues --   -0.23482  -0.22095  -0.21617  -0.21444  -0.20850
 Alpha  occ. eigenvalues --   -0.20469  -0.20319  -0.18730  -0.18570  -0.17167
 Alpha  occ. eigenvalues --   -0.16061
 Alpha virt. eigenvalues --   -0.11757  -0.06566  -0.06121  -0.04401  -0.03408
 Alpha virt. eigenvalues --   -0.03173  -0.02876  -0.02378  -0.00990   0.00470
 Alpha virt. eigenvalues --    0.01138   0.01703   0.02149   0.02383   0.02457

 Mulliken charges:
               1
     1  Mg   0.705807
     2  C    0.041048
     3  C   -0.038770
     4  C   -0.033776
     5  C   -0.079274
     6  N   -0.187110
     7  C   -0.085043
     8  C   -0.013699
     9  C   -0.011505
    10  C    0.002910
    11  C    0.120198
    12  C    0.103589
    13  C    0.186305
    14  C    0.051186
    15  O   -0.217565
    16  O   -0.258263
    17  N   -0.190872
    18  C    0.099943
    19  C   -0.128912
    20  C    0.024112
    21  C    0.045203
    22  C    0.181535
    23  C   -0.080392
    24  O   -0.175919
    25  C    0.128276
    26  N   -0.204616
    27  C    0.006241
    28  C    0.022155
    29  C    0.058938
    30  C    0.038129
    31  C    0.140047
    32  C    0.038771
    33  C    0.073476
    34  N   -0.293169
    35  C    0.090776
    36  C   -0.185382
    37  C    0.176491
    38  C    0.064844
    39  C    0.185418
    40  C   -0.142657
    41  O   -0.129615
    42  C    0.095982
    43  C    0.101862
    44  O   -0.218215
    45  O   -0.261094
    46  C    0.224906
    47  C    0.352051
    48  C   -0.156654
    49  C   -0.165220
    50  C    0.120836
    51  C    0.175305
    52  C    0.053309
    53  C    0.096411
    54  C   -0.039235
    55  C    0.122018
    56  C    0.083976
    57  C    0.048544
    58  C    0.106280
    59  C   -0.090891
    60  C    0.112319
    61  C    0.107371
    62  C    0.057529
    63  C    0.107621
    64  C   -0.068350
    65  C    0.103779
    66  C    0.087894
    67  H   -0.070942
    68  H   -0.047268
    69  H   -0.054919
    70  H    0.007911
    71  H   -0.012600
    72  H   -0.011582
    73  H    0.010582
    74  H   -0.007955
    75  H   -0.037401
    76  H   -0.024360
    77  H    0.000233
    78  H   -0.004342
    79  H   -0.016098
    80  H   -0.013825
    81  H    0.011652
    82  H    0.005548
    83  H    0.018162
    84  H   -0.010405
    85  H   -0.024193
    86  H   -0.026243
    87  H   -0.008874
    88  H   -0.005141
    89  H    0.005187
    90  H   -0.024027
    91  H   -0.022681
    92  H   -0.010253
    93  H   -0.007660
    94  H   -0.004353
    95  H   -0.019802
    96  H    0.017902
    97  H    0.013238
    98  H   -0.013949
    99  H    0.010652
   100  H    0.027782
   101  H    0.007544
   102  H    0.014479
   103  H    0.029361
   104  H   -0.035491
   105  H   -0.006372
   106  H    0.006303
   107  H    0.002122
   108  H   -0.017192
   109  H   -0.049143
   110  H   -0.027540
   111  H   -0.043660
   112  H   -0.041666
   113  H   -0.042576
   114  H   -0.039239
   115  H   -0.023325
   116  H   -0.032527
   117  H   -0.010866
   118  H   -0.029681
   119  H   -0.039784
   120  H   -0.019419
   121  H   -0.016482
   122  H   -0.043118
   123  H   -0.036915
   124  H   -0.030660
   125  H    0.003468
   126  H   -0.031945
   127  H   -0.010052
   128  H   -0.034535
   129  H   -0.039963
   130  H   -0.026127
   131  H   -0.033145
   132  H   -0.041453
   133  H   -0.051451
   134  H   -0.039680
   135  H   -0.019880
   136  H   -0.012140
   137  H   -0.006988
   138  H   -0.009144
   139  H   -0.020597
   140  H   -0.037690
 Sum of Mulliken charges =  -0.00000

 Dipole moment (field-independent basis, Debye):
    X=              3.3174    Y=              1.8386    Z=             -4.9996  Tot=              6.2755
 Quadrupole moment (field-independent basis, Debye-Ang):
   XX=           -374.7761   YY=           -439.6831   ZZ=           -405.2289
   XY=            -19.2034   XZ=              7.0528   YZ=              6.0225

 Normal termination of Gaussian 16 at Wed May  4 16:51:15 2022.
