 Gaussian 16, Revision A.03,
 Gaussian 16:  ES64L-G16RevA.03 25-Dec-2016

 -----------------------------------
 #p cam-b3lyp/Def2SVP td=(nstates=5)
 -----------------------------------

 ----------------------------------------------------
 step_1_chromophore_9 TDDFT with cam-b3lyp functional
 ----------------------------------------------------
 Symbolic Z-matrix:
 Charge =  0 Multiplicity = 1

                         Standard orientation:
 ---------------------------------------------------------------------
 Center     Atomic      Atomic             Coordinates (Angstroms)
 Number     Number       Type             X           Y           Z
 ---------------------------------------------------------------------
      1         12           0       -4.894473    0.863483   -0.047349
      2          6           0       -4.159977   -2.486147    0.163152
      3          6           0       -1.421653    1.487204   -0.505738
      4          6           0       -5.370911    4.196438    0.259387
      5          6           0       -8.111144    0.297027    0.716061
      6          7           0       -3.004780   -0.375080   -0.153035
      7          6           0       -2.993198   -1.737695   -0.020725
      8          6           0       -1.588791   -2.300660   -0.250185
      9          6           0       -0.727326   -0.954504   -0.260434
     10          6           0       -1.768025    0.125740   -0.307112
     11          6           0        0.306544   -0.842059    0.919468
     12          6           0       -1.443179   -3.126718   -1.608936
     13          6           0       -0.698685   -4.437711   -1.689031
     14          6           0        0.641610   -4.530632   -1.050646
     15          8           0        0.875889   -5.288563   -0.092137
     16          8           0        1.528463   -3.713341   -1.606823
     17          7           0       -3.595334    2.645363   -0.161904
     18          6           0       -2.294132    2.688039   -0.523491
     19          6           0       -1.856914    4.026526   -0.739694
     20          6           0       -3.008908    4.854132   -0.553630
     21          6           0       -4.036616    3.887104   -0.064741
     22          6           0       -0.413854    4.267877   -1.045225
     23          6           0       -3.107665    6.369645   -0.591025
     24          8           0       -4.082897    6.980235   -0.142493
     25          6           0       -1.975583    7.195866   -1.175813
     26          7           0       -6.505241    2.107434    0.580344
     27          6           0       -6.482247    3.463489    0.493139
     28          6           0       -7.878556    4.042565    0.714545
     29          6           0       -8.781716    2.751408    0.683012
     30          6           0       -7.747856    1.643160    0.650160
     31          6           0       -8.172935    5.012068    1.897169
     32          6           0       -9.879744    2.676118   -0.458511
     33          6           0       -9.569987    1.999846   -1.777242
     34          7           0       -5.928347   -0.711713    0.455056
     35          6           0       -7.280021   -0.883671    0.614072
     36          6           0       -7.648563   -2.223427    0.894173
     37          6           0       -6.458585   -2.911845    0.679925
     38          6           0       -5.453073   -1.952693    0.394335
     39          6           0       -8.977234   -2.893744    1.218591
     40          6           0       -5.836273   -4.162785    0.676707
     41          8           0       -6.321855   -5.245679    0.947447
     42          6           0       -4.247147   -3.989503    0.355171
     43          6           0       -3.501787   -4.506164    1.496376
     44          8           0       -3.506353   -4.030730    2.649167
     45          8           0       -2.798683   -5.635484    1.216856
     46          6           0       -2.267474   -6.432764    2.328124
     47          6           0        2.955566   -3.862096   -1.188031
     48          6           0        3.769744   -2.685846   -1.603569
     49          6           0        5.098064   -2.606351   -1.976731
     50          6           0        6.038814   -3.845350   -2.036462
     51          6           0        5.725297   -1.296383   -2.376551
     52          6           0        6.198214   -1.146642   -3.810122
     53          6           0        7.756975   -0.991132   -3.885847
     54          6           0        8.203102    0.438563   -3.856018
     55          6           0        8.203560    1.043644   -5.264585
     56          6           0        9.492366    0.684641   -3.003903
     57          6           0        9.259031    1.625655   -1.802491
     58          6           0       10.606072    1.822604   -1.104173
     59          6           0       10.416294    2.111674    0.422686
     60          6           0       10.507959    3.638587    0.752250
     61          6           0       11.571921    1.477003    1.256442
     62          6           0       11.092113    0.631213    2.484918
     63          6           0       11.910934    0.877952    3.762447
     64          6           0       11.166518    0.905936    5.052978
     65          6           0       11.120413    2.337660    5.646241
     66          6           0       11.707986   -0.175698    6.072969
     67          1           0       -0.353750    1.547295   -0.724108
     68          1           0       -5.611291    5.246770    0.083143
     69          1           0       -9.166878    0.047244    0.597638
     70          1           0       -1.370001   -3.012307    0.546949
     71          1           0       -0.093222   -0.895191   -1.145183
     72          1           0        1.299347   -0.749831    0.480423
     73          1           0        0.121607   -1.726305    1.529638
     74          1           0        0.240811    0.071239    1.511574
     75          1           0       -0.941392   -2.396668   -2.244268
     76          1           0       -2.398880   -3.196708   -2.127322
     77          1           0       -0.671888   -4.788202   -2.720771
     78          1           0       -1.284494   -5.137911   -1.094604
     79          1           0       -0.420632    4.977944   -1.871377
     80          1           0        0.058695    3.361191   -1.423822
     81          1           0        0.196065    4.650335   -0.226086
     82          1           0       -1.556881    6.787086   -2.095901
     83          1           0       -1.272079    7.463717   -0.386307
     84          1           0       -2.456524    8.127214   -1.476320
     85          1           0       -8.005912    4.704562   -0.142252
     86          1           0       -9.447610    2.681571    1.542313
     87          1           0       -8.791738    4.517389    2.645680
     88          1           0       -8.731793    5.846317    1.473463
     89          1           0       -7.198457    5.308133    2.283990
     90          1           0      -10.165651    3.704055   -0.677273
     91          1           0      -10.764120    2.159802   -0.084469
     92          1           0       -9.799108    2.643429   -2.626926
     93          1           0      -10.095799    1.054463   -1.917386
     94          1           0       -8.499898    1.795947   -1.738909
     95          1           0       -9.769970   -2.145243    1.188811
     96          1           0       -8.911054   -3.361386    2.201275
     97          1           0       -9.165131   -3.665685    0.472862
     98          1           0       -4.146525   -4.681384   -0.481560
     99          1           0       -2.090074   -7.479128    2.079241
    100          1           0       -2.798386   -6.333069    3.274377
    101          1           0       -1.242741   -6.083343    2.455271
    102          1           0        3.448634   -4.640038   -1.771326
    103          1           0        3.064693   -3.839233   -0.104122
    104          1           0        3.213891   -1.748866   -1.632021
    105          1           0        7.052698   -3.561681   -1.756498
    106          1           0        6.147681   -4.205128   -3.059768
    107          1           0        5.621334   -4.628196   -1.402490
    108          1           0        6.586179   -1.053571   -1.754670
    109          1           0        4.924040   -0.567371   -2.250012
    110          1           0        5.651705   -0.429666   -4.421485
    111          1           0        5.923858   -2.091941   -4.279603
    112          1           0        7.980218   -1.495960   -4.825442
    113          1           0        8.276946   -1.620643   -3.163579
    114          1           0        7.475098    1.048176   -3.321676
    115          1           0        7.462292    1.841461   -5.316182
    116          1           0        7.789296    0.381203   -6.023945
    117          1           0        9.195232    1.332832   -5.614102
    118          1           0       10.324230    0.996638   -3.635825
    119          1           0        9.694984   -0.272760   -2.522543
    120          1           0        8.552683    1.041658   -1.211278
    121          1           0        8.874007    2.609262   -2.071884
    122          1           0       11.130505    2.639647   -1.598841
    123          1           0       11.315592    1.005053   -1.236208
    124          1           0        9.436481    1.764154    0.750505
    125          1           0       10.344732    3.769318    1.821827
    126          1           0        9.721816    4.056864    0.124285
    127          1           0       11.448041    3.945699    0.293353
    128          1           0       12.235189    2.238525    1.666981
    129          1           0       12.170669    0.822799    0.622148
    130          1           0       11.116162   -0.426040    2.224591
    131          1           0       10.055214    0.877270    2.714514
    132          1           0       12.596196    1.720944    3.669228
    133          1           0       12.618599    0.048686    3.786387
    134          1           0       10.136939    0.655483    4.798101
    135          1           0       10.123247    2.383432    6.081808
    136          1           0       11.175714    3.069918    4.841464
    137          1           0       11.846319    2.522399    6.439145
    138          1           0       12.792193   -0.248059    6.154329
    139          1           0       11.295623   -1.185197    6.048750
    140          1           0       11.363459    0.061293    7.080084
 ---------------------------------------------------------------------

 SCF Done:  E(RCAM-B3LYP) =  -3007.18551495     A.U. after   16 cycles

 Excitation energies and oscillator strengths:

 Excited State   1:      Singlet-A      1.7201 eV  720.79 nm  f=0.4073  <S**2>=0.000
     245 -> 248       -0.17837
     246 -> 247        0.68648
     245 <- 248       -0.10695
 This state for optimization and/or second-order correction.
 Total Energy, E(TD-HF/TD-DFT) =  -3007.12230225
 Copying the excited state density for this state as the 1-particle RhoCI density.

 Excited State   2:      Singlet-A      2.1898 eV  566.18 nm  f=0.1828  <S**2>=0.000
     245 -> 247        0.66251
     246 -> 248        0.23736

 Excited State   3:      Singlet-A      3.3951 eV  365.19 nm  f=0.0022  <S**2>=0.000
     242 -> 247       -0.36634
     242 -> 249        0.21626
     242 -> 251        0.15494
     244 -> 247        0.50028

 Excited State   4:      Singlet-A      3.4375 eV  360.68 nm  f=0.0019  <S**2>=0.000
     242 -> 247        0.47220
     244 -> 247        0.44085
     244 -> 249        0.10510
     246 -> 248       -0.13011

 Excited State   5:      Singlet-A      3.6129 eV  343.18 nm  f=0.0146  <S**2>=0.000
     239 -> 247        0.25866
     239 -> 249        0.15231
     240 -> 247        0.40362
     240 -> 248       -0.10758
     240 -> 249        0.21334
     240 -> 251       -0.13102
     241 -> 247        0.29517
     244 -> 247       -0.11448
     246 -> 248       -0.12206

 The electronic state is 1-A.
 Alpha  occ. eigenvalues --  -46.89081 -19.26408 -19.24461 -19.19223 -19.18858
 Alpha  occ. eigenvalues --  -19.18478 -19.18091 -14.42134 -14.41511 -14.39553
 Alpha  occ. eigenvalues --  -14.39461 -10.39286 -10.38508 -10.35349 -10.34392
 Alpha  occ. eigenvalues --  -10.33273 -10.31099 -10.30854 -10.30657 -10.30403
 Alpha  occ. eigenvalues --  -10.30092 -10.30039 -10.30017 -10.29852 -10.28958
 Alpha  occ. eigenvalues --  -10.28638 -10.28438 -10.28332 -10.28096 -10.28004
 Alpha  occ. eigenvalues --  -10.27959 -10.27936 -10.27666 -10.27474 -10.27432
 Alpha  occ. eigenvalues --  -10.27314 -10.27287 -10.27060 -10.26925 -10.26920
 Alpha  occ. eigenvalues --  -10.26877 -10.26576 -10.26360 -10.26211 -10.26182
 Alpha  occ. eigenvalues --  -10.26034 -10.25935 -10.25790 -10.25700 -10.25685
 Alpha  occ. eigenvalues --  -10.25586 -10.25531 -10.25402 -10.25276 -10.25175
 Alpha  occ. eigenvalues --  -10.25133 -10.25023 -10.24887 -10.24753 -10.24753
 Alpha  occ. eigenvalues --  -10.24678 -10.24574 -10.24564 -10.24488 -10.24405
 Alpha  occ. eigenvalues --  -10.23673  -3.17690  -1.92573  -1.92106  -1.92039
 Alpha  occ. eigenvalues --   -1.17394  -1.15282  -1.09757  -1.09444  -1.06984
 Alpha  occ. eigenvalues --   -1.05456  -1.05247  -1.04607  -1.04137  -1.03470
 Alpha  occ. eigenvalues --   -0.92520  -0.91384  -0.90180  -0.89496  -0.89052
 Alpha  occ. eigenvalues --   -0.88978  -0.88211  -0.87893  -0.87773  -0.87396
 Alpha  occ. eigenvalues --   -0.86530  -0.85975  -0.84852  -0.83687  -0.83623
 Alpha  occ. eigenvalues --   -0.83085  -0.82081  -0.81265  -0.81033  -0.80323
 Alpha  occ. eigenvalues --   -0.80195  -0.78472  -0.78033  -0.77273  -0.76620
 Alpha  occ. eigenvalues --   -0.76179  -0.75580  -0.75524  -0.75039  -0.74254
 Alpha  occ. eigenvalues --   -0.73748  -0.73191  -0.71575  -0.70941  -0.69587
 Alpha  occ. eigenvalues --   -0.69053  -0.68691  -0.67446  -0.66941  -0.65932
 Alpha  occ. eigenvalues --   -0.65368  -0.65065  -0.64730  -0.64554  -0.64230
 Alpha  occ. eigenvalues --   -0.64022  -0.63646  -0.62557  -0.61839  -0.60601
 Alpha  occ. eigenvalues --   -0.60157  -0.59741  -0.59173  -0.58303  -0.57882
 Alpha  occ. eigenvalues --   -0.57691  -0.57252  -0.56294  -0.56019  -0.55282
 Alpha  occ. eigenvalues --   -0.55135  -0.55006  -0.54830  -0.54683  -0.54227
 Alpha  occ. eigenvalues --   -0.53847  -0.53710  -0.53554  -0.53038  -0.52934
 Alpha  occ. eigenvalues --   -0.52713  -0.52532  -0.52420  -0.52098  -0.51760
 Alpha  occ. eigenvalues --   -0.51334  -0.51283  -0.51234  -0.50780  -0.50547
 Alpha  occ. eigenvalues --   -0.50449  -0.50348  -0.50191  -0.49847  -0.49752
 Alpha  occ. eigenvalues --   -0.49433  -0.49207  -0.49034  -0.48843  -0.48719
 Alpha  occ. eigenvalues --   -0.48628  -0.48578  -0.48267  -0.48263  -0.47947
 Alpha  occ. eigenvalues --   -0.47632  -0.47482  -0.47102  -0.47046  -0.46828
 Alpha  occ. eigenvalues --   -0.46679  -0.46300  -0.46078  -0.45920  -0.45897
 Alpha  occ. eigenvalues --   -0.45849  -0.45696  -0.45270  -0.45222  -0.45154
 Alpha  occ. eigenvalues --   -0.44796  -0.44614  -0.44252  -0.44195  -0.44014
 Alpha  occ. eigenvalues --   -0.43867  -0.43809  -0.43593  -0.43390  -0.43146
 Alpha  occ. eigenvalues --   -0.43040  -0.42684  -0.42034  -0.41950  -0.41817
 Alpha  occ. eigenvalues --   -0.41788  -0.41718  -0.41479  -0.41355  -0.40922
 Alpha  occ. eigenvalues --   -0.40830  -0.40733  -0.40476  -0.40360  -0.40101
 Alpha  occ. eigenvalues --   -0.39941  -0.39742  -0.39591  -0.39114  -0.39021
 Alpha  occ. eigenvalues --   -0.38399  -0.38372  -0.38160  -0.38120  -0.37770
 Alpha  occ. eigenvalues --   -0.37458  -0.37256  -0.36777  -0.36620  -0.36137
 Alpha  occ. eigenvalues --   -0.36093  -0.35266  -0.35061  -0.34554  -0.34110
 Alpha  occ. eigenvalues --   -0.33777  -0.33086  -0.32764  -0.31313  -0.31199
 Alpha  occ. eigenvalues --   -0.30825  -0.30306  -0.30254  -0.30059  -0.23801
 Alpha  occ. eigenvalues --   -0.21441
 Alpha virt. eigenvalues --   -0.09050  -0.01175   0.00264   0.01856   0.02538
 Alpha virt. eigenvalues --    0.04010   0.04838   0.05167   0.06218   0.06795
 Alpha virt. eigenvalues --    0.08000   0.08370   0.08508   0.08665   0.08855

 Mulliken charges:
               1
     1  Mg   0.838614
     2  C    0.010685
     3  C   -0.053317
     4  C   -0.054109
     5  C   -0.074627
     6  N   -0.258995
     7  C   -0.037178
     8  C   -0.062495
     9  C   -0.065639
    10  C    0.025282
    11  C    0.066573
    12  C    0.052944
    13  C    0.113935
    14  C    0.130587
    15  O   -0.260100
    16  O   -0.321103
    17  N   -0.276061
    18  C    0.108629
    19  C   -0.140340
    20  C   -0.039039
    21  C    0.073721
    22  C    0.126880
    23  C   -0.001595
    24  O   -0.216533
    25  C    0.046194
    26  N   -0.278449
    27  C    0.028163
    28  C   -0.031794
    29  C    0.005462
    30  C    0.043956
    31  C    0.083032
    32  C   -0.011477
    33  C    0.012531
    34  N   -0.385079
    35  C    0.091499
    36  C   -0.180211
    37  C    0.093644
    38  C    0.100840
    39  C    0.138715
    40  C   -0.042767
    41  O   -0.170608
    42  C    0.017298
    43  C    0.192898
    44  O   -0.254010
    45  O   -0.325909
    46  C    0.184764
    47  C    0.319234
    48  C   -0.172518
    49  C   -0.185412
    50  C    0.063090
    51  C    0.115935
    52  C   -0.004327
    53  C    0.037586
    54  C   -0.098987
    55  C    0.063514
    56  C    0.035342
    57  C   -0.001714
    58  C    0.051398
    59  C   -0.149326
    60  C    0.059963
    61  C    0.054124
    62  C    0.008016
    63  C    0.046766
    64  C   -0.131592
    65  C    0.046103
    66  C    0.029022
    67  H   -0.036293
    68  H   -0.008491
    69  H   -0.023962
    70  H    0.037262
    71  H    0.020321
    72  H    0.009090
    73  H    0.034304
    74  H    0.018972
    75  H   -0.006006
    76  H    0.008118
    77  H    0.033316
    78  H    0.027227
    79  H    0.008729
    80  H    0.013964
    81  H    0.039380
    82  H    0.032927
    83  H    0.047515
    84  H    0.024730
    85  H    0.009679
    86  H    0.009992
    87  H    0.015209
    88  H    0.018407
    89  H    0.029853
    90  H    0.004339
    91  H    0.004839
    92  H    0.014674
    93  H    0.015419
    94  H    0.016039
    95  H    0.004199
    96  H    0.044294
    97  H    0.038620
    98  H    0.030034
    99  H    0.034206
   100  H    0.053030
   101  H    0.030436
   102  H    0.039658
   103  H    0.059412
   104  H   -0.004706
   105  H    0.017925
   106  H    0.030047
   107  H    0.025313
   108  H    0.009871
   109  H   -0.016445
   110  H    0.002071
   111  H   -0.012542
   112  H   -0.010026
   113  H   -0.014603
   114  H   -0.006390
   115  H    0.001085
   116  H   -0.007072
   117  H    0.013210
   118  H   -0.002409
   119  H   -0.010634
   120  H    0.004995
   121  H    0.009142
   122  H   -0.013277
   123  H   -0.007035
   124  H   -0.000006
   125  H    0.024563
   126  H   -0.007910
   127  H    0.012226
   128  H   -0.006039
   129  H   -0.010461
   130  H    0.001807
   131  H   -0.007551
   132  H   -0.011701
   133  H   -0.019302
   134  H   -0.006604
   135  H    0.004191
   136  H    0.009675
   137  H    0.016732
   138  H    0.014013
   139  H    0.004952
   140  H   -0.012172
 Sum of Mulliken charges =  -0.00000

 Dipole moment (field-independent basis, Debye):
    X=              3.7892    Y=              2.2817    Z=             -5.4124  Tot=              6.9898
 Quadrupole moment (field-independent basis, Debye-Ang):
   XX=           -374.5894   YY=           -436.2377   ZZ=           -404.8402
   XY=            -20.3167   XZ=              7.9995   YZ=              5.1713

 Normal termination of Gaussian 16 at Wed May  4 15:56:19 2022.
