 Gaussian 16, Revision A.03,
 Gaussian 16:  ES64L-G16RevA.03 25-Dec-2016

 ---------------------------------
 #p PBE1PBE/Def2SVP td=(nstates=5)
 ---------------------------------

 --------------------------------------------------
 step_1_chromophore_9 TDDFT with PBE1PBE functional
 --------------------------------------------------
 Symbolic Z-matrix:
 Charge =  0 Multiplicity = 1

                         Standard orientation:
 ---------------------------------------------------------------------
 Center     Atomic      Atomic             Coordinates (Angstroms)
 Number     Number       Type             X           Y           Z
 ---------------------------------------------------------------------
      1         12           0       -4.894473    0.863483   -0.047349
      2          6           0       -4.159977   -2.486147    0.163152
      3          6           0       -1.421653    1.487204   -0.505738
      4          6           0       -5.370911    4.196438    0.259387
      5          6           0       -8.111144    0.297027    0.716061
      6          7           0       -3.004780   -0.375080   -0.153035
      7          6           0       -2.993198   -1.737695   -0.020725
      8          6           0       -1.588791   -2.300660   -0.250185
      9          6           0       -0.727326   -0.954504   -0.260434
     10          6           0       -1.768025    0.125740   -0.307112
     11          6           0        0.306544   -0.842059    0.919468
     12          6           0       -1.443179   -3.126718   -1.608936
     13          6           0       -0.698685   -4.437711   -1.689031
     14          6           0        0.641610   -4.530632   -1.050646
     15          8           0        0.875889   -5.288563   -0.092137
     16          8           0        1.528463   -3.713341   -1.606823
     17          7           0       -3.595334    2.645363   -0.161904
     18          6           0       -2.294132    2.688039   -0.523491
     19          6           0       -1.856914    4.026526   -0.739694
     20          6           0       -3.008908    4.854132   -0.553630
     21          6           0       -4.036616    3.887104   -0.064741
     22          6           0       -0.413854    4.267877   -1.045225
     23          6           0       -3.107665    6.369645   -0.591025
     24          8           0       -4.082897    6.980235   -0.142493
     25          6           0       -1.975583    7.195866   -1.175813
     26          7           0       -6.505241    2.107434    0.580344
     27          6           0       -6.482247    3.463489    0.493139
     28          6           0       -7.878556    4.042565    0.714545
     29          6           0       -8.781716    2.751408    0.683012
     30          6           0       -7.747856    1.643160    0.650160
     31          6           0       -8.172935    5.012068    1.897169
     32          6           0       -9.879744    2.676118   -0.458511
     33          6           0       -9.569987    1.999846   -1.777242
     34          7           0       -5.928347   -0.711713    0.455056
     35          6           0       -7.280021   -0.883671    0.614072
     36          6           0       -7.648563   -2.223427    0.894173
     37          6           0       -6.458585   -2.911845    0.679925
     38          6           0       -5.453073   -1.952693    0.394335
     39          6           0       -8.977234   -2.893744    1.218591
     40          6           0       -5.836273   -4.162785    0.676707
     41          8           0       -6.321855   -5.245679    0.947447
     42          6           0       -4.247147   -3.989503    0.355171
     43          6           0       -3.501787   -4.506164    1.496376
     44          8           0       -3.506353   -4.030730    2.649167
     45          8           0       -2.798683   -5.635484    1.216856
     46          6           0       -2.267474   -6.432764    2.328124
     47          6           0        2.955566   -3.862096   -1.188031
     48          6           0        3.769744   -2.685846   -1.603569
     49          6           0        5.098064   -2.606351   -1.976731
     50          6           0        6.038814   -3.845350   -2.036462
     51          6           0        5.725297   -1.296383   -2.376551
     52          6           0        6.198214   -1.146642   -3.810122
     53          6           0        7.756975   -0.991132   -3.885847
     54          6           0        8.203102    0.438563   -3.856018
     55          6           0        8.203560    1.043644   -5.264585
     56          6           0        9.492366    0.684641   -3.003903
     57          6           0        9.259031    1.625655   -1.802491
     58          6           0       10.606072    1.822604   -1.104173
     59          6           0       10.416294    2.111674    0.422686
     60          6           0       10.507959    3.638587    0.752250
     61          6           0       11.571921    1.477003    1.256442
     62          6           0       11.092113    0.631213    2.484918
     63          6           0       11.910934    0.877952    3.762447
     64          6           0       11.166518    0.905936    5.052978
     65          6           0       11.120413    2.337660    5.646241
     66          6           0       11.707986   -0.175698    6.072969
     67          1           0       -0.353750    1.547295   -0.724108
     68          1           0       -5.611291    5.246770    0.083143
     69          1           0       -9.166878    0.047244    0.597638
     70          1           0       -1.370001   -3.012307    0.546949
     71          1           0       -0.093222   -0.895191   -1.145183
     72          1           0        1.299347   -0.749831    0.480423
     73          1           0        0.121607   -1.726305    1.529638
     74          1           0        0.240811    0.071239    1.511574
     75          1           0       -0.941392   -2.396668   -2.244268
     76          1           0       -2.398880   -3.196708   -2.127322
     77          1           0       -0.671888   -4.788202   -2.720771
     78          1           0       -1.284494   -5.137911   -1.094604
     79          1           0       -0.420632    4.977944   -1.871377
     80          1           0        0.058695    3.361191   -1.423822
     81          1           0        0.196065    4.650335   -0.226086
     82          1           0       -1.556881    6.787086   -2.095901
     83          1           0       -1.272079    7.463717   -0.386307
     84          1           0       -2.456524    8.127214   -1.476320
     85          1           0       -8.005912    4.704562   -0.142252
     86          1           0       -9.447610    2.681571    1.542313
     87          1           0       -8.791738    4.517389    2.645680
     88          1           0       -8.731793    5.846317    1.473463
     89          1           0       -7.198457    5.308133    2.283990
     90          1           0      -10.165651    3.704055   -0.677273
     91          1           0      -10.764120    2.159802   -0.084469
     92          1           0       -9.799108    2.643429   -2.626926
     93          1           0      -10.095799    1.054463   -1.917386
     94          1           0       -8.499898    1.795947   -1.738909
     95          1           0       -9.769970   -2.145243    1.188811
     96          1           0       -8.911054   -3.361386    2.201275
     97          1           0       -9.165131   -3.665685    0.472862
     98          1           0       -4.146525   -4.681384   -0.481560
     99          1           0       -2.090074   -7.479128    2.079241
    100          1           0       -2.798386   -6.333069    3.274377
    101          1           0       -1.242741   -6.083343    2.455271
    102          1           0        3.448634   -4.640038   -1.771326
    103          1           0        3.064693   -3.839233   -0.104122
    104          1           0        3.213891   -1.748866   -1.632021
    105          1           0        7.052698   -3.561681   -1.756498
    106          1           0        6.147681   -4.205128   -3.059768
    107          1           0        5.621334   -4.628196   -1.402490
    108          1           0        6.586179   -1.053571   -1.754670
    109          1           0        4.924040   -0.567371   -2.250012
    110          1           0        5.651705   -0.429666   -4.421485
    111          1           0        5.923858   -2.091941   -4.279603
    112          1           0        7.980218   -1.495960   -4.825442
    113          1           0        8.276946   -1.620643   -3.163579
    114          1           0        7.475098    1.048176   -3.321676
    115          1           0        7.462292    1.841461   -5.316182
    116          1           0        7.789296    0.381203   -6.023945
    117          1           0        9.195232    1.332832   -5.614102
    118          1           0       10.324230    0.996638   -3.635825
    119          1           0        9.694984   -0.272760   -2.522543
    120          1           0        8.552683    1.041658   -1.211278
    121          1           0        8.874007    2.609262   -2.071884
    122          1           0       11.130505    2.639647   -1.598841
    123          1           0       11.315592    1.005053   -1.236208
    124          1           0        9.436481    1.764154    0.750505
    125          1           0       10.344732    3.769318    1.821827
    126          1           0        9.721816    4.056864    0.124285
    127          1           0       11.448041    3.945699    0.293353
    128          1           0       12.235189    2.238525    1.666981
    129          1           0       12.170669    0.822799    0.622148
    130          1           0       11.116162   -0.426040    2.224591
    131          1           0       10.055214    0.877270    2.714514
    132          1           0       12.596196    1.720944    3.669228
    133          1           0       12.618599    0.048686    3.786387
    134          1           0       10.136939    0.655483    4.798101
    135          1           0       10.123247    2.383432    6.081808
    136          1           0       11.175714    3.069918    4.841464
    137          1           0       11.846319    2.522399    6.439145
    138          1           0       12.792193   -0.248059    6.154329
    139          1           0       11.295623   -1.185197    6.048750
    140          1           0       11.363459    0.061293    7.080084
 ---------------------------------------------------------------------

 SCF Done:  E(RPBE1PBE) =  -3005.37551575     A.U. after   15 cycles

 Excitation energies and oscillator strengths:

 Excited State   1:      Singlet-A      1.8781 eV  660.14 nm  f=0.3854  <S**2>=0.000
     245 -> 248       -0.17194
     246 -> 247        0.69331
     246 <- 247       -0.10987
 This state for optimization and/or second-order correction.
 Total Energy, E(TD-HF/TD-DFT) =  -3005.30649551
 Copying the excited state density for this state as the 1-particle RhoCI density.

 Excited State   2:      Singlet-A      2.2055 eV  562.16 nm  f=0.1741  <S**2>=0.000
     245 -> 247        0.67024
     246 -> 248        0.21433

 Excited State   3:      Singlet-A      2.8765 eV  431.02 nm  f=0.0002  <S**2>=0.000
     244 -> 247        0.67609
     244 -> 249       -0.13954

 Excited State   4:      Singlet-A      3.0138 eV  411.38 nm  f=0.0036  <S**2>=0.000
     241 -> 247        0.19824
     243 -> 247        0.64408

 Excited State   5:      Singlet-A      3.1802 eV  389.86 nm  f=0.0039  <S**2>=0.000
     241 -> 247        0.65349
     243 -> 247       -0.21754

 The electronic state is 1-A.
 Alpha  occ. eigenvalues --  -46.92477 -19.27069 -19.25086 -19.19563 -19.19034
 Alpha  occ. eigenvalues --  -19.18796 -19.18308 -14.41621 -14.41011 -14.39133
 Alpha  occ. eigenvalues --  -14.39126 -10.36334 -10.35483 -10.32431 -10.31596
 Alpha  occ. eigenvalues --  -10.30661 -10.28842 -10.28507 -10.28167 -10.27891
 Alpha  occ. eigenvalues --  -10.27753 -10.27662 -10.27651 -10.27649 -10.26682
 Alpha  occ. eigenvalues --  -10.26475 -10.26125 -10.25908 -10.25817 -10.25753
 Alpha  occ. eigenvalues --  -10.25728 -10.25695 -10.25339 -10.25337 -10.25117
 Alpha  occ. eigenvalues --  -10.25113 -10.24963 -10.24566 -10.24468 -10.24287
 Alpha  occ. eigenvalues --  -10.24271 -10.24259 -10.23860 -10.23825 -10.23506
 Alpha  occ. eigenvalues --  -10.23473 -10.23407 -10.23353 -10.23352 -10.23305
 Alpha  occ. eigenvalues --  -10.23221 -10.23174 -10.22941 -10.22860 -10.22797
 Alpha  occ. eigenvalues --  -10.22711 -10.22464 -10.22431 -10.22349 -10.22212
 Alpha  occ. eigenvalues --  -10.22152 -10.22149 -10.21989 -10.21971 -10.21864
 Alpha  occ. eigenvalues --  -10.21200  -3.14665  -1.87489  -1.87000  -1.86937
 Alpha  occ. eigenvalues --   -1.12233  -1.10038  -1.04576  -1.04119  -1.01859
 Alpha  occ. eigenvalues --   -1.00194  -0.99988  -0.99292  -0.98759  -0.98121
 Alpha  occ. eigenvalues --   -0.86896  -0.85500  -0.84312  -0.83655  -0.83287
 Alpha  occ. eigenvalues --   -0.83182  -0.82499  -0.82161  -0.82006  -0.81672
 Alpha  occ. eigenvalues --   -0.80837  -0.80216  -0.79077  -0.77971  -0.77874
 Alpha  occ. eigenvalues --   -0.77322  -0.76282  -0.75459  -0.75278  -0.74550
 Alpha  occ. eigenvalues --   -0.74436  -0.72766  -0.72282  -0.71602  -0.70768
 Alpha  occ. eigenvalues --   -0.70495  -0.69925  -0.69600  -0.69192  -0.68405
 Alpha  occ. eigenvalues --   -0.68184  -0.67549  -0.65982  -0.65289  -0.63965
 Alpha  occ. eigenvalues --   -0.63517  -0.62951  -0.61880  -0.61202  -0.60400
 Alpha  occ. eigenvalues --   -0.59625  -0.59577  -0.59200  -0.58930  -0.58651
 Alpha  occ. eigenvalues --   -0.58380  -0.57826  -0.56765  -0.56432  -0.54947
 Alpha  occ. eigenvalues --   -0.54700  -0.54308  -0.53752  -0.52947  -0.52309
 Alpha  occ. eigenvalues --   -0.52088  -0.51827  -0.50884  -0.50537  -0.49783
 Alpha  occ. eigenvalues --   -0.49642  -0.49515  -0.49310  -0.49175  -0.48714
 Alpha  occ. eigenvalues --   -0.48325  -0.48147  -0.48088  -0.47544  -0.47500
 Alpha  occ. eigenvalues --   -0.47154  -0.47071  -0.46889  -0.46584  -0.46410
 Alpha  occ. eigenvalues --   -0.45854  -0.45832  -0.45776  -0.45354  -0.45080
 Alpha  occ. eigenvalues --   -0.45008  -0.44885  -0.44737  -0.44455  -0.44336
 Alpha  occ. eigenvalues --   -0.44035  -0.43791  -0.43612  -0.43483  -0.43322
 Alpha  occ. eigenvalues --   -0.43274  -0.43221  -0.42872  -0.42818  -0.42584
 Alpha  occ. eigenvalues --   -0.42307  -0.42089  -0.41735  -0.41705  -0.41560
 Alpha  occ. eigenvalues --   -0.41375  -0.40971  -0.40821  -0.40678  -0.40634
 Alpha  occ. eigenvalues --   -0.40446  -0.40315  -0.40044  -0.39913  -0.39792
 Alpha  occ. eigenvalues --   -0.39479  -0.39361  -0.39002  -0.38940  -0.38756
 Alpha  occ. eigenvalues --   -0.38731  -0.38641  -0.38368  -0.38231  -0.37923
 Alpha  occ. eigenvalues --   -0.37879  -0.37449  -0.36798  -0.36785  -0.36688
 Alpha  occ. eigenvalues --   -0.36583  -0.36490  -0.36346  -0.36123  -0.35725
 Alpha  occ. eigenvalues --   -0.35622  -0.35543  -0.35281  -0.35238  -0.34929
 Alpha  occ. eigenvalues --   -0.34899  -0.34647  -0.34319  -0.34036  -0.33797
 Alpha  occ. eigenvalues --   -0.33326  -0.33138  -0.33134  -0.32892  -0.32608
 Alpha  occ. eigenvalues --   -0.32357  -0.32132  -0.31843  -0.31462  -0.31198
 Alpha  occ. eigenvalues --   -0.30986  -0.30182  -0.29977  -0.29733  -0.29086
 Alpha  occ. eigenvalues --   -0.28616  -0.28526  -0.27601  -0.26937  -0.26479
 Alpha  occ. eigenvalues --   -0.26104  -0.25574  -0.25527  -0.25264  -0.20791
 Alpha  occ. eigenvalues --   -0.19044
 Alpha virt. eigenvalues --   -0.11428  -0.04763  -0.03898  -0.01863  -0.00959
 Alpha virt. eigenvalues --   -0.00408   0.00247   0.00563   0.01875   0.03442
 Alpha virt. eigenvalues --    0.04030   0.04455   0.05140   0.05268   0.05358

 Mulliken charges:
               1
     1  Mg   0.983886
     2  C   -0.002981
     3  C   -0.048315
     4  C   -0.050745
     5  C   -0.054641
     6  N   -0.367068
     7  C    0.043229
     8  C   -0.132857
     9  C   -0.143441
    10  C    0.067384
    11  C    0.010097
    12  C    0.008184
    13  C    0.026426
    14  C    0.204716
    15  O   -0.294300
    16  O   -0.352286
    17  N   -0.390898
    18  C    0.139066
    19  C   -0.174863
    20  C   -0.077297
    21  C    0.109090
    22  C    0.067972
    23  C    0.046185
    24  O   -0.252659
    25  C   -0.026467
    26  N   -0.387051
    27  C    0.061402
    28  C   -0.100772
    29  C   -0.062908
    30  C    0.069612
    31  C    0.022698
    32  C   -0.069556
    33  C   -0.064085
    34  N   -0.515443
    35  C    0.103270
    36  C   -0.187232
    37  C    0.035822
    38  C    0.154326
    39  C    0.083666
    40  C    0.057373
    41  O   -0.215128
    42  C   -0.096658
    43  C    0.288417
    44  O   -0.288842
    45  O   -0.361564
    46  C    0.130243
    47  C    0.273388
    48  C   -0.183407
    49  C   -0.227088
    50  C    0.003006
    51  C    0.048841
    52  C   -0.065340
    53  C   -0.026539
    54  C   -0.182936
    55  C    0.008941
    56  C   -0.016643
    57  C   -0.073621
    58  C    0.004897
    59  C   -0.236539
    60  C   -0.007822
    61  C    0.001901
    62  C   -0.053693
    63  C   -0.004714
    64  C   -0.226820
    65  C   -0.017685
    66  C   -0.031775
    67  H   -0.005045
    68  H    0.023136
    69  H    0.007538
    70  H    0.077492
    71  H    0.055714
    72  H    0.036939
    73  H    0.061310
    74  H    0.046379
    75  H    0.027869
    76  H    0.040674
    77  H    0.065043
    78  H    0.064019
    79  H    0.037873
    80  H    0.040945
    81  H    0.066318
    82  H    0.057981
    83  H    0.074179
    84  H    0.052058
    85  H    0.047039
    86  H    0.046787
    87  H    0.042351
    88  H    0.045287
    89  H    0.057758
    90  H    0.037874
    91  H    0.036309
    92  H    0.042979
    93  H    0.042601
    94  H    0.050024
    95  H    0.032180
    96  H    0.071581
    97  H    0.065645
    98  H    0.065680
    99  H    0.055959
   100  H    0.073672
   101  H    0.052440
   102  H    0.066299
   103  H    0.085350
   104  H    0.025893
   105  H    0.045418
   106  H    0.056785
   107  H    0.052287
   108  H    0.045308
   109  H    0.016895
   110  H    0.033434
   111  H    0.022608
   112  H    0.023449
   113  H    0.017698
   114  H    0.033916
   115  H    0.028154
   116  H    0.019917
   117  H    0.039588
   118  H    0.029359
   119  H    0.023581
   120  H    0.039627
   121  H    0.041553
   122  H    0.019448
   123  H    0.023789
   124  H    0.036320
   125  H    0.054120
   126  H    0.022926
   127  H    0.040352
   128  H    0.025887
   129  H    0.022159
   130  H    0.034506
   131  H    0.024822
   132  H    0.019381
   133  H    0.015263
   134  H    0.031622
   135  H    0.032444
   136  H    0.038312
   137  H    0.043840
   138  H    0.040999
   139  H    0.032651
   140  H    0.016091
 Sum of Mulliken charges =  -0.00000

 Dipole moment (field-independent basis, Debye):
    X=              3.6332    Y=              2.1649    Z=             -5.4089  Tot=              6.8661
 Quadrupole moment (field-independent basis, Debye-Ang):
   XX=           -367.9970   YY=           -433.5106   ZZ=           -402.2495
   XY=            -20.6925   XZ=              7.6191   YZ=              5.2184

 Normal termination of Gaussian 16 at Wed May  4 16:12:32 2022.
