 Gaussian 16, Revision A.03,
 Gaussian 16:  ES64L-G16RevA.03 25-Dec-2016

 --------------------------------
 #p wB97XD/Def2SVP td=(nstates=5)
 --------------------------------

 -------------------------------------------------
 step_1_chromophore_9 TDDFT with wB97XD functional
 -------------------------------------------------
 Symbolic Z-matrix:
 Charge =  0 Multiplicity = 1

                         Standard orientation:
 ---------------------------------------------------------------------
 Center     Atomic      Atomic             Coordinates (Angstroms)
 Number     Number       Type             X           Y           Z
 ---------------------------------------------------------------------
      1         12           0       -4.894473    0.863483   -0.047349
      2          6           0       -4.159977   -2.486147    0.163152
      3          6           0       -1.421653    1.487204   -0.505738
      4          6           0       -5.370911    4.196438    0.259387
      5          6           0       -8.111144    0.297027    0.716061
      6          7           0       -3.004780   -0.375080   -0.153035
      7          6           0       -2.993198   -1.737695   -0.020725
      8          6           0       -1.588791   -2.300660   -0.250185
      9          6           0       -0.727326   -0.954504   -0.260434
     10          6           0       -1.768025    0.125740   -0.307112
     11          6           0        0.306544   -0.842059    0.919468
     12          6           0       -1.443179   -3.126718   -1.608936
     13          6           0       -0.698685   -4.437711   -1.689031
     14          6           0        0.641610   -4.530632   -1.050646
     15          8           0        0.875889   -5.288563   -0.092137
     16          8           0        1.528463   -3.713341   -1.606823
     17          7           0       -3.595334    2.645363   -0.161904
     18          6           0       -2.294132    2.688039   -0.523491
     19          6           0       -1.856914    4.026526   -0.739694
     20          6           0       -3.008908    4.854132   -0.553630
     21          6           0       -4.036616    3.887104   -0.064741
     22          6           0       -0.413854    4.267877   -1.045225
     23          6           0       -3.107665    6.369645   -0.591025
     24          8           0       -4.082897    6.980235   -0.142493
     25          6           0       -1.975583    7.195866   -1.175813
     26          7           0       -6.505241    2.107434    0.580344
     27          6           0       -6.482247    3.463489    0.493139
     28          6           0       -7.878556    4.042565    0.714545
     29          6           0       -8.781716    2.751408    0.683012
     30          6           0       -7.747856    1.643160    0.650160
     31          6           0       -8.172935    5.012068    1.897169
     32          6           0       -9.879744    2.676118   -0.458511
     33          6           0       -9.569987    1.999846   -1.777242
     34          7           0       -5.928347   -0.711713    0.455056
     35          6           0       -7.280021   -0.883671    0.614072
     36          6           0       -7.648563   -2.223427    0.894173
     37          6           0       -6.458585   -2.911845    0.679925
     38          6           0       -5.453073   -1.952693    0.394335
     39          6           0       -8.977234   -2.893744    1.218591
     40          6           0       -5.836273   -4.162785    0.676707
     41          8           0       -6.321855   -5.245679    0.947447
     42          6           0       -4.247147   -3.989503    0.355171
     43          6           0       -3.501787   -4.506164    1.496376
     44          8           0       -3.506353   -4.030730    2.649167
     45          8           0       -2.798683   -5.635484    1.216856
     46          6           0       -2.267474   -6.432764    2.328124
     47          6           0        2.955566   -3.862096   -1.188031
     48          6           0        3.769744   -2.685846   -1.603569
     49          6           0        5.098064   -2.606351   -1.976731
     50          6           0        6.038814   -3.845350   -2.036462
     51          6           0        5.725297   -1.296383   -2.376551
     52          6           0        6.198214   -1.146642   -3.810122
     53          6           0        7.756975   -0.991132   -3.885847
     54          6           0        8.203102    0.438563   -3.856018
     55          6           0        8.203560    1.043644   -5.264585
     56          6           0        9.492366    0.684641   -3.003903
     57          6           0        9.259031    1.625655   -1.802491
     58          6           0       10.606072    1.822604   -1.104173
     59          6           0       10.416294    2.111674    0.422686
     60          6           0       10.507959    3.638587    0.752250
     61          6           0       11.571921    1.477003    1.256442
     62          6           0       11.092113    0.631213    2.484918
     63          6           0       11.910934    0.877952    3.762447
     64          6           0       11.166518    0.905936    5.052978
     65          6           0       11.120413    2.337660    5.646241
     66          6           0       11.707986   -0.175698    6.072969
     67          1           0       -0.353750    1.547295   -0.724108
     68          1           0       -5.611291    5.246770    0.083143
     69          1           0       -9.166878    0.047244    0.597638
     70          1           0       -1.370001   -3.012307    0.546949
     71          1           0       -0.093222   -0.895191   -1.145183
     72          1           0        1.299347   -0.749831    0.480423
     73          1           0        0.121607   -1.726305    1.529638
     74          1           0        0.240811    0.071239    1.511574
     75          1           0       -0.941392   -2.396668   -2.244268
     76          1           0       -2.398880   -3.196708   -2.127322
     77          1           0       -0.671888   -4.788202   -2.720771
     78          1           0       -1.284494   -5.137911   -1.094604
     79          1           0       -0.420632    4.977944   -1.871377
     80          1           0        0.058695    3.361191   -1.423822
     81          1           0        0.196065    4.650335   -0.226086
     82          1           0       -1.556881    6.787086   -2.095901
     83          1           0       -1.272079    7.463717   -0.386307
     84          1           0       -2.456524    8.127214   -1.476320
     85          1           0       -8.005912    4.704562   -0.142252
     86          1           0       -9.447610    2.681571    1.542313
     87          1           0       -8.791738    4.517389    2.645680
     88          1           0       -8.731793    5.846317    1.473463
     89          1           0       -7.198457    5.308133    2.283990
     90          1           0      -10.165651    3.704055   -0.677273
     91          1           0      -10.764120    2.159802   -0.084469
     92          1           0       -9.799108    2.643429   -2.626926
     93          1           0      -10.095799    1.054463   -1.917386
     94          1           0       -8.499898    1.795947   -1.738909
     95          1           0       -9.769970   -2.145243    1.188811
     96          1           0       -8.911054   -3.361386    2.201275
     97          1           0       -9.165131   -3.665685    0.472862
     98          1           0       -4.146525   -4.681384   -0.481560
     99          1           0       -2.090074   -7.479128    2.079241
    100          1           0       -2.798386   -6.333069    3.274377
    101          1           0       -1.242741   -6.083343    2.455271
    102          1           0        3.448634   -4.640038   -1.771326
    103          1           0        3.064693   -3.839233   -0.104122
    104          1           0        3.213891   -1.748866   -1.632021
    105          1           0        7.052698   -3.561681   -1.756498
    106          1           0        6.147681   -4.205128   -3.059768
    107          1           0        5.621334   -4.628196   -1.402490
    108          1           0        6.586179   -1.053571   -1.754670
    109          1           0        4.924040   -0.567371   -2.250012
    110          1           0        5.651705   -0.429666   -4.421485
    111          1           0        5.923858   -2.091941   -4.279603
    112          1           0        7.980218   -1.495960   -4.825442
    113          1           0        8.276946   -1.620643   -3.163579
    114          1           0        7.475098    1.048176   -3.321676
    115          1           0        7.462292    1.841461   -5.316182
    116          1           0        7.789296    0.381203   -6.023945
    117          1           0        9.195232    1.332832   -5.614102
    118          1           0       10.324230    0.996638   -3.635825
    119          1           0        9.694984   -0.272760   -2.522543
    120          1           0        8.552683    1.041658   -1.211278
    121          1           0        8.874007    2.609262   -2.071884
    122          1           0       11.130505    2.639647   -1.598841
    123          1           0       11.315592    1.005053   -1.236208
    124          1           0        9.436481    1.764154    0.750505
    125          1           0       10.344732    3.769318    1.821827
    126          1           0        9.721816    4.056864    0.124285
    127          1           0       11.448041    3.945699    0.293353
    128          1           0       12.235189    2.238525    1.666981
    129          1           0       12.170669    0.822799    0.622148
    130          1           0       11.116162   -0.426040    2.224591
    131          1           0       10.055214    0.877270    2.714514
    132          1           0       12.596196    1.720944    3.669228
    133          1           0       12.618599    0.048686    3.786387
    134          1           0       10.136939    0.655483    4.798101
    135          1           0       10.123247    2.383432    6.081808
    136          1           0       11.175714    3.069918    4.841464
    137          1           0       11.846319    2.522399    6.439145
    138          1           0       12.792193   -0.248059    6.154329
    139          1           0       11.295623   -1.185197    6.048750
    140          1           0       11.363459    0.061293    7.080084
 ---------------------------------------------------------------------

 SCF Done:  E(RwB97XD) =  -3007.88267608     A.U. after   17 cycles

 Excitation energies and oscillator strengths:

 Excited State   1:      Singlet-A      1.6607 eV  746.60 nm  f=0.4062  <S**2>=0.000
     245 -> 248        0.18438
     246 -> 247        0.68423
     245 <- 248        0.11637
 This state for optimization and/or second-order correction.
 Total Energy, E(TD-HF/TD-DFT) =  -3007.82164821
 Copying the excited state density for this state as the 1-particle RhoCI density.

 Excited State   2:      Singlet-A      2.1338 eV  581.05 nm  f=0.1778  <S**2>=0.000
     245 -> 247        0.66029
     246 -> 248       -0.24162

 Excited State   3:      Singlet-A      3.4359 eV  360.85 nm  f=0.0027  <S**2>=0.000
     242 -> 249        0.19302
     242 -> 250        0.11063
     244 -> 247        0.63077
     244 -> 249        0.11528
     244 -> 250        0.10819

 Excited State   4:      Singlet-A      3.4700 eV  357.30 nm  f=0.0026  <S**2>=0.000
     242 -> 247        0.61326
     242 -> 250        0.10013
     244 -> 249        0.18245
     244 -> 250        0.10443
     246 -> 248        0.14090

 Excited State   5:      Singlet-A      3.6362 eV  340.97 nm  f=0.0156  <S**2>=0.000
     240 -> 247        0.42078
     240 -> 248        0.11985
     240 -> 249       -0.27173
     240 -> 250        0.14956
     241 -> 247        0.36043
     242 -> 249       -0.10409
     246 -> 248        0.12052

 The electronic state is 1-A.
 Alpha  occ. eigenvalues --  -46.95415 -19.31625 -19.29652 -19.24174 -19.23908
 Alpha  occ. eigenvalues --  -19.23525 -19.23030 -14.46708 -14.46082 -14.44132
 Alpha  occ. eigenvalues --  -14.44047 -10.43086 -10.42334 -10.39340 -10.38397
 Alpha  occ. eigenvalues --  -10.37168 -10.35106 -10.34871 -10.34376 -10.34373
 Alpha  occ. eigenvalues --  -10.34106 -10.34086 -10.34079 -10.33856 -10.32939
 Alpha  occ. eigenvalues --  -10.32713 -10.32495 -10.32476 -10.32136 -10.32065
 Alpha  occ. eigenvalues --  -10.32049 -10.32045 -10.31761 -10.31567 -10.31517
 Alpha  occ. eigenvalues --  -10.31323 -10.31295 -10.30963 -10.30868 -10.30861
 Alpha  occ. eigenvalues --  -10.30732 -10.30615 -10.30226 -10.30127 -10.30059
 Alpha  occ. eigenvalues --  -10.29878 -10.29868 -10.29724 -10.29639 -10.29574
 Alpha  occ. eigenvalues --  -10.29534 -10.29520 -10.29325 -10.29228 -10.29204
 Alpha  occ. eigenvalues --  -10.29079 -10.28830 -10.28818 -10.28589 -10.28588
 Alpha  occ. eigenvalues --  -10.28579 -10.28579 -10.28399 -10.28340 -10.28292
 Alpha  occ. eigenvalues --  -10.27565  -3.21467  -1.95040  -1.94553  -1.94482
 Alpha  occ. eigenvalues --   -1.19587  -1.17438  -1.11986  -1.11673  -1.09169
 Alpha  occ. eigenvalues --   -1.07562  -1.07319  -1.06656  -1.06139  -1.05495
 Alpha  occ. eigenvalues --   -0.94489  -0.93183  -0.91979  -0.91300  -0.90916
 Alpha  occ. eigenvalues --   -0.90834  -0.90066  -0.89723  -0.89660  -0.89340
 Alpha  occ. eigenvalues --   -0.88453  -0.87859  -0.86724  -0.85591  -0.85493
 Alpha  occ. eigenvalues --   -0.84958  -0.84006  -0.83147  -0.82921  -0.82209
 Alpha  occ. eigenvalues --   -0.82098  -0.80412  -0.79957  -0.79182  -0.78461
 Alpha  occ. eigenvalues --   -0.78108  -0.77502  -0.77300  -0.76873  -0.76077
 Alpha  occ. eigenvalues --   -0.75718  -0.75133  -0.73529  -0.72874  -0.71493
 Alpha  occ. eigenvalues --   -0.71049  -0.70578  -0.69448  -0.68824  -0.67885
 Alpha  occ. eigenvalues --   -0.67221  -0.67036  -0.66688  -0.66454  -0.66145
 Alpha  occ. eigenvalues --   -0.65956  -0.65477  -0.64395  -0.63823  -0.62490
 Alpha  occ. eigenvalues --   -0.62173  -0.61704  -0.61158  -0.60297  -0.59792
 Alpha  occ. eigenvalues --   -0.59574  -0.59225  -0.58261  -0.57962  -0.57220
 Alpha  occ. eigenvalues --   -0.57055  -0.56940  -0.56745  -0.56610  -0.56127
 Alpha  occ. eigenvalues --   -0.55722  -0.55591  -0.55478  -0.54946  -0.54858
 Alpha  occ. eigenvalues --   -0.54641  -0.54426  -0.54305  -0.54024  -0.53682
 Alpha  occ. eigenvalues --   -0.53227  -0.53199  -0.53159  -0.52686  -0.52505
 Alpha  occ. eigenvalues --   -0.52351  -0.52223  -0.52072  -0.51775  -0.51641
 Alpha  occ. eigenvalues --   -0.51343  -0.51127  -0.50927  -0.50762  -0.50641
 Alpha  occ. eigenvalues --   -0.50557  -0.50506  -0.50194  -0.50171  -0.49856
 Alpha  occ. eigenvalues --   -0.49550  -0.49424  -0.48989  -0.48972  -0.48748
 Alpha  occ. eigenvalues --   -0.48577  -0.48180  -0.47983  -0.47849  -0.47785
 Alpha  occ. eigenvalues --   -0.47697  -0.47557  -0.47172  -0.47100  -0.47034
 Alpha  occ. eigenvalues --   -0.46679  -0.46556  -0.46196  -0.46067  -0.45894
 Alpha  occ. eigenvalues --   -0.45784  -0.45710  -0.45511  -0.45306  -0.45077
 Alpha  occ. eigenvalues --   -0.44979  -0.44628  -0.43926  -0.43912  -0.43766
 Alpha  occ. eigenvalues --   -0.43711  -0.43646  -0.43377  -0.43228  -0.42825
 Alpha  occ. eigenvalues --   -0.42706  -0.42615  -0.42333  -0.42261  -0.41976
 Alpha  occ. eigenvalues --   -0.41855  -0.41646  -0.41427  -0.41021  -0.40866
 Alpha  occ. eigenvalues --   -0.40289  -0.40200  -0.40073  -0.39971  -0.39655
 Alpha  occ. eigenvalues --   -0.39388  -0.39160  -0.38764  -0.38443  -0.38156
 Alpha  occ. eigenvalues --   -0.37994  -0.37108  -0.37047  -0.36540  -0.35942
 Alpha  occ. eigenvalues --   -0.35672  -0.35244  -0.34767  -0.33500  -0.33219
 Alpha  occ. eigenvalues --   -0.32967  -0.32354  -0.32291  -0.32182  -0.25705
 Alpha  occ. eigenvalues --   -0.23242
 Alpha virt. eigenvalues --   -0.07417   0.00750   0.02359   0.04631   0.04955
 Alpha virt. eigenvalues --    0.06278   0.07055   0.07325   0.08647   0.09874
 Alpha virt. eigenvalues --    0.10660   0.11169   0.11944   0.12052   0.12140

 Mulliken charges:
               1
     1  Mg   0.974511
     2  C   -0.005379
     3  C   -0.064624
     4  C   -0.065382
     5  C   -0.074765
     6  N   -0.330567
     7  C    0.008935
     8  C   -0.106987
     9  C   -0.115400
    10  C    0.052161
    11  C    0.020494
    12  C    0.015767
    13  C    0.051882
    14  C    0.188346
    15  O   -0.291231
    16  O   -0.350477
    17  N   -0.356553
    18  C    0.128871
    19  C   -0.163969
    20  C   -0.075710
    21  C    0.099908
    22  C    0.082474
    23  C    0.043218
    24  O   -0.246990
    25  C   -0.016961
    26  N   -0.351370
    27  C    0.050028
    28  C   -0.080465
    29  C   -0.041599
    30  C    0.061624
    31  C    0.035323
    32  C   -0.057995
    33  C   -0.043071
    34  N   -0.478522
    35  C    0.099583
    36  C   -0.189070
    37  C    0.041969
    38  C    0.136484
    39  C    0.096964
    40  C    0.037572
    41  O   -0.206792
    42  C   -0.054975
    43  C    0.260236
    44  O   -0.282377
    45  O   -0.358280
    46  C    0.144110
    47  C    0.289049
    48  C   -0.190315
    49  C   -0.213761
    50  C    0.014121
    51  C    0.068512
    52  C   -0.050675
    53  C   -0.003372
    54  C   -0.155418
    55  C    0.017686
    56  C   -0.000578
    57  C   -0.050824
    58  C    0.015636
    59  C   -0.207741
    60  C    0.010748
    61  C    0.018521
    62  C   -0.035506
    63  C    0.006876
    64  C   -0.196690
    65  C   -0.005129
    66  C   -0.019796
    67  H   -0.011811
    68  H    0.017151
    69  H   -0.000385
    70  H    0.061411
    71  H    0.044545
    72  H    0.031368
    73  H    0.055979
    74  H    0.040581
    75  H    0.018156
    76  H    0.033197
    77  H    0.061309
    78  H    0.052942
    79  H    0.030173
    80  H    0.036102
    81  H    0.063355
    82  H    0.053491
    83  H    0.071384
    84  H    0.050299
    85  H    0.036196
    86  H    0.036957
    87  H    0.036562
    88  H    0.040221
    89  H    0.051433
    90  H    0.029625
    91  H    0.029396
    92  H    0.038324
    93  H    0.037323
    94  H    0.035889
    95  H    0.026215
    96  H    0.067307
    97  H    0.061027
    98  H    0.060128
    99  H    0.052547
   100  H    0.070243
   101  H    0.049618
   102  H    0.059752
   103  H    0.081669
   104  H    0.020720
   105  H    0.040262
   106  H    0.051338
   107  H    0.047024
   108  H    0.033171
   109  H    0.009365
   110  H    0.027382
   111  H    0.011802
   112  H    0.014920
   113  H    0.006045
   114  H    0.017487
   115  H    0.022996
   116  H    0.013261
   117  H    0.034549
   118  H    0.020773
   119  H    0.011831
   120  H    0.027189
   121  H    0.033305
   122  H    0.011172
   123  H    0.013599
   124  H    0.023739
   125  H    0.047129
   126  H    0.015148
   127  H    0.032170
   128  H    0.013710
   129  H    0.013867
   130  H    0.027809
   131  H    0.011832
   132  H    0.009828
   133  H    0.006382
   134  H    0.020069
   135  H    0.026462
   136  H    0.031255
   137  H    0.038615
   138  H    0.034900
   139  H    0.027513
   140  H    0.009401
 Sum of Mulliken charges =  -0.00000

 Dipole moment (field-independent basis, Debye):
    X=              3.8480    Y=              2.3810    Z=             -5.5151  Tot=              7.1339
 Quadrupole moment (field-independent basis, Debye-Ang):
   XX=           -369.6685   YY=           -431.8065   ZZ=           -401.7621
   XY=            -20.5175   XZ=              8.1097   YZ=              4.9073

 Normal termination of Gaussian 16 at Wed May  4 16:39:22 2022.
