 Gaussian 16, Revision A.03,
 Gaussian 16:  ES64L-G16RevA.03 25-Dec-2016

 --------------------
 #p ZINDO=(nstates=5)
 --------------------

 --------------------------
 step_1_chromophore_9 ZINDO
 --------------------------
 Symbolic Z-matrix:
 Charge =  0 Multiplicity = 1

                         Standard orientation:
 ---------------------------------------------------------------------
 Center     Atomic      Atomic             Coordinates (Angstroms)
 Number     Number       Type             X           Y           Z
 ---------------------------------------------------------------------
      1         12           0       -4.894473    0.863483   -0.047349
      2          6           0       -4.159977   -2.486147    0.163152
      3          6           0       -1.421653    1.487204   -0.505738
      4          6           0       -5.370911    4.196438    0.259387
      5          6           0       -8.111144    0.297027    0.716061
      6          7           0       -3.004780   -0.375080   -0.153035
      7          6           0       -2.993198   -1.737695   -0.020725
      8          6           0       -1.588791   -2.300660   -0.250185
      9          6           0       -0.727326   -0.954504   -0.260434
     10          6           0       -1.768025    0.125740   -0.307112
     11          6           0        0.306544   -0.842059    0.919468
     12          6           0       -1.443179   -3.126718   -1.608936
     13          6           0       -0.698685   -4.437711   -1.689031
     14          6           0        0.641610   -4.530632   -1.050646
     15          8           0        0.875889   -5.288563   -0.092137
     16          8           0        1.528463   -3.713341   -1.606823
     17          7           0       -3.595334    2.645363   -0.161904
     18          6           0       -2.294132    2.688039   -0.523491
     19          6           0       -1.856914    4.026526   -0.739694
     20          6           0       -3.008908    4.854132   -0.553630
     21          6           0       -4.036616    3.887104   -0.064741
     22          6           0       -0.413854    4.267877   -1.045225
     23          6           0       -3.107665    6.369645   -0.591025
     24          8           0       -4.082897    6.980235   -0.142493
     25          6           0       -1.975583    7.195866   -1.175813
     26          7           0       -6.505241    2.107434    0.580344
     27          6           0       -6.482247    3.463489    0.493139
     28          6           0       -7.878556    4.042565    0.714545
     29          6           0       -8.781716    2.751408    0.683012
     30          6           0       -7.747856    1.643160    0.650160
     31          6           0       -8.172935    5.012068    1.897169
     32          6           0       -9.879744    2.676118   -0.458511
     33          6           0       -9.569987    1.999846   -1.777242
     34          7           0       -5.928347   -0.711713    0.455056
     35          6           0       -7.280021   -0.883671    0.614072
     36          6           0       -7.648563   -2.223427    0.894173
     37          6           0       -6.458585   -2.911845    0.679925
     38          6           0       -5.453073   -1.952693    0.394335
     39          6           0       -8.977234   -2.893744    1.218591
     40          6           0       -5.836273   -4.162785    0.676707
     41          8           0       -6.321855   -5.245679    0.947447
     42          6           0       -4.247147   -3.989503    0.355171
     43          6           0       -3.501787   -4.506164    1.496376
     44          8           0       -3.506353   -4.030730    2.649167
     45          8           0       -2.798683   -5.635484    1.216856
     46          6           0       -2.267474   -6.432764    2.328124
     47          6           0        2.955566   -3.862096   -1.188031
     48          6           0        3.769744   -2.685846   -1.603569
     49          6           0        5.098064   -2.606351   -1.976731
     50          6           0        6.038814   -3.845350   -2.036462
     51          6           0        5.725297   -1.296383   -2.376551
     52          6           0        6.198214   -1.146642   -3.810122
     53          6           0        7.756975   -0.991132   -3.885847
     54          6           0        8.203102    0.438563   -3.856018
     55          6           0        8.203560    1.043644   -5.264585
     56          6           0        9.492366    0.684641   -3.003903
     57          6           0        9.259031    1.625655   -1.802491
     58          6           0       10.606072    1.822604   -1.104173
     59          6           0       10.416294    2.111674    0.422686
     60          6           0       10.507959    3.638587    0.752250
     61          6           0       11.571921    1.477003    1.256442
     62          6           0       11.092113    0.631213    2.484918
     63          6           0       11.910934    0.877952    3.762447
     64          6           0       11.166518    0.905936    5.052978
     65          6           0       11.120413    2.337660    5.646241
     66          6           0       11.707986   -0.175698    6.072969
     67          1           0       -0.353750    1.547295   -0.724108
     68          1           0       -5.611291    5.246770    0.083143
     69          1           0       -9.166878    0.047244    0.597638
     70          1           0       -1.370001   -3.012307    0.546949
     71          1           0       -0.093222   -0.895191   -1.145183
     72          1           0        1.299347   -0.749831    0.480423
     73          1           0        0.121607   -1.726305    1.529638
     74          1           0        0.240811    0.071239    1.511574
     75          1           0       -0.941392   -2.396668   -2.244268
     76          1           0       -2.398880   -3.196708   -2.127322
     77          1           0       -0.671888   -4.788202   -2.720771
     78          1           0       -1.284494   -5.137911   -1.094604
     79          1           0       -0.420632    4.977944   -1.871377
     80          1           0        0.058695    3.361191   -1.423822
     81          1           0        0.196065    4.650335   -0.226086
     82          1           0       -1.556881    6.787086   -2.095901
     83          1           0       -1.272079    7.463717   -0.386307
     84          1           0       -2.456524    8.127214   -1.476320
     85          1           0       -8.005912    4.704562   -0.142252
     86          1           0       -9.447610    2.681571    1.542313
     87          1           0       -8.791738    4.517389    2.645680
     88          1           0       -8.731793    5.846317    1.473463
     89          1           0       -7.198457    5.308133    2.283990
     90          1           0      -10.165651    3.704055   -0.677273
     91          1           0      -10.764120    2.159802   -0.084469
     92          1           0       -9.799108    2.643429   -2.626926
     93          1           0      -10.095799    1.054463   -1.917386
     94          1           0       -8.499898    1.795947   -1.738909
     95          1           0       -9.769970   -2.145243    1.188811
     96          1           0       -8.911054   -3.361386    2.201275
     97          1           0       -9.165131   -3.665685    0.472862
     98          1           0       -4.146525   -4.681384   -0.481560
     99          1           0       -2.090074   -7.479128    2.079241
    100          1           0       -2.798386   -6.333069    3.274377
    101          1           0       -1.242741   -6.083343    2.455271
    102          1           0        3.448634   -4.640038   -1.771326
    103          1           0        3.064693   -3.839233   -0.104122
    104          1           0        3.213891   -1.748866   -1.632021
    105          1           0        7.052698   -3.561681   -1.756498
    106          1           0        6.147681   -4.205128   -3.059768
    107          1           0        5.621334   -4.628196   -1.402490
    108          1           0        6.586179   -1.053571   -1.754670
    109          1           0        4.924040   -0.567371   -2.250012
    110          1           0        5.651705   -0.429666   -4.421485
    111          1           0        5.923858   -2.091941   -4.279603
    112          1           0        7.980218   -1.495960   -4.825442
    113          1           0        8.276946   -1.620643   -3.163579
    114          1           0        7.475098    1.048176   -3.321676
    115          1           0        7.462292    1.841461   -5.316182
    116          1           0        7.789296    0.381203   -6.023945
    117          1           0        9.195232    1.332832   -5.614102
    118          1           0       10.324230    0.996638   -3.635825
    119          1           0        9.694984   -0.272760   -2.522543
    120          1           0        8.552683    1.041658   -1.211278
    121          1           0        8.874007    2.609262   -2.071884
    122          1           0       11.130505    2.639647   -1.598841
    123          1           0       11.315592    1.005053   -1.236208
    124          1           0        9.436481    1.764154    0.750505
    125          1           0       10.344732    3.769318    1.821827
    126          1           0        9.721816    4.056864    0.124285
    127          1           0       11.448041    3.945699    0.293353
    128          1           0       12.235189    2.238525    1.666981
    129          1           0       12.170669    0.822799    0.622148
    130          1           0       11.116162   -0.426040    2.224591
    131          1           0       10.055214    0.877270    2.714514
    132          1           0       12.596196    1.720944    3.669228
    133          1           0       12.618599    0.048686    3.786387
    134          1           0       10.136939    0.655483    4.798101
    135          1           0       10.123247    2.383432    6.081808
    136          1           0       11.175714    3.069918    4.841464
    137          1           0       11.846319    2.522399    6.439145
    138          1           0       12.792193   -0.248059    6.154329
    139          1           0       11.295623   -1.185197    6.048750
    140          1           0       11.363459    0.061293    7.080084
 ---------------------------------------------------------------------

 SCF Done:  E(RZINDO/S) =  -474.546570781     A.U. after   20 cycles

 Excitation energies and oscillator strengths:

 Excited State   1:      Singlet-A      1.2433 eV  997.26 nm  f=0.6510  <S**2>=0.000
     175 ->178        -0.19161
     176 ->177         0.66260
 This state for optimization and/or second-order correction.
 Total Energy, E(CIS/TDA) =  -474.500882163
 Copying the excited state density for this state as the 1-particle RhoCI density.

 Excited State   2:      Singlet-A      1.9016 eV  651.99 nm  f=0.1304  <S**2>=0.000
     175 ->177         0.59079
     176 ->178         0.35792

 Excited State   3:      Singlet-A      2.8854 eV  429.69 nm  f=0.0014  <S**2>=0.000
     169 ->177         0.24873
     169 ->178         0.11965
     169 ->179         0.21732
     169 ->180        -0.19671
     169 ->186         0.12344
     170 ->177         0.28877
     170 ->178         0.13567
     170 ->179         0.24462
     170 ->180        -0.22160
     170 ->186         0.13802

 Excited State   4:      Singlet-A      2.9874 eV  415.02 nm  f=0.0136  <S**2>=0.000
     168 ->177         0.27400
     168 ->179        -0.37182
     168 ->180        -0.28909
     168 ->186        -0.21245
     168 ->187        -0.12999
     172 ->177        -0.12824
     176 ->179         0.12241

 Excited State   5:      Singlet-A      3.0499 eV  406.52 nm  f=0.7487  <S**2>=0.000
     175 ->177        -0.28448
     176 ->178         0.52459
     176 ->179         0.31004

 The electronic state is 1-A.
 Alpha  occ. eigenvalues --   -1.86965  -1.82486  -1.80618  -1.74190  -1.71934
 Alpha  occ. eigenvalues --   -1.71609  -1.66062  -1.62099  -1.59164  -1.58079
 Alpha  occ. eigenvalues --   -1.56013  -1.51793  -1.48165  -1.47872  -1.46991
 Alpha  occ. eigenvalues --   -1.43965  -1.42013  -1.40290  -1.39876  -1.39711
 Alpha  occ. eigenvalues --   -1.36302  -1.33525  -1.33031  -1.30983  -1.29405
 Alpha  occ. eigenvalues --   -1.28662  -1.25481  -1.21892  -1.20195  -1.18463
 Alpha  occ. eigenvalues --   -1.17809  -1.16066  -1.15714  -1.15190  -1.13101
 Alpha  occ. eigenvalues --   -1.12963  -1.11791  -1.10919  -1.05806  -1.04579
 Alpha  occ. eigenvalues --   -1.02482  -1.02034  -0.99197  -0.98253  -0.97539
 Alpha  occ. eigenvalues --   -0.97047  -0.94922  -0.94292  -0.93059  -0.92761
 Alpha  occ. eigenvalues --   -0.91421  -0.89911  -0.88899  -0.88048  -0.86076
 Alpha  occ. eigenvalues --   -0.85592  -0.84716  -0.83287  -0.81511  -0.80462
 Alpha  occ. eigenvalues --   -0.79820  -0.78676  -0.76950  -0.76669  -0.76008
 Alpha  occ. eigenvalues --   -0.75274  -0.75241  -0.74850  -0.73905  -0.73729
 Alpha  occ. eigenvalues --   -0.73471  -0.73028  -0.72260  -0.71842  -0.70864
 Alpha  occ. eigenvalues --   -0.70246  -0.69677  -0.69100  -0.68564  -0.68035
 Alpha  occ. eigenvalues --   -0.67609  -0.66900  -0.66323  -0.66193  -0.65537
 Alpha  occ. eigenvalues --   -0.64896  -0.64106  -0.63861  -0.63719  -0.63419
 Alpha  occ. eigenvalues --   -0.63086  -0.62770  -0.62466  -0.62069  -0.61588
 Alpha  occ. eigenvalues --   -0.61369  -0.61223  -0.60934  -0.60892  -0.60059
 Alpha  occ. eigenvalues --   -0.59351  -0.59055  -0.58930  -0.58502  -0.58115
 Alpha  occ. eigenvalues --   -0.58084  -0.57557  -0.57365  -0.57112  -0.56952
 Alpha  occ. eigenvalues --   -0.56710  -0.56040  -0.55284  -0.55058  -0.54868
 Alpha  occ. eigenvalues --   -0.54489  -0.53835  -0.53670  -0.52860  -0.52719
 Alpha  occ. eigenvalues --   -0.52627  -0.52237  -0.52024  -0.51354  -0.51251
 Alpha  occ. eigenvalues --   -0.50846  -0.50536  -0.50464  -0.50248  -0.50122
 Alpha  occ. eigenvalues --   -0.49950  -0.49791  -0.49407  -0.49185  -0.48846
 Alpha  occ. eigenvalues --   -0.48689  -0.48524  -0.48186  -0.47945  -0.47498
 Alpha  occ. eigenvalues --   -0.47440  -0.47156  -0.46531  -0.46433  -0.46313
 Alpha  occ. eigenvalues --   -0.46195  -0.45559  -0.45550  -0.45444  -0.45415
 Alpha  occ. eigenvalues --   -0.45225  -0.45029  -0.44955  -0.44398  -0.44120
 Alpha  occ. eigenvalues --   -0.43835  -0.42972  -0.42875  -0.42396  -0.42318
 Alpha  occ. eigenvalues --   -0.42213  -0.41717  -0.40296  -0.38859  -0.38374
 Alpha  occ. eigenvalues --   -0.37529  -0.37156  -0.35469  -0.34438  -0.34100
 Alpha  occ. eigenvalues --   -0.33294  -0.32875  -0.32563  -0.32082  -0.26390
 Alpha  occ. eigenvalues --   -0.22016
 Alpha virt. eigenvalues --   -0.08946  -0.01599  -0.00381   0.01514   0.01598
 Alpha virt. eigenvalues --    0.01743   0.03010   0.03435   0.03999   0.05008
 Alpha virt. eigenvalues --    0.06435   0.07197   0.07352   0.07945   0.08480

 Mulliken charges:
               1
     1  Mg   0.434707
     2  C   -0.043816
     3  C   -0.100587
     4  C   -0.061250
     5  C   -0.084696
     6  N   -0.283074
     7  C    0.124969
     8  C    0.001884
     9  C    0.004462
    10  C    0.141423
    11  C   -0.054254
    12  C   -0.025528
    13  C    0.012904
    14  C    0.478796
    15  O   -0.537828
    16  O   -0.260466
    17  N   -0.305256
    18  C    0.100786
    19  C    0.013371
    20  C   -0.060719
    21  C    0.148417
    22  C   -0.041422
    23  C    0.329432
    24  O   -0.528014
    25  C   -0.033537
    26  N   -0.266844
    27  C    0.141066
    28  C   -0.001796
    29  C   -0.000097
    30  C    0.142356
    31  C   -0.049043
    32  C   -0.030300
    33  C   -0.054829
    34  N   -0.307769
    35  C    0.094651
    36  C    0.034102
    37  C   -0.048791
    38  C    0.121518
    39  C   -0.033790
    40  C    0.327951
    41  O   -0.529191
    42  C    0.051553
    43  C    0.496440
    44  O   -0.544857
    45  O   -0.267650
    46  C    0.076099
    47  C    0.103310
    48  C   -0.090823
    49  C   -0.023206
    50  C   -0.048166
    51  C   -0.014851
    52  C   -0.034760
    53  C   -0.026310
    54  C   -0.009925
    55  C   -0.057822
    56  C   -0.041584
    57  C   -0.033173
    58  C   -0.036805
    59  C   -0.023910
    60  C   -0.063247
    61  C   -0.042488
    62  C   -0.039055
    63  C   -0.030572
    64  C   -0.002109
    65  C   -0.056620
    66  C   -0.063898
    67  H    0.027590
    68  H    0.033109
    69  H    0.021911
    70  H    0.045730
    71  H    0.028733
    72  H    0.019716
    73  H    0.035664
    74  H    0.024638
    75  H    0.012433
    76  H    0.021812
    77  H    0.044856
    78  H    0.035345
    79  H    0.021351
    80  H    0.025733
    81  H    0.038392
    82  H    0.033175
    83  H    0.049077
    84  H    0.031406
    85  H    0.028250
    86  H    0.030796
    87  H    0.024261
    88  H    0.024581
    89  H    0.032828
    90  H    0.015980
    91  H    0.016333
    92  H    0.018842
    93  H    0.020894
    94  H    0.021414
    95  H    0.019660
    96  H    0.043717
    97  H    0.036961
    98  H    0.054935
    99  H    0.036872
   100  H    0.057507
   101  H    0.032995
   102  H    0.059247
   103  H    0.070424
   104  H    0.024406
   105  H    0.025245
   106  H    0.029598
   107  H    0.025787
   108  H    0.029197
   109  H    0.011531
   110  H    0.027690
   111  H    0.007012
   112  H    0.008656
   113  H    0.019367
   114  H    0.013865
   115  H    0.015317
   116  H    0.012482
   117  H    0.023917
   118  H    0.023957
   119  H    0.016904
   120  H    0.022773
   121  H    0.026069
   122  H    0.015259
   123  H    0.020265
   124  H    0.025355
   125  H    0.032443
   126  H    0.008626
   127  H    0.027794
   128  H    0.021439
   129  H    0.015618
   130  H    0.019225
   131  H    0.016331
   132  H    0.018533
   133  H    0.003853
   134  H    0.019455
   135  H    0.011977
   136  H    0.021252
   137  H    0.026949
   138  H    0.023810
   139  H    0.021449
   140  H    0.003956
 Sum of Mulliken charges =  -0.00000

 Dipole moment (field-independent basis, Debye):
    X=              5.0173    Y=              3.1408    Z=             -8.5896  Tot=             10.4316
 N-N= 4.350822847918D+03 E-N= 0.000000000000D+00  KE=-9.376212277195D+03
 Leave Link  601 at Wed May  4 16:51:21 2022, MaxMem=  6710886400 cpu:               0.8 elap:               0.0
 (Enter /sw/apps/gaussian-16.0/g16/l9999.exe)
 1\1\GINC-BP1-COMPUTE123\SP\RZINDO CIS\STO-3G\C55H74Mg1N4O6\OF15641\04-
 May-2022\0\\#p ZINDO=(nstates=5)\\step_1_chromophore_9 ZINDO\\0,1\Mg,0
 ,35.716,1.255,29.884\C,0,33.26,2.269,32.062\C,0,37.975,1.184,32.632\C,
 0,38.346,0.782,27.813\C,0,33.67,1.646,27.255\N,0,35.616,1.687,32.102\C
 ,0,34.475,2.103,32.734\C,0,34.689,2.203,34.246\C,0,36.276,2.035,34.333
 \C,0,36.659,1.612,32.945\C,0,37.029,3.302,34.882\C,0,33.912,1.084,35.0
 79\C,0,33.167,1.39,36.356\C,0,33.843,2.221,37.388\O,0,33.421,3.341,37.

 Normal termination of Gaussian 16 at Wed May  4 16:51:22 2022.
