 Gaussian 16, Revision A.03,
 Gaussian 16:  ES64L-G16RevA.03 25-Dec-2016

 ------------------------------
 #p blyp/Def2SVP td=(nstates=5)
 ------------------------------

 --------------------------------------------------
 step_1801_chromophore_7 TDDFT with blyp functional
 --------------------------------------------------
 Symbolic Z-matrix:
 Charge =  0 Multiplicity = 1

                         Standard orientation:
 ---------------------------------------------------------------------
 Center     Atomic      Atomic             Coordinates (Angstroms)
 Number     Number       Type             X           Y           Z
 ---------------------------------------------------------------------
      1         12           0        6.168657    0.657868   -0.009612
      2          6           0        3.926762   -2.071058   -0.074735
      3          6           0        3.859464    2.611942   -1.236548
      4          6           0        8.398339    3.157590    0.279396
      5          6           0        8.708824   -1.632779    0.954360
      6          7           0        4.140563    0.222131   -0.666621
      7          6           0        3.387460   -0.852865   -0.435621
      8          6           0        1.921100   -0.519936   -0.827262
      9          6           0        1.912161    0.955476   -1.335079
     10          6           0        3.432405    1.271539   -1.191254
     11          6           0        1.382289    1.080856   -2.771148
     12          6           0        0.897694   -0.862058    0.363014
     13          6           0       -0.512474   -0.315420    0.048087
     14          6           0       -1.685357   -1.024361    0.779305
     15          8           0       -1.896420   -1.001550    1.973006
     16          8           0       -2.452671   -1.738679   -0.140068
     17          7           0        6.063961    2.651578   -0.473447
     18          6           0        5.056123    3.306522   -1.081260
     19          6           0        5.445021    4.670098   -1.336620
     20          6           0        6.744003    4.869727   -0.815721
     21          6           0        7.096766    3.517369   -0.245866
     22          6           0        4.508480    5.511790   -2.177659
     23          6           0        7.702454    6.076336   -0.880046
     24          8           0        8.811805    6.081471   -0.323604
     25          6           0        7.311799    7.217631   -1.738868
     26          7           0        8.291191    0.663780    0.461925
     27          6           0        8.872779    1.930374    0.619270
     28          6           0       10.276227    1.778910    1.258300
     29          6           0       10.405385    0.218233    1.495785
     30          6           0        9.076076   -0.309463    0.871580
     31          6           0       11.476021    2.292154    0.315125
     32          6           0       10.606467   -0.143828    2.932168
     33          6           0       11.353765   -1.486327    3.299605
     34          7           0        6.399842   -1.478301    0.251201
     35          6           0        7.489841   -2.180189    0.607230
     36          6           0        7.154388   -3.612067    0.695484
     37          6           0        5.705927   -3.657560    0.495765
     38          6           0        5.318689   -2.277377    0.236162
     39          6           0        8.006994   -4.761437    1.130303
     40          6           0        4.482045   -4.463665    0.466406
     41          8           0        4.266537   -5.629047    0.783648
     42          6           0        3.307996   -3.453778    0.103974
     43          6           0        2.574797   -3.919225   -1.028773
     44          8           0        2.874836   -3.757468   -2.203319
     45          8           0        1.518636   -4.635492   -0.564861
     46          6           0        0.849001   -5.583695   -1.523034
     47          6           0       -3.576041   -2.545155    0.453352
     48          6           0       -4.917514   -2.284012   -0.238430
     49          6           0       -6.010812   -3.117446   -0.290698
     50          6           0       -6.011313   -4.542394    0.293074
     51          6           0       -7.176789   -2.834602   -1.168079
     52          6           0       -8.346832   -1.961449   -0.551270
     53          6           0       -8.791859   -0.818824   -1.423908
     54          6           0      -10.188642   -0.836944   -2.025722
     55          6           0      -10.250978   -0.723578   -3.551828
     56          6           0      -11.135634    0.202777   -1.433399
     57          6           0      -12.509582   -0.271013   -1.132759
     58          6           0      -13.531076    0.901231   -1.145012
     59          6           0      -14.565209    1.045904   -0.007028
     60          6           0      -15.625452   -0.094424   -0.190542
     61          6           0      -15.256606    2.414147    0.155985
     62          6           0      -15.595024    2.642357    1.678119
     63          6           0      -14.543023    3.571721    2.392289
     64          6           0      -13.406966    2.874311    3.200448
     65          6           0      -13.172802    3.571637    4.507050
     66          6           0      -12.103543    2.642155    2.460460
     67          1           0        3.050016    3.288010   -1.520672
     68          1           0        9.003151    3.958510    0.707663
     69          1           0        9.455568   -2.332902    1.336146
     70          1           0        1.671359   -1.278595   -1.568770
     71          1           0        1.355656    1.635158   -0.690166
     72          1           0        0.437038    0.541064   -2.830232
     73          1           0        2.019770    0.682379   -3.559437
     74          1           0        1.232984    2.134888   -3.004234
     75          1           0        1.230073   -0.527262    1.345413
     76          1           0        0.789094   -1.944723    0.439313
     77          1           0       -0.704913   -0.258748   -1.023362
     78          1           0       -0.405763    0.693639    0.445783
     79          1           0        5.053085    5.853911   -3.058112
     80          1           0        4.173699    6.295831   -1.499151
     81          1           0        3.611438    5.008479   -2.539050
     82          1           0        7.038400    6.890754   -2.742066
     83          1           0        8.157796    7.901673   -1.792803
     84          1           0        6.512336    7.812893   -1.296909
     85          1           0       10.363591    2.383450    2.161133
     86          1           0       11.242581   -0.180536    0.922071
     87          1           0       11.275009    1.969477   -0.705973
     88          1           0       12.361266    1.734950    0.623332
     89          1           0       11.598729    3.370181    0.423516
     90          1           0        9.634752   -0.085102    3.422715
     91          1           0       11.196629    0.682887    3.328139
     92          1           0       11.927215   -1.207365    4.183795
     93          1           0       11.892742   -1.887786    2.442546
     94          1           0       10.639942   -2.276065    3.532087
     95          1           0        8.593677   -4.395837    1.974086
     96          1           0        8.668511   -5.240004    0.408863
     97          1           0        7.335677   -5.400797    1.702597
     98          1           0        2.595157   -3.540953    0.924012
     99          1           0        1.578810   -6.392283   -1.484137
    100          1           0        0.776149   -5.176497   -2.531592
    101          1           0       -0.083654   -5.993421   -1.138356
    102          1           0       -3.884457   -2.115928    1.406301
    103          1           0       -3.276818   -3.591661    0.509882
    104          1           0       -4.898744   -1.389456   -0.861039
    105          1           0       -6.808834   -4.603713    1.033984
    106          1           0       -5.100792   -4.813117    0.827370
    107          1           0       -6.167246   -5.375992   -0.391344
    108          1           0       -7.725578   -3.754508   -1.371051
    109          1           0       -6.763586   -2.472064   -2.108987
    110          1           0       -8.141107   -1.586333    0.450464
    111          1           0       -9.172047   -2.647657   -0.360669
    112          1           0       -8.091248   -0.730770   -2.255595
    113          1           0       -8.559087    0.126044   -0.932375
    114          1           0      -10.654052   -1.812324   -1.890488
    115          1           0      -11.258865   -0.806840   -3.957557
    116          1           0       -9.588353   -1.426646   -4.055974
    117          1           0      -10.017508    0.296078   -3.856938
    118          1           0      -11.147299    1.054104   -2.114539
    119          1           0      -10.814847    0.728887   -0.534113
    120          1           0      -12.424011   -0.620453   -0.103408
    121          1           0      -12.877312   -1.088808   -1.752547
    122          1           0      -14.008609    0.812253   -2.120371
    123          1           0      -13.050820    1.879221   -1.114841
    124          1           0      -14.075672    0.801886    0.936453
    125          1           0      -15.473628   -0.764698   -1.036601
    126          1           0      -16.620573    0.327133   -0.050593
    127          1           0      -15.513930   -0.731405    0.687292
    128          1           0      -16.227356    2.399599   -0.340205
    129          1           0      -14.648420    3.266947   -0.142755
    130          1           0      -15.649074    1.708398    2.238473
    131          1           0      -16.554416    3.141953    1.813660
    132          1           0      -15.146320    4.212894    3.033799
    133          1           0      -14.058293    4.212164    1.655739
    134          1           0      -13.817296    1.895359    3.445078
    135          1           0      -14.102925    3.983968    4.895015
    136          1           0      -12.336411    4.264624    4.415197
    137          1           0      -12.898126    2.741130    5.156861
    138          1           0      -11.891306    3.615000    2.017267
    139          1           0      -12.180548    1.785552    1.790946
    140          1           0      -11.330699    2.442146    3.201964
 ---------------------------------------------------------------------

 SCF Done:  E(RB-LYP) =  -3007.39507984     A.U. after   21 cycles

 Excitation energies and oscillator strengths:

 Excited State   1:      Singlet-A      1.8025 eV  687.83 nm  f=0.3004  <S**2>=0.000
     245 -> 248        0.12229
     245 -> 249       -0.14141
     246 -> 247        0.69270
     246 <- 247       -0.15562
 This state for optimization and/or second-order correction.
 Total Energy, E(TD-HF/TD-DFT) =  -3007.32883767
 Copying the excited state density for this state as the 1-particle RhoCI density.

 Excited State   2:      Singlet-A      1.9989 eV  620.26 nm  f=0.0979  <S**2>=0.000
     243 -> 247        0.11784
     244 -> 247       -0.22696
     245 -> 247        0.61650
     246 -> 248       -0.12868
     246 -> 249        0.15646

 Excited State   3:      Singlet-A      2.0730 eV  598.10 nm  f=0.0073  <S**2>=0.000
     243 -> 247        0.21294
     244 -> 247        0.64664
     245 -> 247        0.16800

 Excited State   4:      Singlet-A      2.0850 eV  594.65 nm  f=0.0060  <S**2>=0.000
     243 -> 247        0.66285
     244 -> 247       -0.16628
     245 -> 247       -0.15875

 Excited State   5:      Singlet-A      2.0974 eV  591.14 nm  f=0.0000  <S**2>=0.000
     242 -> 247        0.70588

 The electronic state is 1-A.
 Alpha  occ. eigenvalues --  -46.27595 -18.82163 -18.81766 -18.77173 -18.76249
 Alpha  occ. eigenvalues --  -18.76064 -18.75971 -14.03352 -14.02839 -14.01403
 Alpha  occ. eigenvalues --  -14.00691 -10.04383 -10.02983 -10.00499 -10.00365
 Alpha  occ. eigenvalues --   -9.98062  -9.97803  -9.96783  -9.96622  -9.96280
 Alpha  occ. eigenvalues --   -9.95928  -9.95856  -9.95344  -9.95134  -9.94976
 Alpha  occ. eigenvalues --   -9.94621  -9.94316  -9.94285  -9.94047  -9.93806
 Alpha  occ. eigenvalues --   -9.93764  -9.93677  -9.93619  -9.93311  -9.93306
 Alpha  occ. eigenvalues --   -9.93289  -9.93208  -9.93102  -9.92833  -9.92584
 Alpha  occ. eigenvalues --   -9.92479  -9.92408  -9.92397  -9.92325  -9.92298
 Alpha  occ. eigenvalues --   -9.92202  -9.92105  -9.92010  -9.91989  -9.91951
 Alpha  occ. eigenvalues --   -9.91924  -9.91642  -9.91602  -9.91596  -9.91227
 Alpha  occ. eigenvalues --   -9.91155  -9.91149  -9.90999  -9.90939  -9.90804
 Alpha  occ. eigenvalues --   -9.90730  -9.90689  -9.90649  -9.90452  -9.90429
 Alpha  occ. eigenvalues --   -9.90378  -2.92123  -1.72569  -1.71983  -1.71846
 Alpha  occ. eigenvalues --   -0.97258  -0.97010  -0.91369  -0.91027  -0.89781
 Alpha  occ. eigenvalues --   -0.89208  -0.86865  -0.86066  -0.85993  -0.85057
 Alpha  occ. eigenvalues --   -0.75234  -0.73748  -0.72915  -0.72693  -0.72323
 Alpha  occ. eigenvalues --   -0.72136  -0.71802  -0.71099  -0.70994  -0.70644
 Alpha  occ. eigenvalues --   -0.69742  -0.69051  -0.68444  -0.67812  -0.66979
 Alpha  occ. eigenvalues --   -0.66493  -0.66047  -0.65535  -0.65186  -0.64814
 Alpha  occ. eigenvalues --   -0.64102  -0.62542  -0.62276  -0.61503  -0.60910
 Alpha  occ. eigenvalues --   -0.60652  -0.60277  -0.59951  -0.59076  -0.58901
 Alpha  occ. eigenvalues --   -0.58116  -0.57611  -0.56825  -0.55596  -0.54625
 Alpha  occ. eigenvalues --   -0.54145  -0.53790  -0.52835  -0.52569  -0.51575
 Alpha  occ. eigenvalues --   -0.51468  -0.50920  -0.50827  -0.50615  -0.50072
 Alpha  occ. eigenvalues --   -0.49099  -0.49046  -0.48204  -0.47929  -0.46477
 Alpha  occ. eigenvalues --   -0.46395  -0.46014  -0.45781  -0.45251  -0.44432
 Alpha  occ. eigenvalues --   -0.43957  -0.43508  -0.43099  -0.42750  -0.42360
 Alpha  occ. eigenvalues --   -0.41954  -0.41896  -0.41693  -0.41205  -0.40884
 Alpha  occ. eigenvalues --   -0.40813  -0.40650  -0.40567  -0.40303  -0.40259
 Alpha  occ. eigenvalues --   -0.40096  -0.39908  -0.39527  -0.39329  -0.39089
 Alpha  occ. eigenvalues --   -0.38656  -0.38532  -0.38378  -0.38311  -0.38136
 Alpha  occ. eigenvalues --   -0.38021  -0.37950  -0.37666  -0.37580  -0.37289
 Alpha  occ. eigenvalues --   -0.37130  -0.37021  -0.36830  -0.36711  -0.36471
 Alpha  occ. eigenvalues --   -0.36359  -0.36161  -0.36060  -0.35949  -0.35817
 Alpha  occ. eigenvalues --   -0.35746  -0.35580  -0.35418  -0.35052  -0.34943
 Alpha  occ. eigenvalues --   -0.34375  -0.34317  -0.34192  -0.34005  -0.33836
 Alpha  occ. eigenvalues --   -0.33636  -0.33548  -0.33516  -0.33262  -0.33007
 Alpha  occ. eigenvalues --   -0.32900  -0.32479  -0.32438  -0.32297  -0.32229
 Alpha  occ. eigenvalues --   -0.32119  -0.31871  -0.31857  -0.31637  -0.31584
 Alpha  occ. eigenvalues --   -0.31423  -0.31373  -0.31189  -0.31003  -0.30700
 Alpha  occ. eigenvalues --   -0.30541  -0.30403  -0.30226  -0.30068  -0.29793
 Alpha  occ. eigenvalues --   -0.29697  -0.29367  -0.29230  -0.29108  -0.29021
 Alpha  occ. eigenvalues --   -0.28848  -0.28540  -0.28387  -0.28294  -0.27747
 Alpha  occ. eigenvalues --   -0.27599  -0.27291  -0.26642  -0.26402  -0.26187
 Alpha  occ. eigenvalues --   -0.26012  -0.25791  -0.25580  -0.25450  -0.25236
 Alpha  occ. eigenvalues --   -0.25013  -0.24631  -0.24585  -0.23926  -0.23597
 Alpha  occ. eigenvalues --   -0.22659  -0.22493  -0.22224  -0.21355  -0.21140
 Alpha  occ. eigenvalues --   -0.20444  -0.19440  -0.19262  -0.19237  -0.17398
 Alpha  occ. eigenvalues --   -0.15927
 Alpha virt. eigenvalues --   -0.11733  -0.06812  -0.06440  -0.05009  -0.02908
 Alpha virt. eigenvalues --   -0.02347  -0.02285  -0.02061  -0.00750   0.00066
 Alpha virt. eigenvalues --    0.01286   0.01793   0.02258   0.02284   0.02719

 Mulliken charges:
               1
     1  Mg   0.677457
     2  C    0.119448
     3  C   -0.055515
     4  C   -0.025027
     5  C   -0.098163
     6  N   -0.204892
     7  C   -0.088794
     8  C    0.016913
     9  C    0.006796
    10  C    0.046052
    11  C    0.126357
    12  C    0.038436
    13  C    0.140024
    14  C    0.085642
    15  O   -0.171768
    16  O   -0.296703
    17  N   -0.291310
    18  C    0.113309
    19  C   -0.127046
    20  C    0.015489
    21  C    0.068977
    22  C    0.160377
    23  C   -0.057442
    24  O   -0.173256
    25  C    0.132793
    26  N   -0.205988
    27  C    0.054421
    28  C   -0.035275
    29  C    0.061918
    30  C    0.008431
    31  C    0.100973
    32  C    0.062298
    33  C    0.081508
    34  N   -0.198620
    35  C    0.151748
    36  C   -0.197709
    37  C    0.072302
    38  C   -0.003634
    39  C    0.183550
    40  C   -0.030707
    41  O   -0.130127
    42  C    0.039154
    43  C    0.086380
    44  O   -0.187611
    45  O   -0.282886
    46  C    0.213026
    47  C    0.293105
    48  C   -0.107205
    49  C   -0.121851
    50  C    0.117792
    51  C    0.126714
    52  C    0.087620
    53  C    0.138239
    54  C   -0.027627
    55  C    0.094397
    56  C    0.071864
    57  C    0.108922
    58  C    0.077634
    59  C   -0.100508
    60  C    0.119230
    61  C    0.144925
    62  C    0.040786
    63  C    0.091392
    64  C   -0.101429
    65  C    0.119284
    66  C    0.111603
    67  H   -0.067590
    68  H   -0.022608
    69  H   -0.080166
    70  H   -0.007591
    71  H   -0.013646
    72  H   -0.006799
    73  H   -0.001982
    74  H   -0.015651
    75  H   -0.013254
    76  H   -0.002609
    77  H   -0.010051
    78  H   -0.004993
    79  H    0.009128
    80  H    0.003724
    81  H   -0.012219
    82  H    0.013925
    83  H   -0.010424
    84  H    0.008314
    85  H   -0.016101
    86  H   -0.037194
    87  H   -0.005694
    88  H   -0.011390
    89  H    0.015771
    90  H   -0.021221
    91  H   -0.022811
    92  H    0.002361
    93  H   -0.005123
    94  H   -0.001193
    95  H   -0.021041
    96  H    0.021217
    97  H    0.000420
    98  H    0.006130
    99  H    0.021497
   100  H    0.029710
   101  H    0.021518
   102  H    0.020856
   103  H    0.021167
   104  H   -0.033797
   105  H   -0.008620
   106  H   -0.028098
   107  H    0.002724
   108  H   -0.038020
   109  H   -0.006766
   110  H   -0.029537
   111  H   -0.036384
   112  H   -0.059483
   113  H   -0.041941
   114  H   -0.041342
   115  H   -0.025977
   116  H   -0.012924
   117  H   -0.028588
   118  H   -0.044113
   119  H   -0.040617
   120  H   -0.041814
   121  H   -0.026256
   122  H   -0.033383
   123  H   -0.039810
   124  H   -0.026884
   125  H   -0.007658
   126  H   -0.024085
   127  H   -0.036270
   128  H   -0.031175
   129  H   -0.033447
   130  H   -0.030553
   131  H   -0.039753
   132  H   -0.041967
   133  H   -0.043533
   134  H   -0.051045
   135  H   -0.019509
   136  H   -0.013536
   137  H   -0.022744
   138  H   -0.013502
   139  H    0.005197
   140  H   -0.025368
 Sum of Mulliken charges =  -0.00000

 Dipole moment (field-independent basis, Debye):
    X=             -1.9740    Y=              1.6502    Z=             -0.5547  Tot=              2.6320
 Quadrupole moment (field-independent basis, Debye-Ang):
   XX=           -385.7912   YY=           -411.4253   ZZ=           -408.9728
   XY=              6.8382   XZ=             12.6804   YZ=             -5.1717

 Normal termination of Gaussian 16 at Fri Apr 29 02:50:10 2022.
