 Gaussian 16, Revision A.03,
 Gaussian 16:  ES64L-G16RevA.03 25-Dec-2016

 -----------------------------------
 #p cam-b3lyp/Def2SVP td=(nstates=5)
 -----------------------------------

 -------------------------------------------------------
 step_1801_chromophore_7 TDDFT with cam-b3lyp functional
 -------------------------------------------------------
 Symbolic Z-matrix:
 Charge =  0 Multiplicity = 1

                         Standard orientation:
 ---------------------------------------------------------------------
 Center     Atomic      Atomic             Coordinates (Angstroms)
 Number     Number       Type             X           Y           Z
 ---------------------------------------------------------------------
      1         12           0        6.168657    0.657868   -0.009612
      2          6           0        3.926762   -2.071058   -0.074735
      3          6           0        3.859464    2.611942   -1.236548
      4          6           0        8.398339    3.157590    0.279396
      5          6           0        8.708824   -1.632779    0.954360
      6          7           0        4.140563    0.222131   -0.666621
      7          6           0        3.387460   -0.852865   -0.435621
      8          6           0        1.921100   -0.519936   -0.827262
      9          6           0        1.912161    0.955476   -1.335079
     10          6           0        3.432405    1.271539   -1.191254
     11          6           0        1.382289    1.080856   -2.771148
     12          6           0        0.897694   -0.862058    0.363014
     13          6           0       -0.512474   -0.315420    0.048087
     14          6           0       -1.685357   -1.024361    0.779305
     15          8           0       -1.896420   -1.001550    1.973006
     16          8           0       -2.452671   -1.738679   -0.140068
     17          7           0        6.063961    2.651578   -0.473447
     18          6           0        5.056123    3.306522   -1.081260
     19          6           0        5.445021    4.670098   -1.336620
     20          6           0        6.744003    4.869727   -0.815721
     21          6           0        7.096766    3.517369   -0.245866
     22          6           0        4.508480    5.511790   -2.177659
     23          6           0        7.702454    6.076336   -0.880046
     24          8           0        8.811805    6.081471   -0.323604
     25          6           0        7.311799    7.217631   -1.738868
     26          7           0        8.291191    0.663780    0.461925
     27          6           0        8.872779    1.930374    0.619270
     28          6           0       10.276227    1.778910    1.258300
     29          6           0       10.405385    0.218233    1.495785
     30          6           0        9.076076   -0.309463    0.871580
     31          6           0       11.476021    2.292154    0.315125
     32          6           0       10.606467   -0.143828    2.932168
     33          6           0       11.353765   -1.486327    3.299605
     34          7           0        6.399842   -1.478301    0.251201
     35          6           0        7.489841   -2.180189    0.607230
     36          6           0        7.154388   -3.612067    0.695484
     37          6           0        5.705927   -3.657560    0.495765
     38          6           0        5.318689   -2.277377    0.236162
     39          6           0        8.006994   -4.761437    1.130303
     40          6           0        4.482045   -4.463665    0.466406
     41          8           0        4.266537   -5.629047    0.783648
     42          6           0        3.307996   -3.453778    0.103974
     43          6           0        2.574797   -3.919225   -1.028773
     44          8           0        2.874836   -3.757468   -2.203319
     45          8           0        1.518636   -4.635492   -0.564861
     46          6           0        0.849001   -5.583695   -1.523034
     47          6           0       -3.576041   -2.545155    0.453352
     48          6           0       -4.917514   -2.284012   -0.238430
     49          6           0       -6.010812   -3.117446   -0.290698
     50          6           0       -6.011313   -4.542394    0.293074
     51          6           0       -7.176789   -2.834602   -1.168079
     52          6           0       -8.346832   -1.961449   -0.551270
     53          6           0       -8.791859   -0.818824   -1.423908
     54          6           0      -10.188642   -0.836944   -2.025722
     55          6           0      -10.250978   -0.723578   -3.551828
     56          6           0      -11.135634    0.202777   -1.433399
     57          6           0      -12.509582   -0.271013   -1.132759
     58          6           0      -13.531076    0.901231   -1.145012
     59          6           0      -14.565209    1.045904   -0.007028
     60          6           0      -15.625452   -0.094424   -0.190542
     61          6           0      -15.256606    2.414147    0.155985
     62          6           0      -15.595024    2.642357    1.678119
     63          6           0      -14.543023    3.571721    2.392289
     64          6           0      -13.406966    2.874311    3.200448
     65          6           0      -13.172802    3.571637    4.507050
     66          6           0      -12.103543    2.642155    2.460460
     67          1           0        3.050016    3.288010   -1.520672
     68          1           0        9.003151    3.958510    0.707663
     69          1           0        9.455568   -2.332902    1.336146
     70          1           0        1.671359   -1.278595   -1.568770
     71          1           0        1.355656    1.635158   -0.690166
     72          1           0        0.437038    0.541064   -2.830232
     73          1           0        2.019770    0.682379   -3.559437
     74          1           0        1.232984    2.134888   -3.004234
     75          1           0        1.230073   -0.527262    1.345413
     76          1           0        0.789094   -1.944723    0.439313
     77          1           0       -0.704913   -0.258748   -1.023362
     78          1           0       -0.405763    0.693639    0.445783
     79          1           0        5.053085    5.853911   -3.058112
     80          1           0        4.173699    6.295831   -1.499151
     81          1           0        3.611438    5.008479   -2.539050
     82          1           0        7.038400    6.890754   -2.742066
     83          1           0        8.157796    7.901673   -1.792803
     84          1           0        6.512336    7.812893   -1.296909
     85          1           0       10.363591    2.383450    2.161133
     86          1           0       11.242581   -0.180536    0.922071
     87          1           0       11.275009    1.969477   -0.705973
     88          1           0       12.361266    1.734950    0.623332
     89          1           0       11.598729    3.370181    0.423516
     90          1           0        9.634752   -0.085102    3.422715
     91          1           0       11.196629    0.682887    3.328139
     92          1           0       11.927215   -1.207365    4.183795
     93          1           0       11.892742   -1.887786    2.442546
     94          1           0       10.639942   -2.276065    3.532087
     95          1           0        8.593677   -4.395837    1.974086
     96          1           0        8.668511   -5.240004    0.408863
     97          1           0        7.335677   -5.400797    1.702597
     98          1           0        2.595157   -3.540953    0.924012
     99          1           0        1.578810   -6.392283   -1.484137
    100          1           0        0.776149   -5.176497   -2.531592
    101          1           0       -0.083654   -5.993421   -1.138356
    102          1           0       -3.884457   -2.115928    1.406301
    103          1           0       -3.276818   -3.591661    0.509882
    104          1           0       -4.898744   -1.389456   -0.861039
    105          1           0       -6.808834   -4.603713    1.033984
    106          1           0       -5.100792   -4.813117    0.827370
    107          1           0       -6.167246   -5.375992   -0.391344
    108          1           0       -7.725578   -3.754508   -1.371051
    109          1           0       -6.763586   -2.472064   -2.108987
    110          1           0       -8.141107   -1.586333    0.450464
    111          1           0       -9.172047   -2.647657   -0.360669
    112          1           0       -8.091248   -0.730770   -2.255595
    113          1           0       -8.559087    0.126044   -0.932375
    114          1           0      -10.654052   -1.812324   -1.890488
    115          1           0      -11.258865   -0.806840   -3.957557
    116          1           0       -9.588353   -1.426646   -4.055974
    117          1           0      -10.017508    0.296078   -3.856938
    118          1           0      -11.147299    1.054104   -2.114539
    119          1           0      -10.814847    0.728887   -0.534113
    120          1           0      -12.424011   -0.620453   -0.103408
    121          1           0      -12.877312   -1.088808   -1.752547
    122          1           0      -14.008609    0.812253   -2.120371
    123          1           0      -13.050820    1.879221   -1.114841
    124          1           0      -14.075672    0.801886    0.936453
    125          1           0      -15.473628   -0.764698   -1.036601
    126          1           0      -16.620573    0.327133   -0.050593
    127          1           0      -15.513930   -0.731405    0.687292
    128          1           0      -16.227356    2.399599   -0.340205
    129          1           0      -14.648420    3.266947   -0.142755
    130          1           0      -15.649074    1.708398    2.238473
    131          1           0      -16.554416    3.141953    1.813660
    132          1           0      -15.146320    4.212894    3.033799
    133          1           0      -14.058293    4.212164    1.655739
    134          1           0      -13.817296    1.895359    3.445078
    135          1           0      -14.102925    3.983968    4.895015
    136          1           0      -12.336411    4.264624    4.415197
    137          1           0      -12.898126    2.741130    5.156861
    138          1           0      -11.891306    3.615000    2.017267
    139          1           0      -12.180548    1.785552    1.790946
    140          1           0      -11.330699    2.442146    3.201964
 ---------------------------------------------------------------------

 SCF Done:  E(RCAM-B3LYP) =  -3007.18545683     A.U. after   17 cycles

 Excitation energies and oscillator strengths:

 Excited State   1:      Singlet-A      1.7089 eV  725.51 nm  f=0.3987  <S**2>=0.000
     245 -> 248        0.17006
     246 -> 247        0.68828
     245 <- 248        0.10545
 This state for optimization and/or second-order correction.
 Total Energy, E(TD-HF/TD-DFT) =  -3007.12265539
 Copying the excited state density for this state as the 1-particle RhoCI density.

 Excited State   2:      Singlet-A      2.2340 eV  554.98 nm  f=0.1378  <S**2>=0.000
     245 -> 247        0.64853
     246 -> 248       -0.27073

 Excited State   3:      Singlet-A      3.3565 eV  369.38 nm  f=0.0009  <S**2>=0.000
     243 -> 247        0.68272
     246 -> 248        0.11671

 Excited State   4:      Singlet-A      3.4873 eV  355.53 nm  f=0.0115  <S**2>=0.000
     240 -> 247        0.54609
     240 -> 249       -0.27397
     240 -> 250        0.17985
     241 -> 247        0.19446

 Excited State   5:      Singlet-A      3.5937 eV  345.01 nm  f=0.4757  <S**2>=0.000
     242 -> 247        0.30257
     243 -> 247       -0.11315
     245 -> 247        0.22791
     246 -> 248        0.56869

 The electronic state is 1-A.
 Alpha  occ. eigenvalues --  -46.89125 -19.25031 -19.24872 -19.20187 -19.19718
 Alpha  occ. eigenvalues --  -19.19269 -19.19083 -14.42197 -14.41592 -14.39757
 Alpha  occ. eigenvalues --  -14.39159 -10.39744 -10.38582 -10.36040 -10.35535
 Alpha  occ. eigenvalues --  -10.32178 -10.32007 -10.31216 -10.30988 -10.30461
 Alpha  occ. eigenvalues --  -10.30454 -10.30061 -10.29875 -10.29586 -10.29212
 Alpha  occ. eigenvalues --  -10.28943 -10.28571 -10.28440 -10.28280 -10.28117
 Alpha  occ. eigenvalues --  -10.27816 -10.27753 -10.27685 -10.27496 -10.27413
 Alpha  occ. eigenvalues --  -10.27307 -10.27147 -10.27000 -10.26890 -10.26492
 Alpha  occ. eigenvalues --  -10.26451 -10.26337 -10.26234 -10.26187 -10.26069
 Alpha  occ. eigenvalues --  -10.26048 -10.26016 -10.26008 -10.25859 -10.25703
 Alpha  occ. eigenvalues --  -10.25655 -10.25396 -10.25278 -10.25273 -10.24942
 Alpha  occ. eigenvalues --  -10.24860 -10.24820 -10.24643 -10.24542 -10.24418
 Alpha  occ. eigenvalues --  -10.24397 -10.24354 -10.24333 -10.24054 -10.24009
 Alpha  occ. eigenvalues --  -10.23993  -3.17554  -1.92478  -1.91988  -1.91867
 Alpha  occ. eigenvalues --   -1.15997  -1.15480  -1.10020  -1.09200  -1.07614
 Alpha  occ. eigenvalues --   -1.07338  -1.04612  -1.03731  -1.03447  -1.02569
 Alpha  occ. eigenvalues --   -0.92526  -0.90629  -0.89748  -0.89472  -0.89081
 Alpha  occ. eigenvalues --   -0.88806  -0.88384  -0.87708  -0.87543  -0.87131
 Alpha  occ. eigenvalues --   -0.86420  -0.85398  -0.84762  -0.84078  -0.83109
 Alpha  occ. eigenvalues --   -0.82588  -0.82077  -0.81473  -0.81026  -0.80715
 Alpha  occ. eigenvalues --   -0.79897  -0.78224  -0.77863  -0.77017  -0.76371
 Alpha  occ. eigenvalues --   -0.76053  -0.75646  -0.75173  -0.74341  -0.74168
 Alpha  occ. eigenvalues --   -0.73164  -0.72629  -0.71662  -0.70377  -0.69328
 Alpha  occ. eigenvalues --   -0.68766  -0.68400  -0.67201  -0.66946  -0.65671
 Alpha  occ. eigenvalues --   -0.65513  -0.65099  -0.64849  -0.64684  -0.64109
 Alpha  occ. eigenvalues --   -0.63049  -0.62808  -0.62092  -0.61728  -0.59983
 Alpha  occ. eigenvalues --   -0.59929  -0.59627  -0.59271  -0.58664  -0.58048
 Alpha  occ. eigenvalues --   -0.57618  -0.56838  -0.56298  -0.56151  -0.55574
 Alpha  occ. eigenvalues --   -0.54905  -0.54758  -0.54703  -0.54314  -0.53996
 Alpha  occ. eigenvalues --   -0.53684  -0.53399  -0.53188  -0.53166  -0.52930
 Alpha  occ. eigenvalues --   -0.52820  -0.52538  -0.52105  -0.52031  -0.51759
 Alpha  occ. eigenvalues --   -0.51511  -0.51001  -0.50811  -0.50563  -0.50502
 Alpha  occ. eigenvalues --   -0.50435  -0.50278  -0.50159  -0.49949  -0.49746
 Alpha  occ. eigenvalues --   -0.49629  -0.49501  -0.49302  -0.49194  -0.48871
 Alpha  occ. eigenvalues --   -0.48528  -0.48446  -0.48371  -0.48118  -0.48005
 Alpha  occ. eigenvalues --   -0.47881  -0.47511  -0.47462  -0.47047  -0.46940
 Alpha  occ. eigenvalues --   -0.46130  -0.46106  -0.46051  -0.45756  -0.45688
 Alpha  occ. eigenvalues --   -0.45419  -0.45312  -0.45302  -0.45069  -0.44918
 Alpha  occ. eigenvalues --   -0.44675  -0.44216  -0.43991  -0.43966  -0.43872
 Alpha  occ. eigenvalues --   -0.43800  -0.43669  -0.43373  -0.43326  -0.43149
 Alpha  occ. eigenvalues --   -0.42996  -0.42854  -0.42747  -0.42391  -0.41980
 Alpha  occ. eigenvalues --   -0.41908  -0.41802  -0.41682  -0.41526  -0.41138
 Alpha  occ. eigenvalues --   -0.40984  -0.40728  -0.40394  -0.40309  -0.40167
 Alpha  occ. eigenvalues --   -0.40069  -0.39656  -0.39369  -0.39305  -0.38660
 Alpha  occ. eigenvalues --   -0.38555  -0.38214  -0.37486  -0.37398  -0.36977
 Alpha  occ. eigenvalues --   -0.36872  -0.36684  -0.36455  -0.36331  -0.36222
 Alpha  occ. eigenvalues --   -0.36129  -0.35635  -0.35176  -0.34412  -0.34357
 Alpha  occ. eigenvalues --   -0.34068  -0.33497  -0.32800  -0.31719  -0.31375
 Alpha  occ. eigenvalues --   -0.31288  -0.30344  -0.29861  -0.29023  -0.24153
 Alpha  occ. eigenvalues --   -0.21178
 Alpha virt. eigenvalues --   -0.08857  -0.01290  -0.00104   0.01870   0.02901
 Alpha virt. eigenvalues --    0.04767   0.05181   0.05292   0.05959   0.06659
 Alpha virt. eigenvalues --    0.08223   0.08357   0.08465   0.08820   0.09446

 Mulliken charges:
               1
     1  Mg   0.811366
     2  C    0.082919
     3  C   -0.068211
     4  C   -0.040350
     5  C   -0.111155
     6  N   -0.278805
     7  C   -0.038067
     8  C   -0.032837
     9  C   -0.059468
    10  C    0.068845
    11  C    0.076498
    12  C   -0.001292
    13  C    0.066814
    14  C    0.168849
    15  O   -0.213264
    16  O   -0.361983
    17  N   -0.377350
    18  C    0.111751
    19  C   -0.130770
    20  C   -0.054525
    21  C    0.092519
    22  C    0.104752
    23  C    0.023367
    24  O   -0.215858
    25  C    0.049028
    26  N   -0.281267
    27  C    0.070012
    28  C   -0.089325
    29  C    0.004587
    30  C    0.040296
    31  C    0.049865
    32  C    0.006574
    33  C    0.019567
    34  N   -0.289484
    35  C    0.158421
    36  C   -0.181187
    37  C   -0.005945
    38  C    0.034660
    39  C    0.126249
    40  C    0.068572
    41  O   -0.166349
    42  C   -0.037167
    43  C    0.176502
    44  O   -0.223579
    45  O   -0.347215
    46  C    0.173542
    47  C    0.258647
    48  C   -0.124217
    49  C   -0.149244
    50  C    0.057531
    51  C    0.065047
    52  C    0.035708
    53  C    0.076754
    54  C   -0.089977
    55  C    0.040485
    56  C    0.021942
    57  C    0.054429
    58  C    0.026895
    59  C   -0.150069
    60  C    0.059693
    61  C    0.085275
    62  C   -0.010845
    63  C    0.037250
    64  C   -0.160854
    65  C    0.057759
    66  C    0.059022
    67  H   -0.035860
    68  H    0.014347
    69  H   -0.043380
    70  H    0.026157
    71  H    0.019801
    72  H    0.014220
    73  H    0.024024
    74  H    0.008454
    75  H    0.018501
    76  H    0.022272
    77  H    0.022907
    78  H    0.026765
    79  H    0.032128
    80  H    0.028308
    81  H    0.014803
    82  H    0.039754
    83  H    0.024525
    84  H    0.036335
    85  H    0.017278
    86  H   -0.001830
    87  H    0.018433
    88  H    0.010571
    89  H    0.038490
    90  H    0.008285
    91  H    0.006058
    92  H    0.027132
    93  H    0.016873
    94  H    0.018885
    95  H    0.004540
    96  H    0.049020
    97  H    0.029711
    98  H    0.050740
    99  H    0.044751
   100  H    0.055663
   101  H    0.045212
   102  H    0.054214
   103  H    0.045171
   104  H    0.001108
   105  H    0.015422
   106  H   -0.003562
   107  H    0.027410
   108  H   -0.005655
   109  H    0.021522
   110  H    0.000780
   111  H   -0.007667
   112  H   -0.027478
   113  H   -0.010355
   114  H   -0.009389
   115  H   -0.001001
   116  H    0.011211
   117  H   -0.004899
   118  H   -0.015423
   119  H   -0.012179
   120  H   -0.013192
   121  H    0.000199
   122  H   -0.004966
   123  H   -0.013018
   124  H   -0.001045
   125  H    0.016032
   126  H    0.000587
   127  H   -0.011408
   128  H   -0.001098
   129  H   -0.004741
   130  H   -0.004261
   131  H   -0.008471
   132  H   -0.011196
   133  H   -0.016717
   134  H   -0.019882
   135  H    0.005722
   136  H    0.010220
   137  H    0.002329
   138  H    0.008532
   139  H    0.021104
   140  H    0.000833
 Sum of Mulliken charges =  -0.00000

 Dipole moment (field-independent basis, Debye):
    X=             -2.2167    Y=              1.3671    Z=             -0.6133  Tot=              2.6756
 Quadrupole moment (field-independent basis, Debye-Ang):
   XX=           -384.9306   YY=           -406.9353   ZZ=           -408.9288
   XY=              5.0233   XZ=             13.8067   YZ=             -6.0939

 Normal termination of Gaussian 16 at Fri Apr 29 01:48:25 2022.
