 Gaussian 16, Revision A.03,
 Gaussian 16:  ES64L-G16RevA.03 25-Dec-2016

 ---------------------------------
 #p PBE1PBE/Def2SVP td=(nstates=5)
 ---------------------------------

 -----------------------------------------------------
 step_1801_chromophore_7 TDDFT with PBE1PBE functional
 -----------------------------------------------------
 Symbolic Z-matrix:
 Charge =  0 Multiplicity = 1

                         Standard orientation:
 ---------------------------------------------------------------------
 Center     Atomic      Atomic             Coordinates (Angstroms)
 Number     Number       Type             X           Y           Z
 ---------------------------------------------------------------------
      1         12           0        6.168657    0.657868   -0.009612
      2          6           0        3.926762   -2.071058   -0.074735
      3          6           0        3.859464    2.611942   -1.236548
      4          6           0        8.398339    3.157590    0.279396
      5          6           0        8.708824   -1.632779    0.954360
      6          7           0        4.140563    0.222131   -0.666621
      7          6           0        3.387460   -0.852865   -0.435621
      8          6           0        1.921100   -0.519936   -0.827262
      9          6           0        1.912161    0.955476   -1.335079
     10          6           0        3.432405    1.271539   -1.191254
     11          6           0        1.382289    1.080856   -2.771148
     12          6           0        0.897694   -0.862058    0.363014
     13          6           0       -0.512474   -0.315420    0.048087
     14          6           0       -1.685357   -1.024361    0.779305
     15          8           0       -1.896420   -1.001550    1.973006
     16          8           0       -2.452671   -1.738679   -0.140068
     17          7           0        6.063961    2.651578   -0.473447
     18          6           0        5.056123    3.306522   -1.081260
     19          6           0        5.445021    4.670098   -1.336620
     20          6           0        6.744003    4.869727   -0.815721
     21          6           0        7.096766    3.517369   -0.245866
     22          6           0        4.508480    5.511790   -2.177659
     23          6           0        7.702454    6.076336   -0.880046
     24          8           0        8.811805    6.081471   -0.323604
     25          6           0        7.311799    7.217631   -1.738868
     26          7           0        8.291191    0.663780    0.461925
     27          6           0        8.872779    1.930374    0.619270
     28          6           0       10.276227    1.778910    1.258300
     29          6           0       10.405385    0.218233    1.495785
     30          6           0        9.076076   -0.309463    0.871580
     31          6           0       11.476021    2.292154    0.315125
     32          6           0       10.606467   -0.143828    2.932168
     33          6           0       11.353765   -1.486327    3.299605
     34          7           0        6.399842   -1.478301    0.251201
     35          6           0        7.489841   -2.180189    0.607230
     36          6           0        7.154388   -3.612067    0.695484
     37          6           0        5.705927   -3.657560    0.495765
     38          6           0        5.318689   -2.277377    0.236162
     39          6           0        8.006994   -4.761437    1.130303
     40          6           0        4.482045   -4.463665    0.466406
     41          8           0        4.266537   -5.629047    0.783648
     42          6           0        3.307996   -3.453778    0.103974
     43          6           0        2.574797   -3.919225   -1.028773
     44          8           0        2.874836   -3.757468   -2.203319
     45          8           0        1.518636   -4.635492   -0.564861
     46          6           0        0.849001   -5.583695   -1.523034
     47          6           0       -3.576041   -2.545155    0.453352
     48          6           0       -4.917514   -2.284012   -0.238430
     49          6           0       -6.010812   -3.117446   -0.290698
     50          6           0       -6.011313   -4.542394    0.293074
     51          6           0       -7.176789   -2.834602   -1.168079
     52          6           0       -8.346832   -1.961449   -0.551270
     53          6           0       -8.791859   -0.818824   -1.423908
     54          6           0      -10.188642   -0.836944   -2.025722
     55          6           0      -10.250978   -0.723578   -3.551828
     56          6           0      -11.135634    0.202777   -1.433399
     57          6           0      -12.509582   -0.271013   -1.132759
     58          6           0      -13.531076    0.901231   -1.145012
     59          6           0      -14.565209    1.045904   -0.007028
     60          6           0      -15.625452   -0.094424   -0.190542
     61          6           0      -15.256606    2.414147    0.155985
     62          6           0      -15.595024    2.642357    1.678119
     63          6           0      -14.543023    3.571721    2.392289
     64          6           0      -13.406966    2.874311    3.200448
     65          6           0      -13.172802    3.571637    4.507050
     66          6           0      -12.103543    2.642155    2.460460
     67          1           0        3.050016    3.288010   -1.520672
     68          1           0        9.003151    3.958510    0.707663
     69          1           0        9.455568   -2.332902    1.336146
     70          1           0        1.671359   -1.278595   -1.568770
     71          1           0        1.355656    1.635158   -0.690166
     72          1           0        0.437038    0.541064   -2.830232
     73          1           0        2.019770    0.682379   -3.559437
     74          1           0        1.232984    2.134888   -3.004234
     75          1           0        1.230073   -0.527262    1.345413
     76          1           0        0.789094   -1.944723    0.439313
     77          1           0       -0.704913   -0.258748   -1.023362
     78          1           0       -0.405763    0.693639    0.445783
     79          1           0        5.053085    5.853911   -3.058112
     80          1           0        4.173699    6.295831   -1.499151
     81          1           0        3.611438    5.008479   -2.539050
     82          1           0        7.038400    6.890754   -2.742066
     83          1           0        8.157796    7.901673   -1.792803
     84          1           0        6.512336    7.812893   -1.296909
     85          1           0       10.363591    2.383450    2.161133
     86          1           0       11.242581   -0.180536    0.922071
     87          1           0       11.275009    1.969477   -0.705973
     88          1           0       12.361266    1.734950    0.623332
     89          1           0       11.598729    3.370181    0.423516
     90          1           0        9.634752   -0.085102    3.422715
     91          1           0       11.196629    0.682887    3.328139
     92          1           0       11.927215   -1.207365    4.183795
     93          1           0       11.892742   -1.887786    2.442546
     94          1           0       10.639942   -2.276065    3.532087
     95          1           0        8.593677   -4.395837    1.974086
     96          1           0        8.668511   -5.240004    0.408863
     97          1           0        7.335677   -5.400797    1.702597
     98          1           0        2.595157   -3.540953    0.924012
     99          1           0        1.578810   -6.392283   -1.484137
    100          1           0        0.776149   -5.176497   -2.531592
    101          1           0       -0.083654   -5.993421   -1.138356
    102          1           0       -3.884457   -2.115928    1.406301
    103          1           0       -3.276818   -3.591661    0.509882
    104          1           0       -4.898744   -1.389456   -0.861039
    105          1           0       -6.808834   -4.603713    1.033984
    106          1           0       -5.100792   -4.813117    0.827370
    107          1           0       -6.167246   -5.375992   -0.391344
    108          1           0       -7.725578   -3.754508   -1.371051
    109          1           0       -6.763586   -2.472064   -2.108987
    110          1           0       -8.141107   -1.586333    0.450464
    111          1           0       -9.172047   -2.647657   -0.360669
    112          1           0       -8.091248   -0.730770   -2.255595
    113          1           0       -8.559087    0.126044   -0.932375
    114          1           0      -10.654052   -1.812324   -1.890488
    115          1           0      -11.258865   -0.806840   -3.957557
    116          1           0       -9.588353   -1.426646   -4.055974
    117          1           0      -10.017508    0.296078   -3.856938
    118          1           0      -11.147299    1.054104   -2.114539
    119          1           0      -10.814847    0.728887   -0.534113
    120          1           0      -12.424011   -0.620453   -0.103408
    121          1           0      -12.877312   -1.088808   -1.752547
    122          1           0      -14.008609    0.812253   -2.120371
    123          1           0      -13.050820    1.879221   -1.114841
    124          1           0      -14.075672    0.801886    0.936453
    125          1           0      -15.473628   -0.764698   -1.036601
    126          1           0      -16.620573    0.327133   -0.050593
    127          1           0      -15.513930   -0.731405    0.687292
    128          1           0      -16.227356    2.399599   -0.340205
    129          1           0      -14.648420    3.266947   -0.142755
    130          1           0      -15.649074    1.708398    2.238473
    131          1           0      -16.554416    3.141953    1.813660
    132          1           0      -15.146320    4.212894    3.033799
    133          1           0      -14.058293    4.212164    1.655739
    134          1           0      -13.817296    1.895359    3.445078
    135          1           0      -14.102925    3.983968    4.895015
    136          1           0      -12.336411    4.264624    4.415197
    137          1           0      -12.898126    2.741130    5.156861
    138          1           0      -11.891306    3.615000    2.017267
    139          1           0      -12.180548    1.785552    1.790946
    140          1           0      -11.330699    2.442146    3.201964
 ---------------------------------------------------------------------

 SCF Done:  E(RPBE1PBE) =  -3005.37424542     A.U. after   15 cycles

 Excitation energies and oscillator strengths:

 Excited State   1:      Singlet-A      1.8555 eV  668.19 nm  f=0.3815  <S**2>=0.000
     245 -> 248        0.16066
     246 -> 247        0.69610
     246 <- 247       -0.11436
 This state for optimization and/or second-order correction.
 Total Energy, E(TD-HF/TD-DFT) =  -3005.30605665
 Copying the excited state density for this state as the 1-particle RhoCI density.

 Excited State   2:      Singlet-A      2.2295 eV  556.10 nm  f=0.1351  <S**2>=0.000
     245 -> 247        0.65990
     246 -> 248       -0.23693

 Excited State   3:      Singlet-A      3.0535 eV  406.04 nm  f=0.0019  <S**2>=0.000
     241 -> 247        0.58591
     241 -> 249       -0.14809
     242 -> 247       -0.21047
     243 -> 247       -0.26771

 Excited State   4:      Singlet-A      3.0654 eV  404.47 nm  f=0.0025  <S**2>=0.000
     241 -> 247        0.20651
     242 -> 247       -0.18299
     243 -> 247        0.63659

 Excited State   5:      Singlet-A      3.2300 eV  383.85 nm  f=0.0008  <S**2>=0.000
     240 -> 247        0.53728
     240 -> 249        0.15024
     240 -> 250       -0.10183
     241 -> 247       -0.16699
     242 -> 247       -0.33837

 The electronic state is 1-A.
 Alpha  occ. eigenvalues --  -46.92522 -19.25773 -19.25446 -19.20477 -19.19776
 Alpha  occ. eigenvalues --  -19.19464 -19.19368 -14.41716 -14.41134 -14.39487
 Alpha  occ. eigenvalues --  -14.38741 -10.36810 -10.35435 -10.33043 -10.32818
 Alpha  occ. eigenvalues --  -10.29620 -10.29144 -10.28930 -10.28837 -10.28390
 Alpha  occ. eigenvalues --  -10.28019 -10.27931 -10.27349 -10.27149 -10.26900
 Alpha  occ. eigenvalues --  -10.26688 -10.26429 -10.26252 -10.26178 -10.25878
 Alpha  occ. eigenvalues --  -10.25408 -10.25388 -10.25343 -10.25290 -10.25281
 Alpha  occ. eigenvalues --  -10.24951 -10.24948 -10.24579 -10.24568 -10.24040
 Alpha  occ. eigenvalues --  -10.24033 -10.23788 -10.23755 -10.23631 -10.23628
 Alpha  occ. eigenvalues --  -10.23622 -10.23450 -10.23443 -10.23390 -10.23263
 Alpha  occ. eigenvalues --  -10.23202 -10.23086 -10.22948 -10.22808 -10.22515
 Alpha  occ. eigenvalues --  -10.22456 -10.22431 -10.22144 -10.21975 -10.21904
 Alpha  occ. eigenvalues --  -10.21886 -10.21884 -10.21805 -10.21538 -10.21450
 Alpha  occ. eigenvalues --  -10.21368  -3.14536  -1.87401  -1.86889  -1.86771
 Alpha  occ. eigenvalues --   -1.10645  -1.10300  -1.04609  -1.04066  -1.02520
 Alpha  occ. eigenvalues --   -1.02038  -0.99228  -0.98356  -0.98226  -0.97237
 Alpha  occ. eigenvalues --   -0.86770  -0.84723  -0.83873  -0.83640  -0.83214
 Alpha  occ. eigenvalues --   -0.83118  -0.82708  -0.81932  -0.81801  -0.81533
 Alpha  occ. eigenvalues --   -0.80630  -0.79652  -0.78942  -0.78343  -0.77370
 Alpha  occ. eigenvalues --   -0.76789  -0.76345  -0.75738  -0.75328  -0.74987
 Alpha  occ. eigenvalues --   -0.74061  -0.72567  -0.72166  -0.71290  -0.70659
 Alpha  occ. eigenvalues --   -0.70188  -0.69732  -0.69546  -0.68470  -0.68326
 Alpha  occ. eigenvalues --   -0.67535  -0.67014  -0.66119  -0.64709  -0.63687
 Alpha  occ. eigenvalues --   -0.63077  -0.62778  -0.61716  -0.61236  -0.60115
 Alpha  occ. eigenvalues --   -0.59921  -0.59475  -0.59289  -0.59236  -0.58244
 Alpha  occ. eigenvalues --   -0.57350  -0.57141  -0.56275  -0.56240  -0.54558
 Alpha  occ. eigenvalues --   -0.54340  -0.54100  -0.53896  -0.53251  -0.52567
 Alpha  occ. eigenvalues --   -0.52019  -0.51243  -0.50910  -0.50631  -0.50121
 Alpha  occ. eigenvalues --   -0.49527  -0.49243  -0.49077  -0.48788  -0.48544
 Alpha  occ. eigenvalues --   -0.48213  -0.47878  -0.47784  -0.47577  -0.47463
 Alpha  occ. eigenvalues --   -0.47288  -0.47001  -0.46761  -0.46574  -0.46282
 Alpha  occ. eigenvalues --   -0.45939  -0.45541  -0.45364  -0.45163  -0.45075
 Alpha  occ. eigenvalues --   -0.44989  -0.44887  -0.44702  -0.44535  -0.44320
 Alpha  occ. eigenvalues --   -0.44260  -0.44040  -0.43819  -0.43762  -0.43463
 Alpha  occ. eigenvalues --   -0.43237  -0.43113  -0.43015  -0.42705  -0.42577
 Alpha  occ. eigenvalues --   -0.42569  -0.42169  -0.42044  -0.41708  -0.41570
 Alpha  occ. eigenvalues --   -0.40910  -0.40743  -0.40648  -0.40509  -0.40422
 Alpha  occ. eigenvalues --   -0.40221  -0.40041  -0.39961  -0.39803  -0.39679
 Alpha  occ. eigenvalues --   -0.39403  -0.38894  -0.38779  -0.38677  -0.38597
 Alpha  occ. eigenvalues --   -0.38503  -0.38338  -0.38132  -0.38005  -0.37925
 Alpha  occ. eigenvalues --   -0.37772  -0.37673  -0.37516  -0.37353  -0.36821
 Alpha  occ. eigenvalues --   -0.36747  -0.36588  -0.36517  -0.36270  -0.36034
 Alpha  occ. eigenvalues --   -0.35886  -0.35596  -0.35337  -0.35131  -0.35037
 Alpha  occ. eigenvalues --   -0.34847  -0.34515  -0.34233  -0.34170  -0.33717
 Alpha  occ. eigenvalues --   -0.33338  -0.33026  -0.32540  -0.32180  -0.31922
 Alpha  occ. eigenvalues --   -0.31788  -0.31698  -0.31263  -0.31232  -0.31144
 Alpha  occ. eigenvalues --   -0.31048  -0.30430  -0.30073  -0.29333  -0.29264
 Alpha  occ. eigenvalues --   -0.28918  -0.28586  -0.28313  -0.27341  -0.26267
 Alpha  occ. eigenvalues --   -0.26165  -0.26052  -0.25401  -0.24327  -0.21082
 Alpha  occ. eigenvalues --   -0.18840
 Alpha virt. eigenvalues --   -0.11330  -0.04900  -0.04314  -0.02499   0.00057
 Alpha virt. eigenvalues --    0.00240   0.00711   0.00790   0.02056   0.02875
 Alpha virt. eigenvalues --    0.04054   0.04797   0.05177   0.05294   0.05601

 Mulliken charges:
               1
     1  Mg   0.959908
     2  C    0.067326
     3  C   -0.078656
     4  C   -0.027680
     5  C   -0.097750
     6  N   -0.389393
     7  C    0.034450
     8  C   -0.093511
     9  C   -0.153403
    10  C    0.120133
    11  C    0.022280
    12  C   -0.049761
    13  C   -0.017890
    14  C    0.239156
    15  O   -0.246814
    16  O   -0.390848
    17  N   -0.493032
    18  C    0.140673
    19  C   -0.160878
    20  C   -0.098564
    21  C    0.129741
    22  C    0.047754
    23  C    0.070883
    24  O   -0.251734
    25  C   -0.020922
    26  N   -0.388939
    27  C    0.097515
    28  C   -0.165396
    29  C   -0.069834
    30  C    0.087787
    31  C   -0.009868
    32  C   -0.053495
    33  C   -0.054501
    34  N   -0.415701
    35  C    0.172406
    36  C   -0.188466
    37  C   -0.047932
    38  C    0.083552
    39  C    0.068207
    40  C    0.153463
    41  O   -0.213298
    42  C   -0.138726
    43  C    0.270569
    44  O   -0.261707
    45  O   -0.380516
    46  C    0.118059
    47  C    0.216967
    48  C   -0.135703
    49  C   -0.192386
    50  C   -0.006106
    51  C   -0.000975
    52  C   -0.021912
    53  C    0.024719
    54  C   -0.182007
    55  C   -0.020908
    56  C   -0.028686
    57  C   -0.010126
    58  C   -0.028042
    59  C   -0.236446
    60  C    0.004400
    61  C    0.025200
    62  C   -0.074530
    63  C   -0.011542
    64  C   -0.253064
    65  C   -0.006302
    66  C   -0.008268
    67  H   -0.001888
    68  H    0.044263
    69  H   -0.007435
    70  H    0.065562
    71  H    0.056426
    72  H    0.043474
    73  H    0.051547
    74  H    0.036136
    75  H    0.049622
    76  H    0.059806
    77  H    0.056544
    78  H    0.060607
    79  H    0.060231
    80  H    0.057591
    81  H    0.041236
    82  H    0.065962
    83  H    0.052602
    84  H    0.063285
    85  H    0.052792
    86  H    0.035096
    87  H    0.047190
    88  H    0.039913
    89  H    0.064894
    90  H    0.041627
    91  H    0.039625
    92  H    0.054697
    93  H    0.043381
    94  H    0.046781
    95  H    0.031522
    96  H    0.074611
    97  H    0.057221
    98  H    0.086863
    99  H    0.067084
   100  H    0.075808
   101  H    0.065914
   102  H    0.082562
   103  H    0.069836
   104  H    0.030897
   105  H    0.044501
   106  H    0.023817
   107  H    0.053945
   108  H    0.027713
   109  H    0.051488
   110  H    0.032814
   111  H    0.023986
   112  H    0.005961
   113  H    0.021662
   114  H    0.029506
   115  H    0.027768
   116  H    0.039367
   117  H    0.023345
   118  H    0.016905
   119  H    0.021507
   120  H    0.021274
   121  H    0.030505
   122  H    0.028801
   123  H    0.019603
   124  H    0.039305
   125  H    0.042613
   126  H    0.027909
   127  H    0.016302
   128  H    0.031752
   129  H    0.026697
   130  H    0.027764
   131  H    0.024630
   132  H    0.020642
   133  H    0.015294
   134  H    0.018909
   135  H    0.033361
   136  H    0.037933
   137  H    0.031305
   138  H    0.035879
   139  H    0.052816
   140  H    0.029604
 Sum of Mulliken charges =  -0.00000

 Dipole moment (field-independent basis, Debye):
    X=             -2.1286    Y=              1.7952    Z=             -0.6302  Tot=              2.8550
 Quadrupole moment (field-independent basis, Debye-Ang):
   XX=           -379.0538   YY=           -403.9593   ZZ=           -406.1107
   XY=              7.3865   XZ=             14.3308   YZ=             -6.6844

 Normal termination of Gaussian 16 at Fri Apr 29 02:10:02 2022.
