 Gaussian 16, Revision A.03,
 Gaussian 16:  ES64L-G16RevA.03 25-Dec-2016

 --------------------------------
 #p wB97XD/Def2SVP td=(nstates=5)
 --------------------------------

 ----------------------------------------------------
 step_1801_chromophore_7 TDDFT with wB97XD functional
 ----------------------------------------------------
 Symbolic Z-matrix:
 Charge =  0 Multiplicity = 1

                         Standard orientation:
 ---------------------------------------------------------------------
 Center     Atomic      Atomic             Coordinates (Angstroms)
 Number     Number       Type             X           Y           Z
 ---------------------------------------------------------------------
      1         12           0        6.168657    0.657868   -0.009612
      2          6           0        3.926762   -2.071058   -0.074735
      3          6           0        3.859464    2.611942   -1.236548
      4          6           0        8.398339    3.157590    0.279396
      5          6           0        8.708824   -1.632779    0.954360
      6          7           0        4.140563    0.222131   -0.666621
      7          6           0        3.387460   -0.852865   -0.435621
      8          6           0        1.921100   -0.519936   -0.827262
      9          6           0        1.912161    0.955476   -1.335079
     10          6           0        3.432405    1.271539   -1.191254
     11          6           0        1.382289    1.080856   -2.771148
     12          6           0        0.897694   -0.862058    0.363014
     13          6           0       -0.512474   -0.315420    0.048087
     14          6           0       -1.685357   -1.024361    0.779305
     15          8           0       -1.896420   -1.001550    1.973006
     16          8           0       -2.452671   -1.738679   -0.140068
     17          7           0        6.063961    2.651578   -0.473447
     18          6           0        5.056123    3.306522   -1.081260
     19          6           0        5.445021    4.670098   -1.336620
     20          6           0        6.744003    4.869727   -0.815721
     21          6           0        7.096766    3.517369   -0.245866
     22          6           0        4.508480    5.511790   -2.177659
     23          6           0        7.702454    6.076336   -0.880046
     24          8           0        8.811805    6.081471   -0.323604
     25          6           0        7.311799    7.217631   -1.738868
     26          7           0        8.291191    0.663780    0.461925
     27          6           0        8.872779    1.930374    0.619270
     28          6           0       10.276227    1.778910    1.258300
     29          6           0       10.405385    0.218233    1.495785
     30          6           0        9.076076   -0.309463    0.871580
     31          6           0       11.476021    2.292154    0.315125
     32          6           0       10.606467   -0.143828    2.932168
     33          6           0       11.353765   -1.486327    3.299605
     34          7           0        6.399842   -1.478301    0.251201
     35          6           0        7.489841   -2.180189    0.607230
     36          6           0        7.154388   -3.612067    0.695484
     37          6           0        5.705927   -3.657560    0.495765
     38          6           0        5.318689   -2.277377    0.236162
     39          6           0        8.006994   -4.761437    1.130303
     40          6           0        4.482045   -4.463665    0.466406
     41          8           0        4.266537   -5.629047    0.783648
     42          6           0        3.307996   -3.453778    0.103974
     43          6           0        2.574797   -3.919225   -1.028773
     44          8           0        2.874836   -3.757468   -2.203319
     45          8           0        1.518636   -4.635492   -0.564861
     46          6           0        0.849001   -5.583695   -1.523034
     47          6           0       -3.576041   -2.545155    0.453352
     48          6           0       -4.917514   -2.284012   -0.238430
     49          6           0       -6.010812   -3.117446   -0.290698
     50          6           0       -6.011313   -4.542394    0.293074
     51          6           0       -7.176789   -2.834602   -1.168079
     52          6           0       -8.346832   -1.961449   -0.551270
     53          6           0       -8.791859   -0.818824   -1.423908
     54          6           0      -10.188642   -0.836944   -2.025722
     55          6           0      -10.250978   -0.723578   -3.551828
     56          6           0      -11.135634    0.202777   -1.433399
     57          6           0      -12.509582   -0.271013   -1.132759
     58          6           0      -13.531076    0.901231   -1.145012
     59          6           0      -14.565209    1.045904   -0.007028
     60          6           0      -15.625452   -0.094424   -0.190542
     61          6           0      -15.256606    2.414147    0.155985
     62          6           0      -15.595024    2.642357    1.678119
     63          6           0      -14.543023    3.571721    2.392289
     64          6           0      -13.406966    2.874311    3.200448
     65          6           0      -13.172802    3.571637    4.507050
     66          6           0      -12.103543    2.642155    2.460460
     67          1           0        3.050016    3.288010   -1.520672
     68          1           0        9.003151    3.958510    0.707663
     69          1           0        9.455568   -2.332902    1.336146
     70          1           0        1.671359   -1.278595   -1.568770
     71          1           0        1.355656    1.635158   -0.690166
     72          1           0        0.437038    0.541064   -2.830232
     73          1           0        2.019770    0.682379   -3.559437
     74          1           0        1.232984    2.134888   -3.004234
     75          1           0        1.230073   -0.527262    1.345413
     76          1           0        0.789094   -1.944723    0.439313
     77          1           0       -0.704913   -0.258748   -1.023362
     78          1           0       -0.405763    0.693639    0.445783
     79          1           0        5.053085    5.853911   -3.058112
     80          1           0        4.173699    6.295831   -1.499151
     81          1           0        3.611438    5.008479   -2.539050
     82          1           0        7.038400    6.890754   -2.742066
     83          1           0        8.157796    7.901673   -1.792803
     84          1           0        6.512336    7.812893   -1.296909
     85          1           0       10.363591    2.383450    2.161133
     86          1           0       11.242581   -0.180536    0.922071
     87          1           0       11.275009    1.969477   -0.705973
     88          1           0       12.361266    1.734950    0.623332
     89          1           0       11.598729    3.370181    0.423516
     90          1           0        9.634752   -0.085102    3.422715
     91          1           0       11.196629    0.682887    3.328139
     92          1           0       11.927215   -1.207365    4.183795
     93          1           0       11.892742   -1.887786    2.442546
     94          1           0       10.639942   -2.276065    3.532087
     95          1           0        8.593677   -4.395837    1.974086
     96          1           0        8.668511   -5.240004    0.408863
     97          1           0        7.335677   -5.400797    1.702597
     98          1           0        2.595157   -3.540953    0.924012
     99          1           0        1.578810   -6.392283   -1.484137
    100          1           0        0.776149   -5.176497   -2.531592
    101          1           0       -0.083654   -5.993421   -1.138356
    102          1           0       -3.884457   -2.115928    1.406301
    103          1           0       -3.276818   -3.591661    0.509882
    104          1           0       -4.898744   -1.389456   -0.861039
    105          1           0       -6.808834   -4.603713    1.033984
    106          1           0       -5.100792   -4.813117    0.827370
    107          1           0       -6.167246   -5.375992   -0.391344
    108          1           0       -7.725578   -3.754508   -1.371051
    109          1           0       -6.763586   -2.472064   -2.108987
    110          1           0       -8.141107   -1.586333    0.450464
    111          1           0       -9.172047   -2.647657   -0.360669
    112          1           0       -8.091248   -0.730770   -2.255595
    113          1           0       -8.559087    0.126044   -0.932375
    114          1           0      -10.654052   -1.812324   -1.890488
    115          1           0      -11.258865   -0.806840   -3.957557
    116          1           0       -9.588353   -1.426646   -4.055974
    117          1           0      -10.017508    0.296078   -3.856938
    118          1           0      -11.147299    1.054104   -2.114539
    119          1           0      -10.814847    0.728887   -0.534113
    120          1           0      -12.424011   -0.620453   -0.103408
    121          1           0      -12.877312   -1.088808   -1.752547
    122          1           0      -14.008609    0.812253   -2.120371
    123          1           0      -13.050820    1.879221   -1.114841
    124          1           0      -14.075672    0.801886    0.936453
    125          1           0      -15.473628   -0.764698   -1.036601
    126          1           0      -16.620573    0.327133   -0.050593
    127          1           0      -15.513930   -0.731405    0.687292
    128          1           0      -16.227356    2.399599   -0.340205
    129          1           0      -14.648420    3.266947   -0.142755
    130          1           0      -15.649074    1.708398    2.238473
    131          1           0      -16.554416    3.141953    1.813660
    132          1           0      -15.146320    4.212894    3.033799
    133          1           0      -14.058293    4.212164    1.655739
    134          1           0      -13.817296    1.895359    3.445078
    135          1           0      -14.102925    3.983968    4.895015
    136          1           0      -12.336411    4.264624    4.415197
    137          1           0      -12.898126    2.741130    5.156861
    138          1           0      -11.891306    3.615000    2.017267
    139          1           0      -12.180548    1.785552    1.790946
    140          1           0      -11.330699    2.442146    3.201964
 ---------------------------------------------------------------------

 SCF Done:  E(RwB97XD) =  -3007.88203238     A.U. after   19 cycles

 Excitation energies and oscillator strengths:

 Excited State   1:      Singlet-A      1.6563 eV  748.55 nm  f=0.3971  <S**2>=0.000
     245 -> 248        0.17550
     246 -> 247        0.68585
     245 <- 248        0.11419
 This state for optimization and/or second-order correction.
 Total Energy, E(TD-HF/TD-DFT) =  -3007.82116365
 Copying the excited state density for this state as the 1-particle RhoCI density.

 Excited State   2:      Singlet-A      2.1804 eV  568.63 nm  f=0.1343  <S**2>=0.000
     245 -> 247        0.64650
     246 -> 248       -0.27395

 Excited State   3:      Singlet-A      3.3680 eV  368.12 nm  f=0.0018  <S**2>=0.000
     242 -> 247        0.10955
     243 -> 247        0.66511
     246 -> 248        0.14350

 Excited State   4:      Singlet-A      3.5004 eV  354.20 nm  f=0.0139  <S**2>=0.000
     240 -> 247        0.57072
     240 -> 249       -0.30848
     240 -> 250       -0.18488

 Excited State   5:      Singlet-A      3.6167 eV  342.81 nm  f=0.5660  <S**2>=0.000
     242 -> 247        0.23704
     243 -> 247       -0.16508
     245 -> 247        0.24344
     246 -> 248        0.57971
     245 <- 247       -0.10587

 The electronic state is 1-A.
 Alpha  occ. eigenvalues --  -46.95458 -19.30325 -19.30123 -19.25161 -19.24851
 Alpha  occ. eigenvalues --  -19.24234 -19.24063 -14.46788 -14.46184 -14.44302
 Alpha  occ. eigenvalues --  -14.43779 -10.43604 -10.42430 -10.40145 -10.39455
 Alpha  occ. eigenvalues --  -10.36113 -10.35767 -10.35273 -10.34982 -10.34478
 Alpha  occ. eigenvalues --  -10.34445 -10.34060 -10.33961 -10.33683 -10.33472
 Alpha  occ. eigenvalues --  -10.32872 -10.32617 -10.32531 -10.32342 -10.32285
 Alpha  occ. eigenvalues --  -10.31841 -10.31774 -10.31685 -10.31542 -10.31454
 Alpha  occ. eigenvalues --  -10.31332 -10.31192 -10.30920 -10.30882 -10.30630
 Alpha  occ. eigenvalues --  -10.30450 -10.30285 -10.30126 -10.30097 -10.30088
 Alpha  occ. eigenvalues --  -10.29881 -10.29876 -10.29870 -10.29869 -10.29597
 Alpha  occ. eigenvalues --  -10.29563 -10.29386 -10.29252 -10.29194 -10.28854
 Alpha  occ. eigenvalues --  -10.28795 -10.28733 -10.28547 -10.28349 -10.28314
 Alpha  occ. eigenvalues --  -10.28270 -10.28267 -10.28256 -10.27923 -10.27883
 Alpha  occ. eigenvalues --  -10.27795  -3.21331  -1.94946  -1.94432  -1.94313
 Alpha  occ. eigenvalues --   -1.18185  -1.17685  -1.12339  -1.11361  -1.09867
 Alpha  occ. eigenvalues --   -1.09549  -1.06630  -1.05764  -1.05442  -1.04604
 Alpha  occ. eigenvalues --   -0.94544  -0.92400  -0.91549  -0.91290  -0.90871
 Alpha  occ. eigenvalues --   -0.90699  -0.90261  -0.89517  -0.89443  -0.89031
 Alpha  occ. eigenvalues --   -0.88410  -0.87289  -0.86612  -0.86021  -0.84997
 Alpha  occ. eigenvalues --   -0.84446  -0.83945  -0.83430  -0.82925  -0.82638
 Alpha  occ. eigenvalues --   -0.81737  -0.80181  -0.79766  -0.78962  -0.78310
 Alpha  occ. eigenvalues --   -0.77892  -0.77427  -0.77101  -0.76156  -0.75995
 Alpha  occ. eigenvalues --   -0.75133  -0.74611  -0.73627  -0.72310  -0.71328
 Alpha  occ. eigenvalues --   -0.70666  -0.70363  -0.69159  -0.68840  -0.67621
 Alpha  occ. eigenvalues --   -0.67438  -0.66968  -0.66845  -0.66680  -0.65918
 Alpha  occ. eigenvalues --   -0.64860  -0.64801  -0.63911  -0.63754  -0.61942
 Alpha  occ. eigenvalues --   -0.61884  -0.61586  -0.61260  -0.60645  -0.60051
 Alpha  occ. eigenvalues --   -0.59607  -0.58738  -0.58249  -0.58128  -0.57559
 Alpha  occ. eigenvalues --   -0.56893  -0.56660  -0.56564  -0.56273  -0.55939
 Alpha  occ. eigenvalues --   -0.55612  -0.55264  -0.55123  -0.55019  -0.54843
 Alpha  occ. eigenvalues --   -0.54691  -0.54418  -0.54042  -0.53921  -0.53666
 Alpha  occ. eigenvalues --   -0.53509  -0.52914  -0.52725  -0.52469  -0.52406
 Alpha  occ. eigenvalues --   -0.52370  -0.52219  -0.52068  -0.51856  -0.51658
 Alpha  occ. eigenvalues --   -0.51565  -0.51415  -0.51220  -0.51115  -0.50764
 Alpha  occ. eigenvalues --   -0.50457  -0.50343  -0.50271  -0.50028  -0.49881
 Alpha  occ. eigenvalues --   -0.49806  -0.49453  -0.49346  -0.49006  -0.48846
 Alpha  occ. eigenvalues --   -0.48065  -0.47949  -0.47927  -0.47704  -0.47601
 Alpha  occ. eigenvalues --   -0.47354  -0.47258  -0.47181  -0.47031  -0.46818
 Alpha  occ. eigenvalues --   -0.46587  -0.46194  -0.45927  -0.45857  -0.45775
 Alpha  occ. eigenvalues --   -0.45727  -0.45607  -0.45270  -0.45208  -0.45106
 Alpha  occ. eigenvalues --   -0.44883  -0.44760  -0.44643  -0.44293  -0.43948
 Alpha  occ. eigenvalues --   -0.43885  -0.43661  -0.43646  -0.43406  -0.43049
 Alpha  occ. eigenvalues --   -0.42909  -0.42622  -0.42297  -0.42179  -0.42064
 Alpha  occ. eigenvalues --   -0.41906  -0.41555  -0.41211  -0.41187  -0.40576
 Alpha  occ. eigenvalues --   -0.40421  -0.40085  -0.39424  -0.39218  -0.38954
 Alpha  occ. eigenvalues --   -0.38796  -0.38753  -0.38358  -0.38284  -0.38088
 Alpha  occ. eigenvalues --   -0.38057  -0.37464  -0.37002  -0.36340  -0.36211
 Alpha  occ. eigenvalues --   -0.36026  -0.35506  -0.35042  -0.33891  -0.33424
 Alpha  occ. eigenvalues --   -0.33216  -0.32495  -0.32104  -0.31066  -0.26082
 Alpha  occ. eigenvalues --   -0.22996
 Alpha virt. eigenvalues --   -0.07216   0.00639   0.01941   0.03974   0.05966
 Alpha virt. eigenvalues --    0.06994   0.07363   0.07478   0.08703   0.09185
 Alpha virt. eigenvalues --    0.10694   0.11587   0.11811   0.12124   0.12329

 Mulliken charges:
               1
     1  Mg   0.951357
     2  C    0.063585
     3  C   -0.081572
     4  C   -0.045661
     5  C   -0.115510
     6  N   -0.353188
     7  C    0.004444
     8  C   -0.073019
     9  C   -0.118791
    10  C    0.095471
    11  C    0.030374
    12  C   -0.038163
    13  C    0.004350
    14  C    0.228851
    15  O   -0.244793
    16  O   -0.391032
    17  N   -0.460282
    18  C    0.127860
    19  C   -0.149612
    20  C   -0.096552
    21  C    0.116076
    22  C    0.059147
    23  C    0.068607
    24  O   -0.247435
    25  C   -0.012302
    26  N   -0.354881
    27  C    0.085898
    28  C   -0.140889
    29  C   -0.043831
    30  C    0.071770
    31  C    0.002906
    32  C   -0.039501
    33  C   -0.038196
    34  N   -0.376779
    35  C    0.171143
    36  C   -0.187199
    37  C   -0.048013
    38  C    0.070290
    39  C    0.080781
    40  C    0.140441
    41  O   -0.201883
    42  C   -0.101118
    43  C    0.242828
    44  O   -0.253544
    45  O   -0.378202
    46  C    0.133047
    47  C    0.230900
    48  C   -0.144416
    49  C   -0.181157
    50  C    0.008944
    51  C    0.018009
    52  C   -0.008982
    53  C    0.037229
    54  C   -0.150309
    55  C   -0.006963
    56  C   -0.011117
    57  C    0.004798
    58  C   -0.009430
    59  C   -0.199444
    60  C    0.012922
    61  C    0.041378
    62  C   -0.055189
    63  C   -0.000120
    64  C   -0.222595
    65  C    0.007148
    66  C    0.011519
    67  H   -0.012689
    68  H    0.039509
    69  H   -0.019491
    70  H    0.052988
    71  H    0.045639
    72  H    0.035075
    73  H    0.046918
    74  H    0.030886
    75  H    0.044534
    76  H    0.045959
    77  H    0.047941
    78  H    0.053103
    79  H    0.053433
    80  H    0.051299
    81  H    0.036688
    82  H    0.060072
    83  H    0.050499
    84  H    0.058904
    85  H    0.043587
    86  H    0.023254
    87  H    0.040487
    88  H    0.031918
    89  H    0.060704
    90  H    0.033221
    91  H    0.030559
    92  H    0.050772
    93  H    0.037604
    94  H    0.039163
    95  H    0.025405
    96  H    0.073156
    97  H    0.053892
    98  H    0.080355
    99  H    0.062952
   100  H    0.073071
   101  H    0.063546
   102  H    0.076720
   103  H    0.065490
   104  H    0.028751
   105  H    0.037832
   106  H    0.017454
   107  H    0.049059
   108  H    0.020315
   109  H    0.043865
   110  H    0.025922
   111  H    0.015806
   112  H   -0.005082
   113  H    0.015101
   114  H    0.015224
   115  H    0.021242
   116  H    0.033749
   117  H    0.015603
   118  H    0.004842
   119  H    0.011801
   120  H    0.011439
   121  H    0.022911
   122  H    0.019780
   123  H    0.007283
   124  H    0.015562
   125  H    0.037334
   126  H    0.021450
   127  H    0.010682
   128  H    0.023410
   129  H    0.017302
   130  H    0.016361
   131  H    0.018469
   132  H    0.012906
   133  H    0.004031
   134  H    0.005626
   135  H    0.027509
   136  H    0.031807
   137  H    0.024790
   138  H    0.028014
   139  H    0.040624
   140  H    0.023700
 Sum of Mulliken charges =  -0.00000

 Dipole moment (field-independent basis, Debye):
    X=             -2.2330    Y=              1.2498    Z=             -0.5940  Tot=              2.6270
 Quadrupole moment (field-independent basis, Debye-Ang):
   XX=           -379.9796   YY=           -402.4498   ZZ=           -405.9275
   XY=              4.4377   XZ=             14.7933   YZ=             -6.6556

 Normal termination of Gaussian 16 at Fri Apr 29 02:38:46 2022.
