 Gaussian 16, Revision A.03,
 Gaussian 16:  ES64L-G16RevA.03 25-Dec-2016

 --------------------
 #p ZINDO=(nstates=5)
 --------------------

 -----------------------------
 step_1801_chromophore_7 ZINDO
 -----------------------------
 Symbolic Z-matrix:
 Charge =  0 Multiplicity = 1

                         Standard orientation:
 ---------------------------------------------------------------------
 Center     Atomic      Atomic             Coordinates (Angstroms)
 Number     Number       Type             X           Y           Z
 ---------------------------------------------------------------------
      1         12           0        6.168657    0.657868   -0.009612
      2          6           0        3.926762   -2.071058   -0.074735
      3          6           0        3.859464    2.611942   -1.236548
      4          6           0        8.398339    3.157590    0.279396
      5          6           0        8.708824   -1.632779    0.954360
      6          7           0        4.140563    0.222131   -0.666621
      7          6           0        3.387460   -0.852865   -0.435621
      8          6           0        1.921100   -0.519936   -0.827262
      9          6           0        1.912161    0.955476   -1.335079
     10          6           0        3.432405    1.271539   -1.191254
     11          6           0        1.382289    1.080856   -2.771148
     12          6           0        0.897694   -0.862058    0.363014
     13          6           0       -0.512474   -0.315420    0.048087
     14          6           0       -1.685357   -1.024361    0.779305
     15          8           0       -1.896420   -1.001550    1.973006
     16          8           0       -2.452671   -1.738679   -0.140068
     17          7           0        6.063961    2.651578   -0.473447
     18          6           0        5.056123    3.306522   -1.081260
     19          6           0        5.445021    4.670098   -1.336620
     20          6           0        6.744003    4.869727   -0.815721
     21          6           0        7.096766    3.517369   -0.245866
     22          6           0        4.508480    5.511790   -2.177659
     23          6           0        7.702454    6.076336   -0.880046
     24          8           0        8.811805    6.081471   -0.323604
     25          6           0        7.311799    7.217631   -1.738868
     26          7           0        8.291191    0.663780    0.461925
     27          6           0        8.872779    1.930374    0.619270
     28          6           0       10.276227    1.778910    1.258300
     29          6           0       10.405385    0.218233    1.495785
     30          6           0        9.076076   -0.309463    0.871580
     31          6           0       11.476021    2.292154    0.315125
     32          6           0       10.606467   -0.143828    2.932168
     33          6           0       11.353765   -1.486327    3.299605
     34          7           0        6.399842   -1.478301    0.251201
     35          6           0        7.489841   -2.180189    0.607230
     36          6           0        7.154388   -3.612067    0.695484
     37          6           0        5.705927   -3.657560    0.495765
     38          6           0        5.318689   -2.277377    0.236162
     39          6           0        8.006994   -4.761437    1.130303
     40          6           0        4.482045   -4.463665    0.466406
     41          8           0        4.266537   -5.629047    0.783648
     42          6           0        3.307996   -3.453778    0.103974
     43          6           0        2.574797   -3.919225   -1.028773
     44          8           0        2.874836   -3.757468   -2.203319
     45          8           0        1.518636   -4.635492   -0.564861
     46          6           0        0.849001   -5.583695   -1.523034
     47          6           0       -3.576041   -2.545155    0.453352
     48          6           0       -4.917514   -2.284012   -0.238430
     49          6           0       -6.010812   -3.117446   -0.290698
     50          6           0       -6.011313   -4.542394    0.293074
     51          6           0       -7.176789   -2.834602   -1.168079
     52          6           0       -8.346832   -1.961449   -0.551270
     53          6           0       -8.791859   -0.818824   -1.423908
     54          6           0      -10.188642   -0.836944   -2.025722
     55          6           0      -10.250978   -0.723578   -3.551828
     56          6           0      -11.135634    0.202777   -1.433399
     57          6           0      -12.509582   -0.271013   -1.132759
     58          6           0      -13.531076    0.901231   -1.145012
     59          6           0      -14.565209    1.045904   -0.007028
     60          6           0      -15.625452   -0.094424   -0.190542
     61          6           0      -15.256606    2.414147    0.155985
     62          6           0      -15.595024    2.642357    1.678119
     63          6           0      -14.543023    3.571721    2.392289
     64          6           0      -13.406966    2.874311    3.200448
     65          6           0      -13.172802    3.571637    4.507050
     66          6           0      -12.103543    2.642155    2.460460
     67          1           0        3.050016    3.288010   -1.520672
     68          1           0        9.003151    3.958510    0.707663
     69          1           0        9.455568   -2.332902    1.336146
     70          1           0        1.671359   -1.278595   -1.568770
     71          1           0        1.355656    1.635158   -0.690166
     72          1           0        0.437038    0.541064   -2.830232
     73          1           0        2.019770    0.682379   -3.559437
     74          1           0        1.232984    2.134888   -3.004234
     75          1           0        1.230073   -0.527262    1.345413
     76          1           0        0.789094   -1.944723    0.439313
     77          1           0       -0.704913   -0.258748   -1.023362
     78          1           0       -0.405763    0.693639    0.445783
     79          1           0        5.053085    5.853911   -3.058112
     80          1           0        4.173699    6.295831   -1.499151
     81          1           0        3.611438    5.008479   -2.539050
     82          1           0        7.038400    6.890754   -2.742066
     83          1           0        8.157796    7.901673   -1.792803
     84          1           0        6.512336    7.812893   -1.296909
     85          1           0       10.363591    2.383450    2.161133
     86          1           0       11.242581   -0.180536    0.922071
     87          1           0       11.275009    1.969477   -0.705973
     88          1           0       12.361266    1.734950    0.623332
     89          1           0       11.598729    3.370181    0.423516
     90          1           0        9.634752   -0.085102    3.422715
     91          1           0       11.196629    0.682887    3.328139
     92          1           0       11.927215   -1.207365    4.183795
     93          1           0       11.892742   -1.887786    2.442546
     94          1           0       10.639942   -2.276065    3.532087
     95          1           0        8.593677   -4.395837    1.974086
     96          1           0        8.668511   -5.240004    0.408863
     97          1           0        7.335677   -5.400797    1.702597
     98          1           0        2.595157   -3.540953    0.924012
     99          1           0        1.578810   -6.392283   -1.484137
    100          1           0        0.776149   -5.176497   -2.531592
    101          1           0       -0.083654   -5.993421   -1.138356
    102          1           0       -3.884457   -2.115928    1.406301
    103          1           0       -3.276818   -3.591661    0.509882
    104          1           0       -4.898744   -1.389456   -0.861039
    105          1           0       -6.808834   -4.603713    1.033984
    106          1           0       -5.100792   -4.813117    0.827370
    107          1           0       -6.167246   -5.375992   -0.391344
    108          1           0       -7.725578   -3.754508   -1.371051
    109          1           0       -6.763586   -2.472064   -2.108987
    110          1           0       -8.141107   -1.586333    0.450464
    111          1           0       -9.172047   -2.647657   -0.360669
    112          1           0       -8.091248   -0.730770   -2.255595
    113          1           0       -8.559087    0.126044   -0.932375
    114          1           0      -10.654052   -1.812324   -1.890488
    115          1           0      -11.258865   -0.806840   -3.957557
    116          1           0       -9.588353   -1.426646   -4.055974
    117          1           0      -10.017508    0.296078   -3.856938
    118          1           0      -11.147299    1.054104   -2.114539
    119          1           0      -10.814847    0.728887   -0.534113
    120          1           0      -12.424011   -0.620453   -0.103408
    121          1           0      -12.877312   -1.088808   -1.752547
    122          1           0      -14.008609    0.812253   -2.120371
    123          1           0      -13.050820    1.879221   -1.114841
    124          1           0      -14.075672    0.801886    0.936453
    125          1           0      -15.473628   -0.764698   -1.036601
    126          1           0      -16.620573    0.327133   -0.050593
    127          1           0      -15.513930   -0.731405    0.687292
    128          1           0      -16.227356    2.399599   -0.340205
    129          1           0      -14.648420    3.266947   -0.142755
    130          1           0      -15.649074    1.708398    2.238473
    131          1           0      -16.554416    3.141953    1.813660
    132          1           0      -15.146320    4.212894    3.033799
    133          1           0      -14.058293    4.212164    1.655739
    134          1           0      -13.817296    1.895359    3.445078
    135          1           0      -14.102925    3.983968    4.895015
    136          1           0      -12.336411    4.264624    4.415197
    137          1           0      -12.898126    2.741130    5.156861
    138          1           0      -11.891306    3.615000    2.017267
    139          1           0      -12.180548    1.785552    1.790946
    140          1           0      -11.330699    2.442146    3.201964
 ---------------------------------------------------------------------

 SCF Done:  E(RZINDO/S) =  -474.299887422     A.U. after   19 cycles

 Excitation energies and oscillator strengths:

 Excited State   1:      Singlet-A      1.2902 eV  961.00 nm  f=0.6040  <S**2>=0.000
     175 ->178        -0.17767
     176 ->177         0.66649
 This state for optimization and/or second-order correction.
 Total Energy, E(CIS/TDA) =  -474.252475060
 Copying the excited state density for this state as the 1-particle RhoCI density.

 Excited State   2:      Singlet-A      1.9386 eV  639.56 nm  f=0.0608  <S**2>=0.000
     175 ->177         0.56109
     176 ->178         0.39157

 Excited State   3:      Singlet-A      2.9682 eV  417.71 nm  f=0.4601  <S**2>=0.000
     167 ->179         0.10912
     168 ->177        -0.18753
     168 ->179         0.17277
     171 ->177         0.11800
     175 ->177        -0.23657
     176 ->178         0.41700
     176 ->179         0.29855

 Excited State   4:      Singlet-A      3.0005 eV  413.22 nm  f=0.1842  <S**2>=0.000
     167 ->177         0.16339
     167 ->179        -0.17676
     168 ->177         0.28424
     168 ->178        -0.15274
     168 ->179        -0.28574
     168 ->180         0.14536
     168 ->186         0.12742
     171 ->177         0.12353
     175 ->177        -0.14987
     176 ->178         0.25962
     176 ->179         0.15669

 Excited State   5:      Singlet-A      3.0609 eV  405.06 nm  f=0.2845  <S**2>=0.000
     169 ->177        -0.11469
     169 ->179        -0.15166
     169 ->180        -0.21877
     169 ->186         0.11326
     170 ->180        -0.15602
     175 ->177         0.19410
     176 ->178        -0.19776
     176 ->179         0.42389
     176 ->180         0.22501

 The electronic state is 1-A.
 Alpha  occ. eigenvalues --   -1.83623  -1.80612  -1.79982  -1.73689  -1.71032
 Alpha  occ. eigenvalues --   -1.69575  -1.66079  -1.62085  -1.57591  -1.57184
 Alpha  occ. eigenvalues --   -1.55236  -1.51655  -1.49373  -1.48788  -1.46997
 Alpha  occ. eigenvalues --   -1.45115  -1.43507  -1.40582  -1.40346  -1.38408
 Alpha  occ. eigenvalues --   -1.36023  -1.34516  -1.33610  -1.31499  -1.27601
 Alpha  occ. eigenvalues --   -1.27277  -1.25570  -1.22473  -1.21219  -1.19097
 Alpha  occ. eigenvalues --   -1.18276  -1.15430  -1.15175  -1.14441  -1.12293
 Alpha  occ. eigenvalues --   -1.11455  -1.10665  -1.09990  -1.04668  -1.04210
 Alpha  occ. eigenvalues --   -1.02887  -1.01004  -0.99556  -0.97992  -0.97866
 Alpha  occ. eigenvalues --   -0.96307  -0.93908  -0.93270  -0.92372  -0.91885
 Alpha  occ. eigenvalues --   -0.91664  -0.90101  -0.89515  -0.88254  -0.86243
 Alpha  occ. eigenvalues --   -0.86228  -0.84264  -0.82965  -0.81899  -0.80314
 Alpha  occ. eigenvalues --   -0.79987  -0.78798  -0.77368  -0.76714  -0.76037
 Alpha  occ. eigenvalues --   -0.75506  -0.75198  -0.74761  -0.74005  -0.73771
 Alpha  occ. eigenvalues --   -0.73155  -0.72571  -0.71912  -0.71563  -0.70706
 Alpha  occ. eigenvalues --   -0.69844  -0.69163  -0.68423  -0.68351  -0.67821
 Alpha  occ. eigenvalues --   -0.67374  -0.66616  -0.66383  -0.66247  -0.65615
 Alpha  occ. eigenvalues --   -0.65336  -0.64934  -0.64670  -0.64450  -0.63810
 Alpha  occ. eigenvalues --   -0.63450  -0.62720  -0.62526  -0.62042  -0.61742
 Alpha  occ. eigenvalues --   -0.61662  -0.61148  -0.61023  -0.59749  -0.59429
 Alpha  occ. eigenvalues --   -0.59136  -0.59012  -0.58488  -0.58326  -0.58170
 Alpha  occ. eigenvalues --   -0.57740  -0.57550  -0.57376  -0.56727  -0.56541
 Alpha  occ. eigenvalues --   -0.56415  -0.56263  -0.55783  -0.55564  -0.55037
 Alpha  occ. eigenvalues --   -0.54393  -0.53773  -0.53565  -0.52915  -0.52786
 Alpha  occ. eigenvalues --   -0.52701  -0.52353  -0.52127  -0.52041  -0.51614
 Alpha  occ. eigenvalues --   -0.51342  -0.51065  -0.50802  -0.50613  -0.50233
 Alpha  occ. eigenvalues --   -0.50188  -0.49733  -0.49593  -0.49415  -0.49095
 Alpha  occ. eigenvalues --   -0.49059  -0.48766  -0.48670  -0.47970  -0.47941
 Alpha  occ. eigenvalues --   -0.47464  -0.47389  -0.47019  -0.46462  -0.46257
 Alpha  occ. eigenvalues --   -0.45959  -0.45707  -0.45397  -0.45311  -0.45177
 Alpha  occ. eigenvalues --   -0.44817  -0.44616  -0.44246  -0.44169  -0.43749
 Alpha  occ. eigenvalues --   -0.43653  -0.43020  -0.42665  -0.42561  -0.42406
 Alpha  occ. eigenvalues --   -0.41849  -0.41796  -0.41281  -0.39172  -0.38967
 Alpha  occ. eigenvalues --   -0.38463  -0.36707  -0.36103  -0.35238  -0.34399
 Alpha  occ. eigenvalues --   -0.33350  -0.32914  -0.32476  -0.31370  -0.26774
 Alpha  occ. eigenvalues --   -0.21958
 Alpha virt. eigenvalues --   -0.08631  -0.01869  -0.00778   0.01056   0.01878
 Alpha virt. eigenvalues --    0.02329   0.02657   0.03004   0.03857   0.04885
 Alpha virt. eigenvalues --    0.06168   0.06399   0.07147   0.07492   0.07780

 Mulliken charges:
               1
     1  Mg   0.429787
     2  C   -0.052588
     3  C   -0.051439
     4  C   -0.055531
     5  C   -0.075520
     6  N   -0.269200
     7  C    0.151129
     8  C    0.000317
     9  C    0.007742
    10  C    0.077163
    11  C   -0.047099
    12  C   -0.024520
    13  C    0.000654
    14  C    0.466086
    15  O   -0.506658
    16  O   -0.280065
    17  N   -0.297992
    18  C    0.076541
    19  C    0.001332
    20  C   -0.067847
    21  C    0.111378
    22  C   -0.044940
    23  C    0.335485
    24  O   -0.531941
    25  C   -0.027243
    26  N   -0.272855
    27  C    0.103871
    28  C   -0.012634
    29  C    0.004266
    30  C    0.166322
    31  C   -0.056413
    32  C   -0.028918
    33  C   -0.062080
    34  N   -0.323643
    35  C    0.140438
    36  C    0.044689
    37  C   -0.063663
    38  C    0.119613
    39  C   -0.039227
    40  C    0.345798
    41  O   -0.508212
    42  C    0.061301
    43  C    0.500937
    44  O   -0.537837
    45  O   -0.275903
    46  C    0.067521
    47  C    0.095410
    48  C   -0.081554
    49  C   -0.016123
    50  C   -0.046129
    51  C   -0.018935
    52  C   -0.025219
    53  C   -0.026013
    54  C   -0.000882
    55  C   -0.055116
    56  C   -0.026339
    57  C   -0.027974
    58  C   -0.039076
    59  C   -0.011920
    60  C   -0.068520
    61  C   -0.031153
    62  C   -0.045152
    63  C   -0.042595
    64  C   -0.010395
    65  C   -0.055883
    66  C   -0.055558
    67  H    0.007625
    68  H    0.050172
    69  H    0.024655
    70  H    0.040981
    71  H    0.035847
    72  H    0.016215
    73  H    0.029170
    74  H    0.016354
    75  H    0.033957
    76  H    0.020793
    77  H    0.039769
    78  H    0.037094
    79  H    0.029557
    80  H    0.028486
    81  H    0.024919
    82  H    0.038112
    83  H    0.031386
    84  H    0.038490
    85  H    0.034946
    86  H    0.030088
    87  H    0.024765
    88  H    0.014763
    89  H    0.034245
    90  H    0.021892
    91  H    0.014746
    92  H    0.028863
    93  H    0.026543
    94  H    0.017999
    95  H    0.019610
    96  H    0.051897
    97  H    0.036125
    98  H    0.056766
    99  H    0.040383
   100  H    0.055184
   101  H    0.041911
   102  H    0.062785
   103  H    0.055705
   104  H    0.035310
   105  H    0.022461
   106  H    0.014362
   107  H    0.030068
   108  H    0.015619
   109  H    0.029706
   110  H    0.020957
   111  H    0.014697
   112  H    0.008725
   113  H    0.015955
   114  H    0.015222
   115  H    0.014957
   116  H    0.016933
   117  H    0.012412
   118  H    0.009535
   119  H    0.014046
   120  H    0.013307
   121  H    0.024653
   122  H    0.014969
   123  H    0.009932
   124  H    0.022572
   125  H    0.029813
   126  H    0.023005
   127  H    0.005209
   128  H    0.021055
   129  H    0.026086
   130  H    0.022679
   131  H    0.012803
   132  H    0.014134
   133  H    0.016014
   134  H    0.009169
   135  H    0.021036
   136  H    0.025519
   137  H    0.011270
   138  H    0.023944
   139  H    0.025256
   140  H    0.014533
 Sum of Mulliken charges =   0.00000

 Dipole moment (field-independent basis, Debye):
    X=             -2.5588    Y=              0.5075    Z=             -0.3063  Tot=              2.6265
 N-N= 4.174181345328D+03 E-N= 0.000000000000D+00  KE=-9.022687202014D+03
 Leave Link  601 at Fri Apr 29 02:50:16 2022, MaxMem=  6710886400 cpu:               0.8 elap:               0.0
 (Enter /sw/apps/gaussian-16.0/g16/l9999.exe)
 1\1\GINC-BP1-COMPUTE156\SP\RZINDO CIS\STO-3G\C55H74Mg1N4O6\OF15641\29-
 Apr-2022\0\\#p ZINDO=(nstates=5)\\step_1801_chromophore_7 ZINDO\\0,1\M
 g,0,26.376,0.169,29.401\C,0,28.218,-0.546,32.329\C,0,23.695,0.69,31.18
 9\C,0,24.84,0.968,26.519\C,0,29.241,-0.794,27.532\N,0,26.035,-0.028,31
 .541\C,0,26.918,-0.13,32.534\C,0,26.175,0.101,33.879\C,0,24.678,0.368,
 33.529\C,0,24.76,0.218,31.979\C,0,23.728,-0.633,34.203\C,0,26.901,1.22
 2,34.772\C,0,26.03,1.602,35.99\C,0,26.795,2.207,37.199\O,0,27.363,3.27

 Normal termination of Gaussian 16 at Fri Apr 29 02:50:16 2022.
