 Gaussian 16, Revision A.03,
 Gaussian 16:  ES64L-G16RevA.03 25-Dec-2016

 ------------------------------
 #p blyp/Def2SVP td=(nstates=5)
 ------------------------------

 --------------------------------------------------
 step_951_chromophore_24 TDDFT with blyp functional
 --------------------------------------------------
 Symbolic Z-matrix:
 Charge =  0 Multiplicity = 1

                         Standard orientation:
 ---------------------------------------------------------------------
 Center     Atomic      Atomic             Coordinates (Angstroms)
 Number     Number       Type             X           Y           Z
 ---------------------------------------------------------------------
      1         12           0        4.991716    1.091583    0.093589
      2          6           0        4.504856   -2.372406   -0.180619
      3          6           0        1.488670    1.293797    0.009072
      4          6           0        5.272757    4.428038   -0.040870
      5          6           0        8.338815    0.672823   -0.358848
      6          7           0        3.139348   -0.419910   -0.442737
      7          6           0        3.263024   -1.771239   -0.186875
      8          6           0        1.898861   -2.438407    0.050801
      9          6           0        0.958857   -1.189838   -0.219943
     10          6           0        1.875867    0.019622   -0.188764
     11          6           0        0.098885   -1.401282   -1.507072
     12          6           0        1.806183   -3.063832    1.500576
     13          6           0        0.570109   -3.857383    2.014164
     14          6           0       -0.410527   -4.354721    1.001439
     15          8           0       -0.104961   -5.046348    0.071654
     16          8           0       -1.693369   -4.004296    1.328110
     17          7           0        3.568077    2.638451   -0.037440
     18          6           0        2.180604    2.501533    0.105295
     19          6           0        1.615005    3.832323    0.433957
     20          6           0        2.661294    4.787882    0.359746
     21          6           0        3.910469    3.964452    0.059208
     22          6           0        0.095633    3.966404    0.694363
     23          6           0        2.589165    6.284995    0.593149
     24          8           0        3.571067    7.034343    0.767618
     25          6           0        1.226385    6.913189    0.511330
     26          7           0        6.513634    2.352922   -0.336946
     27          6           0        6.445911    3.746668   -0.169921
     28          6           0        7.848654    4.361003   -0.455202
     29          6           0        8.791643    3.108909   -0.167351
     30          6           0        7.814033    1.923453   -0.314824
     31          6           0        7.848726    4.909888   -1.911489
     32          6           0        9.369437    3.112666    1.228862
     33          6           0       10.885287    3.545354    1.424253
     34          7           0        6.215976   -0.454839   -0.180079
     35          6           0        7.589589   -0.557927   -0.379965
     36          6           0        8.063386   -1.880056   -0.448999
     37          6           0        6.847958   -2.608807   -0.390255
     38          6           0        5.788127   -1.759527   -0.185877
     39          6           0        9.454415   -2.351177   -0.468926
     40          6           0        6.315302   -3.996443   -0.304722
     41          8           0        6.920861   -5.016463   -0.189001
     42          6           0        4.753333   -3.906605   -0.119244
     43          6           0        4.174108   -4.673842   -1.267853
     44          8           0        4.193376   -4.368079   -2.427739
     45          8           0        3.609907   -5.772616   -0.776680
     46          6           0        2.769183   -6.454641   -1.838488
     47          6           0       -2.746252   -4.177913    0.295676
     48          6           0       -3.713022   -3.034800    0.481410
     49          6           0       -4.981405   -2.978900   -0.001360
     50          6           0       -5.573193   -4.017137   -0.939114
     51          6           0       -5.703833   -1.625801    0.009707
     52          6           0       -7.018236   -1.663196    0.823480
     53          6           0       -6.985806   -1.500376    2.356628
     54          6           0       -8.390710   -1.146574    2.921514
     55          6           0       -8.551975   -1.551214    4.378247
     56          6           0       -8.731043    0.395497    2.877788
     57          6           0       -9.735121    0.860745    1.814165
     58          6           0       -9.175622    1.836072    0.719794
     59          6           0       -9.592346    1.482847   -0.731466
     60          6           0       -8.376339    1.492894   -1.662189
     61          6           0      -10.645380    2.470568   -1.286014
     62          6           0      -12.032162    2.218738   -0.677875
     63          6           0      -12.902704    1.427703   -1.594850
     64          6           0      -14.162632    2.233014   -2.106754
     65          6           0      -15.211379    2.161947   -0.979587
     66          6           0      -14.735114    1.772203   -3.480465
     67          1           0        0.398608    1.344470    0.047732
     68          1           0        5.386336    5.497516    0.147826
     69          1           0        9.419325    0.571638   -0.477097
     70          1           0        1.920219   -3.239435   -0.688208
     71          1           0        0.367837   -1.014017    0.678905
     72          1           0        0.452999   -0.732617   -2.290874
     73          1           0       -0.964520   -1.252378   -1.321650
     74          1           0        0.158769   -2.405141   -1.929260
     75          1           0        1.850527   -2.208973    2.174505
     76          1           0        2.705620   -3.633768    1.732062
     77          1           0       -0.026922   -3.269638    2.711757
     78          1           0        0.921037   -4.748711    2.535366
     79          1           0       -0.360730    4.724821    0.057549
     80          1           0       -0.068212    4.292549    1.721215
     81          1           0       -0.506549    3.068234    0.555256
     82          1           0        0.594445    6.714209    1.377028
     83          1           0        0.881394    6.799954   -0.515793
     84          1           0        1.427848    7.981951    0.591602
     85          1           0        8.033527    5.180305    0.239256
     86          1           0        9.639489    3.025989   -0.848989
     87          1           0        8.344116    5.876388   -1.820511
     88          1           0        6.840245    5.025075   -2.308493
     89          1           0        8.406614    4.285596   -2.608731
     90          1           0        9.184506    2.115134    1.628485
     91          1           0        8.746893    3.778107    1.826442
     92          1           0       10.964879    4.351670    2.153986
     93          1           0       11.328076    3.933458    0.507249
     94          1           0       11.593131    2.758079    1.682202
     95          1           0       10.108680   -1.497800   -0.290793
     96          1           0        9.731009   -2.872805   -1.384579
     97          1           0        9.727189   -3.052537    0.319058
     98          1           0        4.514667   -4.348569    0.847728
     99          1           0        3.293845   -7.130530   -2.513734
    100          1           0        2.097654   -5.870666   -2.468561
    101          1           0        2.128334   -7.132357   -1.272546
    102          1           0       -3.153360   -5.187059    0.350082
    103          1           0       -2.413529   -4.150108   -0.741777
    104          1           0       -3.278153   -2.145711    0.936777
    105          1           0       -5.594727   -4.916607   -0.323505
    106          1           0       -4.811294   -4.099249   -1.713905
    107          1           0       -6.565631   -3.764583   -1.312307
    108          1           0       -6.064074   -1.441991   -1.002647
    109          1           0       -5.062042   -0.814651    0.354222
    110          1           0       -7.319127   -2.693878    0.640155
    111          1           0       -7.727207   -0.911745    0.475925
    112          1           0       -6.269325   -0.715037    2.599437
    113          1           0       -6.610526   -2.421576    2.802307
    114          1           0       -9.208950   -1.597675    2.360304
    115          1           0       -9.384844   -1.068712    4.888433
    116          1           0       -7.693735   -1.156860    4.921544
    117          1           0       -8.651062   -2.634940    4.447482
    118          1           0       -7.867347    1.060367    2.845973
    119          1           0       -9.145359    0.773409    3.812524
    120          1           0      -10.664416    1.262139    2.219887
    121          1           0      -10.056814   -0.034840    1.280836
    122          1           0       -8.087966    1.860216    0.795583
    123          1           0       -9.602176    2.785733    1.041174
    124          1           0       -9.919944    0.460882   -0.922773
    125          1           0       -8.079758    2.532883   -1.799563
    126          1           0       -8.579295    0.979648   -2.602571
    127          1           0       -7.541019    0.960655   -1.208444
    128          1           0      -10.718400    2.468620   -2.373082
    129          1           0      -10.494175    3.502145   -0.967311
    130          1           0      -12.394376    3.153430   -0.249865
    131          1           0      -11.884503    1.570398    0.185244
    132          1           0      -13.301923    0.556038   -1.074909
    133          1           0      -12.378570    1.150927   -2.510078
    134          1           0      -13.952246    3.289230   -2.275255
    135          1           0      -16.120741    1.676126   -1.334711
    136          1           0      -15.457156    3.191869   -0.716643
    137          1           0      -14.890131    1.717809   -0.037280
    138          1           0      -15.508657    1.009205   -3.395809
    139          1           0      -13.953620    1.386732   -4.135477
    140          1           0      -15.207969    2.616776   -3.982779
 ---------------------------------------------------------------------

 SCF Done:  E(RB-LYP) =  -3007.38780731     A.U. after   21 cycles

 Excitation energies and oscillator strengths:

 Excited State   1:      Singlet-A      1.8061 eV  686.47 nm  f=0.2976  <S**2>=0.000
     244 -> 247        0.13320
     245 -> 248        0.14709
     245 -> 249       -0.10670
     246 -> 247        0.67879
     246 <- 247       -0.15360
 This state for optimization and/or second-order correction.
 Total Energy, E(TD-HF/TD-DFT) =  -3007.32143378
 Copying the excited state density for this state as the 1-particle RhoCI density.

 Excited State   2:      Singlet-A      1.8460 eV  671.64 nm  f=0.0322  <S**2>=0.000
     244 -> 247        0.65186
     245 -> 247        0.22253
     246 -> 247       -0.14462

 Excited State   3:      Singlet-A      1.9581 eV  633.18 nm  f=0.0041  <S**2>=0.000
     243 -> 247        0.70027

 Excited State   4:      Singlet-A      2.0217 eV  613.28 nm  f=0.1028  <S**2>=0.000
     244 -> 247       -0.23206
     245 -> 247        0.61694
     246 -> 248       -0.16323
     246 -> 249        0.13502

 Excited State   5:      Singlet-A      2.3445 eV  528.82 nm  f=0.0001  <S**2>=0.000
     241 -> 247        0.70349

 The electronic state is 1-A.
 Alpha  occ. eigenvalues --  -46.26717 -18.82691 -18.82187 -18.77254 -18.75936
 Alpha  occ. eigenvalues --  -18.75757 -18.75748 -14.02564 -14.02393 -14.01574
 Alpha  occ. eigenvalues --  -14.00513 -10.04227 -10.02854 -10.00194  -9.99338
 Alpha  occ. eigenvalues --   -9.98956  -9.96893  -9.96738  -9.96219  -9.96104
 Alpha  occ. eigenvalues --   -9.96084  -9.95804  -9.95679  -9.95196  -9.94792
 Alpha  occ. eigenvalues --   -9.94343  -9.94287  -9.94184  -9.94095  -9.93907
 Alpha  occ. eigenvalues --   -9.93860  -9.93604  -9.93560  -9.93542  -9.93485
 Alpha  occ. eigenvalues --   -9.93380  -9.93372  -9.93213  -9.93047  -9.92635
 Alpha  occ. eigenvalues --   -9.92554  -9.92475  -9.92473  -9.92388  -9.92312
 Alpha  occ. eigenvalues --   -9.92208  -9.92138  -9.92045  -9.92030  -9.92004
 Alpha  occ. eigenvalues --   -9.91905  -9.91904  -9.91859  -9.91851  -9.91683
 Alpha  occ. eigenvalues --   -9.91476  -9.91153  -9.91076  -9.90854  -9.90838
 Alpha  occ. eigenvalues --   -9.90816  -9.90811  -9.90790  -9.90708  -9.90537
 Alpha  occ. eigenvalues --   -9.90522  -2.91539  -1.71903  -1.71457  -1.71255
 Alpha  occ. eigenvalues --   -0.98604  -0.98474  -0.92866  -0.91121  -0.90502
 Alpha  occ. eigenvalues --   -0.89742  -0.86018  -0.85155  -0.84716  -0.83835
 Alpha  occ. eigenvalues --   -0.74990  -0.74241  -0.73476  -0.72497  -0.72159
 Alpha  occ. eigenvalues --   -0.72040  -0.71326  -0.70917  -0.70890  -0.70228
 Alpha  occ. eigenvalues --   -0.69918  -0.69445  -0.68286  -0.67233  -0.67019
 Alpha  occ. eigenvalues --   -0.66733  -0.65845  -0.65586  -0.65087  -0.64944
 Alpha  occ. eigenvalues --   -0.64602  -0.62588  -0.62445  -0.61508  -0.61189
 Alpha  occ. eigenvalues --   -0.60698  -0.60094  -0.59951  -0.59471  -0.58952
 Alpha  occ. eigenvalues --   -0.58778  -0.58094  -0.56814  -0.56087  -0.54347
 Alpha  occ. eigenvalues --   -0.53727  -0.53078  -0.52630  -0.52088  -0.51488
 Alpha  occ. eigenvalues --   -0.51063  -0.50923  -0.50672  -0.50428  -0.50377
 Alpha  occ. eigenvalues --   -0.50124  -0.49639  -0.48349  -0.48061  -0.46809
 Alpha  occ. eigenvalues --   -0.46149  -0.45689  -0.45484  -0.44738  -0.44502
 Alpha  occ. eigenvalues --   -0.44051  -0.43346  -0.43161  -0.43020  -0.42344
 Alpha  occ. eigenvalues --   -0.42255  -0.41826  -0.41736  -0.41260  -0.40910
 Alpha  occ. eigenvalues --   -0.40869  -0.40561  -0.40396  -0.40279  -0.39933
 Alpha  occ. eigenvalues --   -0.39768  -0.39659  -0.39564  -0.39392  -0.39104
 Alpha  occ. eigenvalues --   -0.38954  -0.38862  -0.38746  -0.38468  -0.38341
 Alpha  occ. eigenvalues --   -0.38052  -0.37941  -0.37649  -0.37567  -0.37334
 Alpha  occ. eigenvalues --   -0.37233  -0.36877  -0.36706  -0.36532  -0.36232
 Alpha  occ. eigenvalues --   -0.36193  -0.36005  -0.35780  -0.35575  -0.35449
 Alpha  occ. eigenvalues --   -0.35356  -0.34912  -0.34875  -0.34792  -0.34599
 Alpha  occ. eigenvalues --   -0.34511  -0.34424  -0.34349  -0.34154  -0.34046
 Alpha  occ. eigenvalues --   -0.33974  -0.33882  -0.33727  -0.33527  -0.33266
 Alpha  occ. eigenvalues --   -0.33049  -0.32870  -0.32757  -0.32682  -0.32377
 Alpha  occ. eigenvalues --   -0.32282  -0.32050  -0.31963  -0.31875  -0.31547
 Alpha  occ. eigenvalues --   -0.31541  -0.31246  -0.31051  -0.30754  -0.30536
 Alpha  occ. eigenvalues --   -0.30500  -0.30345  -0.30315  -0.29969  -0.29922
 Alpha  occ. eigenvalues --   -0.29582  -0.29397  -0.29281  -0.29098  -0.29001
 Alpha  occ. eigenvalues --   -0.28603  -0.28564  -0.28323  -0.28062  -0.27875
 Alpha  occ. eigenvalues --   -0.27850  -0.27549  -0.27352  -0.27235  -0.26707
 Alpha  occ. eigenvalues --   -0.26599  -0.26392  -0.26154  -0.25934  -0.25705
 Alpha  occ. eigenvalues --   -0.25107  -0.24672  -0.24585  -0.23809  -0.23717
 Alpha  occ. eigenvalues --   -0.23224  -0.22491  -0.22165  -0.21464  -0.21008
 Alpha  occ. eigenvalues --   -0.20451  -0.20301  -0.18944  -0.18563  -0.17291
 Alpha  occ. eigenvalues --   -0.16022
 Alpha virt. eigenvalues --   -0.11835  -0.06782  -0.05751  -0.04257  -0.03436
 Alpha virt. eigenvalues --   -0.02955  -0.02762  -0.01493  -0.00998   0.00388
 Alpha virt. eigenvalues --    0.01340   0.01806   0.02248   0.02633   0.03001

 Mulliken charges:
               1
     1  Mg   0.695942
     2  C    0.042510
     3  C   -0.019295
     4  C   -0.018078
     5  C   -0.111366
     6  N   -0.179247
     7  C   -0.144034
     8  C    0.050673
     9  C    0.048961
    10  C   -0.052147
    11  C    0.133806
    12  C    0.098608
    13  C    0.174349
    14  C    0.025505
    15  O   -0.175872
    16  O   -0.271178
    17  N   -0.285311
    18  C    0.144952
    19  C   -0.118510
    20  C    0.037496
    21  C    0.077076
    22  C    0.159540
    23  C   -0.086837
    24  O   -0.175771
    25  C    0.136227
    26  N   -0.292176
    27  C    0.029153
    28  C    0.023963
    29  C    0.004173
    30  C    0.109662
    31  C    0.144072
    32  C    0.096032
    33  C    0.063559
    34  N   -0.316161
    35  C    0.118123
    36  C   -0.145622
    37  C    0.058112
    38  C    0.106631
    39  C    0.176256
    40  C   -0.073570
    41  O   -0.097549
    42  C    0.055768
    43  C    0.091891
    44  O   -0.166972
    45  O   -0.242689
    46  C    0.217052
    47  C    0.302661
    48  C   -0.104822
    49  C   -0.175120
    50  C    0.155461
    51  C    0.170450
    52  C    0.007807
    53  C    0.144443
    54  C   -0.040926
    55  C    0.105403
    56  C    0.106760
    57  C    0.012740
    58  C    0.131806
    59  C   -0.059166
    60  C    0.083650
    61  C    0.098519
    62  C    0.084545
    63  C    0.109793
    64  C   -0.104024
    65  C    0.103364
    66  C    0.093248
    67  H   -0.076644
    68  H   -0.044994
    69  H   -0.057822
    70  H    0.002731
    71  H   -0.040933
    72  H   -0.001977
    73  H   -0.008075
    74  H    0.002339
    75  H   -0.030712
    76  H   -0.019728
    77  H   -0.014383
    78  H    0.006835
    79  H    0.003278
    80  H    0.000344
    81  H   -0.013805
    82  H    0.013640
    83  H    0.019080
    84  H   -0.023387
    85  H   -0.026630
    86  H   -0.036473
    87  H   -0.006641
    88  H    0.003907
    89  H   -0.007605
    90  H   -0.022259
    91  H   -0.027025
    92  H   -0.004668
    93  H   -0.019244
    94  H   -0.004396
    95  H   -0.027166
    96  H    0.009833
    97  H    0.001098
    98  H    0.008324
    99  H    0.011454
   100  H    0.024669
   101  H    0.003228
   102  H   -0.003381
   103  H    0.006216
   104  H   -0.031254
   105  H    0.007905
   106  H    0.011074
   107  H    0.005683
   108  H   -0.026966
   109  H   -0.037246
   110  H   -0.033483
   111  H   -0.011093
   112  H   -0.040646
   113  H   -0.036205
   114  H   -0.036390
   115  H   -0.020919
   116  H   -0.021664
   117  H   -0.014754
   118  H   -0.047998
   119  H   -0.051909
   120  H   -0.018079
   121  H   -0.034113
   122  H   -0.033281
   123  H   -0.031150
   124  H   -0.034381
   125  H   -0.020396
   126  H   -0.017181
   127  H   -0.022634
   128  H   -0.036543
   129  H   -0.046269
   130  H   -0.035614
   131  H   -0.045193
   132  H   -0.030021
   133  H   -0.038042
   134  H   -0.033508
   135  H   -0.018492
   136  H   -0.024525
   137  H   -0.013757
   138  H   -0.017592
   139  H   -0.019474
   140  H   -0.017216
 Sum of Mulliken charges =  -0.00000

 Dipole moment (field-independent basis, Debye):
    X=             -4.7009    Y=              1.3095    Z=              2.2635  Tot=              5.3793
 Quadrupole moment (field-independent basis, Debye-Ang):
   XX=           -388.4886   YY=           -434.1606   ZZ=           -408.2773
   XY=             23.1935   XZ=             11.7150   YZ=             -4.1539

 Normal termination of Gaussian 16 at Sun May  1 01:12:08 2022.
