 Gaussian 16, Revision A.03,
 Gaussian 16:  ES64L-G16RevA.03 25-Dec-2016

 -----------------------------------
 #p cam-b3lyp/Def2SVP td=(nstates=5)
 -----------------------------------

 -------------------------------------------------------
 step_951_chromophore_24 TDDFT with cam-b3lyp functional
 -------------------------------------------------------
 Symbolic Z-matrix:
 Charge =  0 Multiplicity = 1

                         Standard orientation:
 ---------------------------------------------------------------------
 Center     Atomic      Atomic             Coordinates (Angstroms)
 Number     Number       Type             X           Y           Z
 ---------------------------------------------------------------------
      1         12           0        4.991716    1.091583    0.093589
      2          6           0        4.504856   -2.372406   -0.180619
      3          6           0        1.488670    1.293797    0.009072
      4          6           0        5.272757    4.428038   -0.040870
      5          6           0        8.338815    0.672823   -0.358848
      6          7           0        3.139348   -0.419910   -0.442737
      7          6           0        3.263024   -1.771239   -0.186875
      8          6           0        1.898861   -2.438407    0.050801
      9          6           0        0.958857   -1.189838   -0.219943
     10          6           0        1.875867    0.019622   -0.188764
     11          6           0        0.098885   -1.401282   -1.507072
     12          6           0        1.806183   -3.063832    1.500576
     13          6           0        0.570109   -3.857383    2.014164
     14          6           0       -0.410527   -4.354721    1.001439
     15          8           0       -0.104961   -5.046348    0.071654
     16          8           0       -1.693369   -4.004296    1.328110
     17          7           0        3.568077    2.638451   -0.037440
     18          6           0        2.180604    2.501533    0.105295
     19          6           0        1.615005    3.832323    0.433957
     20          6           0        2.661294    4.787882    0.359746
     21          6           0        3.910469    3.964452    0.059208
     22          6           0        0.095633    3.966404    0.694363
     23          6           0        2.589165    6.284995    0.593149
     24          8           0        3.571067    7.034343    0.767618
     25          6           0        1.226385    6.913189    0.511330
     26          7           0        6.513634    2.352922   -0.336946
     27          6           0        6.445911    3.746668   -0.169921
     28          6           0        7.848654    4.361003   -0.455202
     29          6           0        8.791643    3.108909   -0.167351
     30          6           0        7.814033    1.923453   -0.314824
     31          6           0        7.848726    4.909888   -1.911489
     32          6           0        9.369437    3.112666    1.228862
     33          6           0       10.885287    3.545354    1.424253
     34          7           0        6.215976   -0.454839   -0.180079
     35          6           0        7.589589   -0.557927   -0.379965
     36          6           0        8.063386   -1.880056   -0.448999
     37          6           0        6.847958   -2.608807   -0.390255
     38          6           0        5.788127   -1.759527   -0.185877
     39          6           0        9.454415   -2.351177   -0.468926
     40          6           0        6.315302   -3.996443   -0.304722
     41          8           0        6.920861   -5.016463   -0.189001
     42          6           0        4.753333   -3.906605   -0.119244
     43          6           0        4.174108   -4.673842   -1.267853
     44          8           0        4.193376   -4.368079   -2.427739
     45          8           0        3.609907   -5.772616   -0.776680
     46          6           0        2.769183   -6.454641   -1.838488
     47          6           0       -2.746252   -4.177913    0.295676
     48          6           0       -3.713022   -3.034800    0.481410
     49          6           0       -4.981405   -2.978900   -0.001360
     50          6           0       -5.573193   -4.017137   -0.939114
     51          6           0       -5.703833   -1.625801    0.009707
     52          6           0       -7.018236   -1.663196    0.823480
     53          6           0       -6.985806   -1.500376    2.356628
     54          6           0       -8.390710   -1.146574    2.921514
     55          6           0       -8.551975   -1.551214    4.378247
     56          6           0       -8.731043    0.395497    2.877788
     57          6           0       -9.735121    0.860745    1.814165
     58          6           0       -9.175622    1.836072    0.719794
     59          6           0       -9.592346    1.482847   -0.731466
     60          6           0       -8.376339    1.492894   -1.662189
     61          6           0      -10.645380    2.470568   -1.286014
     62          6           0      -12.032162    2.218738   -0.677875
     63          6           0      -12.902704    1.427703   -1.594850
     64          6           0      -14.162632    2.233014   -2.106754
     65          6           0      -15.211379    2.161947   -0.979587
     66          6           0      -14.735114    1.772203   -3.480465
     67          1           0        0.398608    1.344470    0.047732
     68          1           0        5.386336    5.497516    0.147826
     69          1           0        9.419325    0.571638   -0.477097
     70          1           0        1.920219   -3.239435   -0.688208
     71          1           0        0.367837   -1.014017    0.678905
     72          1           0        0.452999   -0.732617   -2.290874
     73          1           0       -0.964520   -1.252378   -1.321650
     74          1           0        0.158769   -2.405141   -1.929260
     75          1           0        1.850527   -2.208973    2.174505
     76          1           0        2.705620   -3.633768    1.732062
     77          1           0       -0.026922   -3.269638    2.711757
     78          1           0        0.921037   -4.748711    2.535366
     79          1           0       -0.360730    4.724821    0.057549
     80          1           0       -0.068212    4.292549    1.721215
     81          1           0       -0.506549    3.068234    0.555256
     82          1           0        0.594445    6.714209    1.377028
     83          1           0        0.881394    6.799954   -0.515793
     84          1           0        1.427848    7.981951    0.591602
     85          1           0        8.033527    5.180305    0.239256
     86          1           0        9.639489    3.025989   -0.848989
     87          1           0        8.344116    5.876388   -1.820511
     88          1           0        6.840245    5.025075   -2.308493
     89          1           0        8.406614    4.285596   -2.608731
     90          1           0        9.184506    2.115134    1.628485
     91          1           0        8.746893    3.778107    1.826442
     92          1           0       10.964879    4.351670    2.153986
     93          1           0       11.328076    3.933458    0.507249
     94          1           0       11.593131    2.758079    1.682202
     95          1           0       10.108680   -1.497800   -0.290793
     96          1           0        9.731009   -2.872805   -1.384579
     97          1           0        9.727189   -3.052537    0.319058
     98          1           0        4.514667   -4.348569    0.847728
     99          1           0        3.293845   -7.130530   -2.513734
    100          1           0        2.097654   -5.870666   -2.468561
    101          1           0        2.128334   -7.132357   -1.272546
    102          1           0       -3.153360   -5.187059    0.350082
    103          1           0       -2.413529   -4.150108   -0.741777
    104          1           0       -3.278153   -2.145711    0.936777
    105          1           0       -5.594727   -4.916607   -0.323505
    106          1           0       -4.811294   -4.099249   -1.713905
    107          1           0       -6.565631   -3.764583   -1.312307
    108          1           0       -6.064074   -1.441991   -1.002647
    109          1           0       -5.062042   -0.814651    0.354222
    110          1           0       -7.319127   -2.693878    0.640155
    111          1           0       -7.727207   -0.911745    0.475925
    112          1           0       -6.269325   -0.715037    2.599437
    113          1           0       -6.610526   -2.421576    2.802307
    114          1           0       -9.208950   -1.597675    2.360304
    115          1           0       -9.384844   -1.068712    4.888433
    116          1           0       -7.693735   -1.156860    4.921544
    117          1           0       -8.651062   -2.634940    4.447482
    118          1           0       -7.867347    1.060367    2.845973
    119          1           0       -9.145359    0.773409    3.812524
    120          1           0      -10.664416    1.262139    2.219887
    121          1           0      -10.056814   -0.034840    1.280836
    122          1           0       -8.087966    1.860216    0.795583
    123          1           0       -9.602176    2.785733    1.041174
    124          1           0       -9.919944    0.460882   -0.922773
    125          1           0       -8.079758    2.532883   -1.799563
    126          1           0       -8.579295    0.979648   -2.602571
    127          1           0       -7.541019    0.960655   -1.208444
    128          1           0      -10.718400    2.468620   -2.373082
    129          1           0      -10.494175    3.502145   -0.967311
    130          1           0      -12.394376    3.153430   -0.249865
    131          1           0      -11.884503    1.570398    0.185244
    132          1           0      -13.301923    0.556038   -1.074909
    133          1           0      -12.378570    1.150927   -2.510078
    134          1           0      -13.952246    3.289230   -2.275255
    135          1           0      -16.120741    1.676126   -1.334711
    136          1           0      -15.457156    3.191869   -0.716643
    137          1           0      -14.890131    1.717809   -0.037280
    138          1           0      -15.508657    1.009205   -3.395809
    139          1           0      -13.953620    1.386732   -4.135477
    140          1           0      -15.207969    2.616776   -3.982779
 ---------------------------------------------------------------------

 SCF Done:  E(RCAM-B3LYP) =  -3007.18527786     A.U. after   17 cycles

 Excitation energies and oscillator strengths:

 Excited State   1:      Singlet-A      1.6834 eV  736.49 nm  f=0.3979  <S**2>=0.000
     245 -> 248        0.15913
     246 -> 247        0.68962
     245 <- 248        0.10036
 This state for optimization and/or second-order correction.
 Total Energy, E(TD-HF/TD-DFT) =  -3007.12341242
 Copying the excited state density for this state as the 1-particle RhoCI density.

 Excited State   2:      Singlet-A      2.2096 eV  561.11 nm  f=0.1773  <S**2>=0.000
     245 -> 247        0.66035
     246 -> 248       -0.22850

 Excited State   3:      Singlet-A      3.2333 eV  383.46 nm  f=0.0044  <S**2>=0.000
     241 -> 247       -0.10150
     244 -> 247        0.68249

 Excited State   4:      Singlet-A      3.4640 eV  357.93 nm  f=0.0076  <S**2>=0.000
     242 -> 247        0.62096
     242 -> 249       -0.17069
     242 -> 251       -0.22454

 Excited State   5:      Singlet-A      3.5306 eV  351.17 nm  f=0.0093  <S**2>=0.000
     239 -> 247        0.11423
     241 -> 247        0.63694
     246 -> 248        0.23394

 The electronic state is 1-A.
 Alpha  occ. eigenvalues --  -46.88203 -19.25596 -19.25149 -19.20244 -19.19358
 Alpha  occ. eigenvalues --  -19.18812 -19.18799 -14.41485 -14.41107 -14.40232
 Alpha  occ. eigenvalues --  -14.38728 -10.39458 -10.38142 -10.35636 -10.34458
 Alpha  occ. eigenvalues --  -10.33082 -10.31554 -10.30965 -10.30779 -10.30659
 Alpha  occ. eigenvalues --  -10.30459 -10.30183 -10.29936 -10.29826 -10.29184
 Alpha  occ. eigenvalues --  -10.28451 -10.28334 -10.28259 -10.28227 -10.28047
 Alpha  occ. eigenvalues --  -10.28019 -10.27802 -10.27784 -10.27770 -10.27700
 Alpha  occ. eigenvalues --  -10.27680 -10.27093 -10.27026 -10.26985 -10.26979
 Alpha  occ. eigenvalues --  -10.26538 -10.26368 -10.26248 -10.26151 -10.26090
 Alpha  occ. eigenvalues --  -10.25935 -10.25869 -10.25794 -10.25764 -10.25666
 Alpha  occ. eigenvalues --  -10.25662 -10.25632 -10.25572 -10.25412 -10.25404
 Alpha  occ. eigenvalues --  -10.25223 -10.24883 -10.24798 -10.24663 -10.24512
 Alpha  occ. eigenvalues --  -10.24505 -10.24485 -10.24470 -10.24457 -10.24176
 Alpha  occ. eigenvalues --  -10.24144  -3.16936  -1.91771  -1.91412  -1.91246
 Alpha  occ. eigenvalues --   -1.17120  -1.17073  -1.11218  -1.09049  -1.09015
 Alpha  occ. eigenvalues --   -1.07681  -1.03628  -1.02771  -1.02290  -1.01334
 Alpha  occ. eigenvalues --   -0.92053  -0.91195  -0.90355  -0.89249  -0.88907
 Alpha  occ. eigenvalues --   -0.88720  -0.87908  -0.87512  -0.87438  -0.86922
 Alpha  occ. eigenvalues --   -0.86380  -0.85794  -0.84595  -0.83420  -0.83080
 Alpha  occ. eigenvalues --   -0.82898  -0.81830  -0.81756  -0.81049  -0.80704
 Alpha  occ. eigenvalues --   -0.80477  -0.78380  -0.78173  -0.76900  -0.76630
 Alpha  occ. eigenvalues --   -0.76077  -0.75490  -0.75220  -0.74797  -0.74091
 Alpha  occ. eigenvalues --   -0.74011  -0.73090  -0.71730  -0.70883  -0.68875
 Alpha  occ. eigenvalues --   -0.68316  -0.67627  -0.67074  -0.66477  -0.65745
 Alpha  occ. eigenvalues --   -0.65300  -0.65035  -0.64585  -0.64521  -0.64219
 Alpha  occ. eigenvalues --   -0.63973  -0.63670  -0.62232  -0.61768  -0.60369
 Alpha  occ. eigenvalues --   -0.59820  -0.59201  -0.58948  -0.58139  -0.57970
 Alpha  occ. eigenvalues --   -0.57456  -0.56663  -0.56459  -0.56199  -0.55513
 Alpha  occ. eigenvalues --   -0.55286  -0.55200  -0.54809  -0.54318  -0.54098
 Alpha  occ. eigenvalues --   -0.53695  -0.53299  -0.53214  -0.53172  -0.52791
 Alpha  occ. eigenvalues --   -0.52350  -0.52210  -0.52050  -0.51980  -0.51826
 Alpha  occ. eigenvalues --   -0.51724  -0.51463  -0.51173  -0.50941  -0.50731
 Alpha  occ. eigenvalues --   -0.50696  -0.50252  -0.50081  -0.49901  -0.49680
 Alpha  occ. eigenvalues --   -0.49481  -0.49174  -0.49036  -0.48792  -0.48669
 Alpha  occ. eigenvalues --   -0.48466  -0.48327  -0.48062  -0.47927  -0.47652
 Alpha  occ. eigenvalues --   -0.47447  -0.46944  -0.46871  -0.46650  -0.46515
 Alpha  occ. eigenvalues --   -0.46384  -0.46209  -0.46095  -0.46066  -0.46004
 Alpha  occ. eigenvalues --   -0.45802  -0.45740  -0.45498  -0.45265  -0.44923
 Alpha  occ. eigenvalues --   -0.44889  -0.44546  -0.44343  -0.44150  -0.44128
 Alpha  occ. eigenvalues --   -0.43861  -0.43783  -0.43637  -0.43541  -0.43253
 Alpha  occ. eigenvalues --   -0.42960  -0.42847  -0.42741  -0.42569  -0.42424
 Alpha  occ. eigenvalues --   -0.42033  -0.41825  -0.41678  -0.41194  -0.41097
 Alpha  occ. eigenvalues --   -0.40912  -0.40599  -0.40361  -0.40134  -0.40072
 Alpha  occ. eigenvalues --   -0.39551  -0.39509  -0.39297  -0.39002  -0.38855
 Alpha  occ. eigenvalues --   -0.38734  -0.38397  -0.38170  -0.38103  -0.37979
 Alpha  occ. eigenvalues --   -0.37650  -0.37427  -0.37038  -0.36662  -0.36646
 Alpha  occ. eigenvalues --   -0.36397  -0.35691  -0.35114  -0.34482  -0.34267
 Alpha  occ. eigenvalues --   -0.34125  -0.33998  -0.32881  -0.31616  -0.31467
 Alpha  occ. eigenvalues --   -0.30573  -0.30287  -0.30134  -0.29373  -0.24046
 Alpha  occ. eigenvalues --   -0.21416
 Alpha virt. eigenvalues --   -0.09096  -0.01120   0.00481   0.01573   0.02893
 Alpha virt. eigenvalues --    0.04295   0.04880   0.05843   0.06886   0.07283
 Alpha virt. eigenvalues --    0.08042   0.08553   0.08608   0.09201   0.09224

 Mulliken charges:
               1
     1  Mg   0.827211
     2  C    0.018281
     3  C   -0.039652
     4  C   -0.046545
     5  C   -0.116169
     6  N   -0.233804
     7  C   -0.101008
     8  C   -0.002555
     9  C   -0.009290
    10  C   -0.032118
    11  C    0.078400
    12  C    0.054470
    13  C    0.098716
    14  C    0.109006
    15  O   -0.215660
    16  O   -0.337454
    17  N   -0.369944
    18  C    0.156799
    19  C   -0.124898
    20  C   -0.034191
    21  C    0.109718
    22  C    0.105223
    23  C   -0.001565
    24  O   -0.215246
    25  C    0.045174
    26  N   -0.367664
    27  C    0.050472
    28  C   -0.026548
    29  C   -0.054241
    30  C    0.121727
    31  C    0.085436
    32  C    0.040218
    33  C    0.003491
    34  N   -0.408095
    35  C    0.122458
    36  C   -0.152239
    37  C   -0.008731
    38  C    0.139070
    39  C    0.127347
    40  C    0.022540
    41  O   -0.135727
    42  C   -0.022812
    43  C    0.177885
    44  O   -0.204436
    45  O   -0.304382
    46  C    0.177533
    47  C    0.271018
    48  C   -0.123142
    49  C   -0.190150
    50  C    0.086877
    51  C    0.106872
    52  C   -0.032144
    53  C    0.093172
    54  C   -0.102601
    55  C    0.046886
    56  C    0.051149
    57  C   -0.037316
    58  C    0.074404
    59  C   -0.119816
    60  C    0.033895
    61  C    0.044516
    62  C    0.028779
    63  C    0.055361
    64  C   -0.161005
    65  C    0.041593
    66  C    0.037662
    67  H   -0.040734
    68  H   -0.005278
    69  H   -0.024265
    70  H    0.033490
    71  H   -0.006984
    72  H    0.024543
    73  H    0.013647
    74  H    0.026554
    75  H   -0.001242
    76  H    0.007891
    77  H    0.020813
    78  H    0.040161
    79  H    0.029943
    80  H    0.027499
    81  H    0.015609
    82  H    0.042694
    83  H    0.047856
    84  H    0.015143
    85  H    0.007993
    86  H   -0.001045
    87  H    0.016920
    88  H    0.029465
    89  H    0.017416
    90  H    0.010005
    91  H    0.000608
    92  H    0.018354
    93  H    0.003362
    94  H    0.018756
    95  H   -0.003853
    96  H    0.034643
    97  H    0.026933
    98  H    0.050993
    99  H    0.035497
   100  H    0.047501
   101  H    0.028666
   102  H    0.024782
   103  H    0.033759
   104  H    0.001753
   105  H    0.032228
   106  H    0.034992
   107  H    0.030743
   108  H    0.003106
   109  H   -0.008129
   110  H   -0.007594
   111  H    0.007388
   112  H   -0.013801
   113  H   -0.006185
   114  H   -0.003826
   115  H    0.004842
   116  H    0.001907
   117  H    0.010317
   118  H   -0.018730
   119  H   -0.019219
   120  H    0.009336
   121  H   -0.008350
   122  H   -0.004844
   123  H   -0.001126
   124  H   -0.004096
   125  H    0.003565
   126  H    0.007420
   127  H   -0.003184
   128  H   -0.007264
   129  H   -0.015463
   130  H   -0.005857
   131  H   -0.017878
   132  H   -0.000858
   133  H   -0.011385
   134  H   -0.002657
   135  H    0.006051
   136  H   -0.000120
   137  H    0.009793
   138  H    0.005265
   139  H    0.004213
   140  H    0.007342
 Sum of Mulliken charges =  -0.00000

 Dipole moment (field-independent basis, Debye):
    X=             -5.6852    Y=              1.9172    Z=              2.4659  Tot=              6.4868
 Quadrupole moment (field-independent basis, Debye-Ang):
   XX=           -392.7173   YY=           -430.2175   ZZ=           -408.2413
   XY=             23.9048   XZ=             13.0507   YZ=             -3.5172

 Normal termination of Gaussian 16 at Sun May  1 00:06:42 2022.
