 Gaussian 16, Revision A.03,
 Gaussian 16:  ES64L-G16RevA.03 25-Dec-2016

 ---------------------------------
 #p PBE1PBE/Def2SVP td=(nstates=5)
 ---------------------------------

 -----------------------------------------------------
 step_951_chromophore_24 TDDFT with PBE1PBE functional
 -----------------------------------------------------
 Symbolic Z-matrix:
 Charge =  0 Multiplicity = 1

                         Standard orientation:
 ---------------------------------------------------------------------
 Center     Atomic      Atomic             Coordinates (Angstroms)
 Number     Number       Type             X           Y           Z
 ---------------------------------------------------------------------
      1         12           0        4.991716    1.091583    0.093589
      2          6           0        4.504856   -2.372406   -0.180619
      3          6           0        1.488670    1.293797    0.009072
      4          6           0        5.272757    4.428038   -0.040870
      5          6           0        8.338815    0.672823   -0.358848
      6          7           0        3.139348   -0.419910   -0.442737
      7          6           0        3.263024   -1.771239   -0.186875
      8          6           0        1.898861   -2.438407    0.050801
      9          6           0        0.958857   -1.189838   -0.219943
     10          6           0        1.875867    0.019622   -0.188764
     11          6           0        0.098885   -1.401282   -1.507072
     12          6           0        1.806183   -3.063832    1.500576
     13          6           0        0.570109   -3.857383    2.014164
     14          6           0       -0.410527   -4.354721    1.001439
     15          8           0       -0.104961   -5.046348    0.071654
     16          8           0       -1.693369   -4.004296    1.328110
     17          7           0        3.568077    2.638451   -0.037440
     18          6           0        2.180604    2.501533    0.105295
     19          6           0        1.615005    3.832323    0.433957
     20          6           0        2.661294    4.787882    0.359746
     21          6           0        3.910469    3.964452    0.059208
     22          6           0        0.095633    3.966404    0.694363
     23          6           0        2.589165    6.284995    0.593149
     24          8           0        3.571067    7.034343    0.767618
     25          6           0        1.226385    6.913189    0.511330
     26          7           0        6.513634    2.352922   -0.336946
     27          6           0        6.445911    3.746668   -0.169921
     28          6           0        7.848654    4.361003   -0.455202
     29          6           0        8.791643    3.108909   -0.167351
     30          6           0        7.814033    1.923453   -0.314824
     31          6           0        7.848726    4.909888   -1.911489
     32          6           0        9.369437    3.112666    1.228862
     33          6           0       10.885287    3.545354    1.424253
     34          7           0        6.215976   -0.454839   -0.180079
     35          6           0        7.589589   -0.557927   -0.379965
     36          6           0        8.063386   -1.880056   -0.448999
     37          6           0        6.847958   -2.608807   -0.390255
     38          6           0        5.788127   -1.759527   -0.185877
     39          6           0        9.454415   -2.351177   -0.468926
     40          6           0        6.315302   -3.996443   -0.304722
     41          8           0        6.920861   -5.016463   -0.189001
     42          6           0        4.753333   -3.906605   -0.119244
     43          6           0        4.174108   -4.673842   -1.267853
     44          8           0        4.193376   -4.368079   -2.427739
     45          8           0        3.609907   -5.772616   -0.776680
     46          6           0        2.769183   -6.454641   -1.838488
     47          6           0       -2.746252   -4.177913    0.295676
     48          6           0       -3.713022   -3.034800    0.481410
     49          6           0       -4.981405   -2.978900   -0.001360
     50          6           0       -5.573193   -4.017137   -0.939114
     51          6           0       -5.703833   -1.625801    0.009707
     52          6           0       -7.018236   -1.663196    0.823480
     53          6           0       -6.985806   -1.500376    2.356628
     54          6           0       -8.390710   -1.146574    2.921514
     55          6           0       -8.551975   -1.551214    4.378247
     56          6           0       -8.731043    0.395497    2.877788
     57          6           0       -9.735121    0.860745    1.814165
     58          6           0       -9.175622    1.836072    0.719794
     59          6           0       -9.592346    1.482847   -0.731466
     60          6           0       -8.376339    1.492894   -1.662189
     61          6           0      -10.645380    2.470568   -1.286014
     62          6           0      -12.032162    2.218738   -0.677875
     63          6           0      -12.902704    1.427703   -1.594850
     64          6           0      -14.162632    2.233014   -2.106754
     65          6           0      -15.211379    2.161947   -0.979587
     66          6           0      -14.735114    1.772203   -3.480465
     67          1           0        0.398608    1.344470    0.047732
     68          1           0        5.386336    5.497516    0.147826
     69          1           0        9.419325    0.571638   -0.477097
     70          1           0        1.920219   -3.239435   -0.688208
     71          1           0        0.367837   -1.014017    0.678905
     72          1           0        0.452999   -0.732617   -2.290874
     73          1           0       -0.964520   -1.252378   -1.321650
     74          1           0        0.158769   -2.405141   -1.929260
     75          1           0        1.850527   -2.208973    2.174505
     76          1           0        2.705620   -3.633768    1.732062
     77          1           0       -0.026922   -3.269638    2.711757
     78          1           0        0.921037   -4.748711    2.535366
     79          1           0       -0.360730    4.724821    0.057549
     80          1           0       -0.068212    4.292549    1.721215
     81          1           0       -0.506549    3.068234    0.555256
     82          1           0        0.594445    6.714209    1.377028
     83          1           0        0.881394    6.799954   -0.515793
     84          1           0        1.427848    7.981951    0.591602
     85          1           0        8.033527    5.180305    0.239256
     86          1           0        9.639489    3.025989   -0.848989
     87          1           0        8.344116    5.876388   -1.820511
     88          1           0        6.840245    5.025075   -2.308493
     89          1           0        8.406614    4.285596   -2.608731
     90          1           0        9.184506    2.115134    1.628485
     91          1           0        8.746893    3.778107    1.826442
     92          1           0       10.964879    4.351670    2.153986
     93          1           0       11.328076    3.933458    0.507249
     94          1           0       11.593131    2.758079    1.682202
     95          1           0       10.108680   -1.497800   -0.290793
     96          1           0        9.731009   -2.872805   -1.384579
     97          1           0        9.727189   -3.052537    0.319058
     98          1           0        4.514667   -4.348569    0.847728
     99          1           0        3.293845   -7.130530   -2.513734
    100          1           0        2.097654   -5.870666   -2.468561
    101          1           0        2.128334   -7.132357   -1.272546
    102          1           0       -3.153360   -5.187059    0.350082
    103          1           0       -2.413529   -4.150108   -0.741777
    104          1           0       -3.278153   -2.145711    0.936777
    105          1           0       -5.594727   -4.916607   -0.323505
    106          1           0       -4.811294   -4.099249   -1.713905
    107          1           0       -6.565631   -3.764583   -1.312307
    108          1           0       -6.064074   -1.441991   -1.002647
    109          1           0       -5.062042   -0.814651    0.354222
    110          1           0       -7.319127   -2.693878    0.640155
    111          1           0       -7.727207   -0.911745    0.475925
    112          1           0       -6.269325   -0.715037    2.599437
    113          1           0       -6.610526   -2.421576    2.802307
    114          1           0       -9.208950   -1.597675    2.360304
    115          1           0       -9.384844   -1.068712    4.888433
    116          1           0       -7.693735   -1.156860    4.921544
    117          1           0       -8.651062   -2.634940    4.447482
    118          1           0       -7.867347    1.060367    2.845973
    119          1           0       -9.145359    0.773409    3.812524
    120          1           0      -10.664416    1.262139    2.219887
    121          1           0      -10.056814   -0.034840    1.280836
    122          1           0       -8.087966    1.860216    0.795583
    123          1           0       -9.602176    2.785733    1.041174
    124          1           0       -9.919944    0.460882   -0.922773
    125          1           0       -8.079758    2.532883   -1.799563
    126          1           0       -8.579295    0.979648   -2.602571
    127          1           0       -7.541019    0.960655   -1.208444
    128          1           0      -10.718400    2.468620   -2.373082
    129          1           0      -10.494175    3.502145   -0.967311
    130          1           0      -12.394376    3.153430   -0.249865
    131          1           0      -11.884503    1.570398    0.185244
    132          1           0      -13.301923    0.556038   -1.074909
    133          1           0      -12.378570    1.150927   -2.510078
    134          1           0      -13.952246    3.289230   -2.275255
    135          1           0      -16.120741    1.676126   -1.334711
    136          1           0      -15.457156    3.191869   -0.716643
    137          1           0      -14.890131    1.717809   -0.037280
    138          1           0      -15.508657    1.009205   -3.395809
    139          1           0      -13.953620    1.386732   -4.135477
    140          1           0      -15.207969    2.616776   -3.982779
 ---------------------------------------------------------------------

 SCF Done:  E(RPBE1PBE) =  -3005.37284511     A.U. after   15 cycles

 Excitation energies and oscillator strengths:

 Excited State   1:      Singlet-A      1.8440 eV  672.35 nm  f=0.3840  <S**2>=0.000
     245 -> 248        0.14699
     246 -> 247        0.69724
     246 <- 247       -0.11534
 This state for optimization and/or second-order correction.
 Total Energy, E(TD-HF/TD-DFT) =  -3005.30507771
 Copying the excited state density for this state as the 1-particle RhoCI density.

 Excited State   2:      Singlet-A      2.2164 eV  559.38 nm  f=0.1622  <S**2>=0.000
     245 -> 247        0.66694
     246 -> 248       -0.20012

 Excited State   3:      Singlet-A      2.8590 eV  433.66 nm  f=0.0019  <S**2>=0.000
     242 -> 247        0.14007
     243 -> 247        0.18926
     244 -> 247        0.65265

 Excited State   4:      Singlet-A      2.9509 eV  420.16 nm  f=0.0034  <S**2>=0.000
     242 -> 247        0.38874
     243 -> 247        0.51924
     244 -> 247       -0.24267

 Excited State   5:      Singlet-A      3.1127 eV  398.32 nm  f=0.0002  <S**2>=0.000
     240 -> 247        0.47909
     240 -> 248        0.10415
     240 -> 249       -0.12000
     241 -> 247        0.46622
     241 -> 249       -0.11073

 The electronic state is 1-A.
 Alpha  occ. eigenvalues --  -46.91638 -19.26271 -19.25800 -19.20453 -19.19466
 Alpha  occ. eigenvalues --  -19.19116 -19.19032 -14.40833 -14.40815 -14.39812
 Alpha  occ. eigenvalues --  -14.38526 -10.36440 -10.35146 -10.32652 -10.31732
 Alpha  occ. eigenvalues --  -10.30466 -10.29081 -10.28458 -10.28274 -10.28231
 Alpha  occ. eigenvalues --  -10.28221 -10.27813 -10.27751 -10.27294 -10.27073
 Alpha  occ. eigenvalues --  -10.26266 -10.26185 -10.25985 -10.25819 -10.25751
 Alpha  occ. eigenvalues --  -10.25684 -10.25661 -10.25433 -10.25387 -10.25271
 Alpha  occ. eigenvalues --  -10.24964 -10.24915 -10.24891 -10.24473 -10.24410
 Alpha  occ. eigenvalues --  -10.24072 -10.23935 -10.23902 -10.23675 -10.23671
 Alpha  occ. eigenvalues --  -10.23579 -10.23538 -10.23445 -10.23322 -10.23272
 Alpha  occ. eigenvalues --  -10.23212 -10.23166 -10.23072 -10.22918 -10.22916
 Alpha  occ. eigenvalues --  -10.22776 -10.22510 -10.22425 -10.22377 -10.22062
 Alpha  occ. eigenvalues --  -10.22038 -10.21861 -10.21841 -10.21827 -10.21678
 Alpha  occ. eigenvalues --  -10.21516  -3.13943  -1.86718  -1.86339  -1.86176
 Alpha  occ. eigenvalues --   -1.11898  -1.11864  -1.06086  -1.03862  -1.03650
 Alpha  occ. eigenvalues --   -1.02521  -0.98295  -0.97395  -0.96889  -0.95953
 Alpha  occ. eigenvalues --   -0.86431  -0.85299  -0.84420  -0.83387  -0.83066
 Alpha  occ. eigenvalues --   -0.83008  -0.82237  -0.81782  -0.81597  -0.81115
 Alpha  occ. eigenvalues --   -0.80810  -0.79998  -0.78758  -0.77665  -0.77413
 Alpha  occ. eigenvalues --   -0.77079  -0.76012  -0.75883  -0.75249  -0.75015
 Alpha  occ. eigenvalues --   -0.74755  -0.72533  -0.72455  -0.71229  -0.70782
 Alpha  occ. eigenvalues --   -0.70411  -0.69563  -0.69554  -0.68914  -0.68364
 Alpha  occ. eigenvalues --   -0.68194  -0.67556  -0.66061  -0.65264  -0.63244
 Alpha  occ. eigenvalues --   -0.62746  -0.61831  -0.61561  -0.60708  -0.60138
 Alpha  occ. eigenvalues --   -0.59602  -0.59497  -0.59074  -0.58693  -0.58596
 Alpha  occ. eigenvalues --   -0.58590  -0.57811  -0.56400  -0.56383  -0.54719
 Alpha  occ. eigenvalues --   -0.54311  -0.53775  -0.53573  -0.52673  -0.52527
 Alpha  occ. eigenvalues --   -0.51999  -0.51162  -0.50815  -0.50757  -0.49975
 Alpha  occ. eigenvalues --   -0.49737  -0.49603  -0.49311  -0.48807  -0.48672
 Alpha  occ. eigenvalues --   -0.48239  -0.47698  -0.47606  -0.47514  -0.47469
 Alpha  occ. eigenvalues --   -0.46986  -0.46736  -0.46515  -0.46485  -0.46414
 Alpha  occ. eigenvalues --   -0.46336  -0.45948  -0.45694  -0.45452  -0.45347
 Alpha  occ. eigenvalues --   -0.45228  -0.44933  -0.44511  -0.44433  -0.44296
 Alpha  occ. eigenvalues --   -0.44033  -0.43749  -0.43725  -0.43374  -0.43279
 Alpha  occ. eigenvalues --   -0.43058  -0.42914  -0.42583  -0.42532  -0.42304
 Alpha  occ. eigenvalues --   -0.42111  -0.41591  -0.41503  -0.41261  -0.41244
 Alpha  occ. eigenvalues --   -0.40972  -0.40871  -0.40833  -0.40814  -0.40722
 Alpha  occ. eigenvalues --   -0.40512  -0.40486  -0.40204  -0.40040  -0.39631
 Alpha  occ. eigenvalues --   -0.39503  -0.39292  -0.38991  -0.38974  -0.38873
 Alpha  occ. eigenvalues --   -0.38728  -0.38587  -0.38422  -0.38345  -0.38023
 Alpha  occ. eigenvalues --   -0.37694  -0.37642  -0.37533  -0.37266  -0.37166
 Alpha  occ. eigenvalues --   -0.36833  -0.36528  -0.36517  -0.36055  -0.35874
 Alpha  occ. eigenvalues --   -0.35819  -0.35307  -0.35243  -0.34974  -0.34913
 Alpha  occ. eigenvalues --   -0.34510  -0.34375  -0.34100  -0.33838  -0.33745
 Alpha  occ. eigenvalues --   -0.33498  -0.33240  -0.33116  -0.32968  -0.32929
 Alpha  occ. eigenvalues --   -0.32568  -0.32204  -0.32102  -0.31608  -0.31441
 Alpha  occ. eigenvalues --   -0.31198  -0.30754  -0.30007  -0.29341  -0.29254
 Alpha  occ. eigenvalues --   -0.29181  -0.28906  -0.28419  -0.27183  -0.26130
 Alpha  occ. eigenvalues --   -0.26048  -0.25420  -0.25406  -0.25031  -0.20984
 Alpha  occ. eigenvalues --   -0.19004
 Alpha virt. eigenvalues --   -0.11496  -0.04833  -0.03610  -0.01605  -0.01183
 Alpha virt. eigenvalues --    0.00032   0.00386   0.01349   0.02159   0.03421
 Alpha virt. eigenvalues --    0.04267   0.04864   0.05218   0.05309   0.05984

 Mulliken charges:
               1
     1  Mg   0.974596
     2  C    0.004740
     3  C   -0.049469
     4  C   -0.043538
     5  C   -0.096908
     6  N   -0.324948
     7  C   -0.021685
     8  C   -0.088765
     9  C   -0.087678
    10  C    0.011442
    11  C    0.023521
    12  C    0.008393
    13  C    0.016607
    14  C    0.186473
    15  O   -0.250622
    16  O   -0.370632
    17  N   -0.479937
    18  C    0.184201
    19  C   -0.153451
    20  C   -0.083126
    21  C    0.142978
    22  C    0.049401
    23  C    0.049531
    24  O   -0.252906
    25  C   -0.032035
    26  N   -0.464860
    27  C    0.075392
    28  C   -0.100429
    29  C   -0.133970
    30  C    0.145368
    31  C    0.030560
    32  C   -0.012484
    33  C   -0.066899
    34  N   -0.533839
    35  C    0.140649
    36  C   -0.170409
    37  C   -0.057935
    38  C    0.191988
    39  C    0.076480
    40  C    0.124071
    41  O   -0.181141
    42  C   -0.139468
    43  C    0.272743
    44  O   -0.239753
    45  O   -0.337510
    46  C    0.119167
    47  C    0.233115
    48  C   -0.135815
    49  C   -0.226221
    50  C    0.017500
    51  C    0.038870
    52  C   -0.105897
    53  C    0.044512
    54  C   -0.196036
    55  C   -0.015879
    56  C    0.006858
    57  C   -0.100293
    58  C    0.022781
    59  C   -0.211509
    60  C   -0.029708
    61  C   -0.011002
    62  C   -0.031456
    63  C   -0.006551
    64  C   -0.249518
    65  C   -0.016195
    66  C   -0.022097
    67  H   -0.007614
    68  H    0.027450
    69  H    0.007755
    70  H    0.077253
    71  H    0.031057
    72  H    0.051826
    73  H    0.040973
    74  H    0.052039
    75  H    0.032934
    76  H    0.042971
    77  H    0.052534
    78  H    0.072177
    79  H    0.056047
    80  H    0.054828
    81  H    0.041458
    82  H    0.068540
    83  H    0.074325
    84  H    0.043355
    85  H    0.043482
    86  H    0.034630
    87  H    0.044641
    88  H    0.057893
    89  H    0.044596
    90  H    0.044335
    91  H    0.034314
    92  H    0.046085
    93  H    0.030684
    94  H    0.045787
    95  H    0.024323
    96  H    0.062768
    97  H    0.055303
    98  H    0.087116
    99  H    0.057904
   100  H    0.068584
   101  H    0.050859
   102  H    0.050519
   103  H    0.059382
   104  H    0.031420
   105  H    0.060303
   106  H    0.063335
   107  H    0.055974
   108  H    0.037847
   109  H    0.022845
   110  H    0.028748
   111  H    0.049080
   112  H    0.018173
   113  H    0.026506
   114  H    0.034096
   115  H    0.032999
   116  H    0.030621
   117  H    0.038683
   118  H    0.012872
   119  H    0.013272
   120  H    0.039884
   121  H    0.022957
   122  H    0.026315
   123  H    0.031906
   124  H    0.032852
   125  H    0.032273
   126  H    0.035353
   127  H    0.027689
   128  H    0.024848
   129  H    0.017793
   130  H    0.024485
   131  H    0.021116
   132  H    0.032119
   133  H    0.020415
   134  H    0.035077
   135  H    0.033171
   136  H    0.027593
   137  H    0.036301
   138  H    0.032107
   139  H    0.031367
   140  H    0.035130
 Sum of Mulliken charges =  -0.00000

 Dipole moment (field-independent basis, Debye):
    X=             -5.2395    Y=              1.7555    Z=              2.4400  Tot=              6.0405
 Quadrupole moment (field-independent basis, Debye-Ang):
   XX=           -383.5997   YY=           -427.7417   ZZ=           -405.7570
   XY=             24.0531   XZ=             12.9406   YZ=             -3.5404

 Normal termination of Gaussian 16 at Sun May  1 00:34:08 2022.
