 Gaussian 16, Revision A.03,
 Gaussian 16:  ES64L-G16RevA.03 25-Dec-2016

 --------------------------------
 #p wB97XD/Def2SVP td=(nstates=5)
 --------------------------------

 ----------------------------------------------------
 step_951_chromophore_24 TDDFT with wB97XD functional
 ----------------------------------------------------
 Symbolic Z-matrix:
 Charge =  0 Multiplicity = 1

                         Standard orientation:
 ---------------------------------------------------------------------
 Center     Atomic      Atomic             Coordinates (Angstroms)
 Number     Number       Type             X           Y           Z
 ---------------------------------------------------------------------
      1         12           0        4.991716    1.091583    0.093589
      2          6           0        4.504856   -2.372406   -0.180619
      3          6           0        1.488670    1.293797    0.009072
      4          6           0        5.272757    4.428038   -0.040870
      5          6           0        8.338815    0.672823   -0.358848
      6          7           0        3.139348   -0.419910   -0.442737
      7          6           0        3.263024   -1.771239   -0.186875
      8          6           0        1.898861   -2.438407    0.050801
      9          6           0        0.958857   -1.189838   -0.219943
     10          6           0        1.875867    0.019622   -0.188764
     11          6           0        0.098885   -1.401282   -1.507072
     12          6           0        1.806183   -3.063832    1.500576
     13          6           0        0.570109   -3.857383    2.014164
     14          6           0       -0.410527   -4.354721    1.001439
     15          8           0       -0.104961   -5.046348    0.071654
     16          8           0       -1.693369   -4.004296    1.328110
     17          7           0        3.568077    2.638451   -0.037440
     18          6           0        2.180604    2.501533    0.105295
     19          6           0        1.615005    3.832323    0.433957
     20          6           0        2.661294    4.787882    0.359746
     21          6           0        3.910469    3.964452    0.059208
     22          6           0        0.095633    3.966404    0.694363
     23          6           0        2.589165    6.284995    0.593149
     24          8           0        3.571067    7.034343    0.767618
     25          6           0        1.226385    6.913189    0.511330
     26          7           0        6.513634    2.352922   -0.336946
     27          6           0        6.445911    3.746668   -0.169921
     28          6           0        7.848654    4.361003   -0.455202
     29          6           0        8.791643    3.108909   -0.167351
     30          6           0        7.814033    1.923453   -0.314824
     31          6           0        7.848726    4.909888   -1.911489
     32          6           0        9.369437    3.112666    1.228862
     33          6           0       10.885287    3.545354    1.424253
     34          7           0        6.215976   -0.454839   -0.180079
     35          6           0        7.589589   -0.557927   -0.379965
     36          6           0        8.063386   -1.880056   -0.448999
     37          6           0        6.847958   -2.608807   -0.390255
     38          6           0        5.788127   -1.759527   -0.185877
     39          6           0        9.454415   -2.351177   -0.468926
     40          6           0        6.315302   -3.996443   -0.304722
     41          8           0        6.920861   -5.016463   -0.189001
     42          6           0        4.753333   -3.906605   -0.119244
     43          6           0        4.174108   -4.673842   -1.267853
     44          8           0        4.193376   -4.368079   -2.427739
     45          8           0        3.609907   -5.772616   -0.776680
     46          6           0        2.769183   -6.454641   -1.838488
     47          6           0       -2.746252   -4.177913    0.295676
     48          6           0       -3.713022   -3.034800    0.481410
     49          6           0       -4.981405   -2.978900   -0.001360
     50          6           0       -5.573193   -4.017137   -0.939114
     51          6           0       -5.703833   -1.625801    0.009707
     52          6           0       -7.018236   -1.663196    0.823480
     53          6           0       -6.985806   -1.500376    2.356628
     54          6           0       -8.390710   -1.146574    2.921514
     55          6           0       -8.551975   -1.551214    4.378247
     56          6           0       -8.731043    0.395497    2.877788
     57          6           0       -9.735121    0.860745    1.814165
     58          6           0       -9.175622    1.836072    0.719794
     59          6           0       -9.592346    1.482847   -0.731466
     60          6           0       -8.376339    1.492894   -1.662189
     61          6           0      -10.645380    2.470568   -1.286014
     62          6           0      -12.032162    2.218738   -0.677875
     63          6           0      -12.902704    1.427703   -1.594850
     64          6           0      -14.162632    2.233014   -2.106754
     65          6           0      -15.211379    2.161947   -0.979587
     66          6           0      -14.735114    1.772203   -3.480465
     67          1           0        0.398608    1.344470    0.047732
     68          1           0        5.386336    5.497516    0.147826
     69          1           0        9.419325    0.571638   -0.477097
     70          1           0        1.920219   -3.239435   -0.688208
     71          1           0        0.367837   -1.014017    0.678905
     72          1           0        0.452999   -0.732617   -2.290874
     73          1           0       -0.964520   -1.252378   -1.321650
     74          1           0        0.158769   -2.405141   -1.929260
     75          1           0        1.850527   -2.208973    2.174505
     76          1           0        2.705620   -3.633768    1.732062
     77          1           0       -0.026922   -3.269638    2.711757
     78          1           0        0.921037   -4.748711    2.535366
     79          1           0       -0.360730    4.724821    0.057549
     80          1           0       -0.068212    4.292549    1.721215
     81          1           0       -0.506549    3.068234    0.555256
     82          1           0        0.594445    6.714209    1.377028
     83          1           0        0.881394    6.799954   -0.515793
     84          1           0        1.427848    7.981951    0.591602
     85          1           0        8.033527    5.180305    0.239256
     86          1           0        9.639489    3.025989   -0.848989
     87          1           0        8.344116    5.876388   -1.820511
     88          1           0        6.840245    5.025075   -2.308493
     89          1           0        8.406614    4.285596   -2.608731
     90          1           0        9.184506    2.115134    1.628485
     91          1           0        8.746893    3.778107    1.826442
     92          1           0       10.964879    4.351670    2.153986
     93          1           0       11.328076    3.933458    0.507249
     94          1           0       11.593131    2.758079    1.682202
     95          1           0       10.108680   -1.497800   -0.290793
     96          1           0        9.731009   -2.872805   -1.384579
     97          1           0        9.727189   -3.052537    0.319058
     98          1           0        4.514667   -4.348569    0.847728
     99          1           0        3.293845   -7.130530   -2.513734
    100          1           0        2.097654   -5.870666   -2.468561
    101          1           0        2.128334   -7.132357   -1.272546
    102          1           0       -3.153360   -5.187059    0.350082
    103          1           0       -2.413529   -4.150108   -0.741777
    104          1           0       -3.278153   -2.145711    0.936777
    105          1           0       -5.594727   -4.916607   -0.323505
    106          1           0       -4.811294   -4.099249   -1.713905
    107          1           0       -6.565631   -3.764583   -1.312307
    108          1           0       -6.064074   -1.441991   -1.002647
    109          1           0       -5.062042   -0.814651    0.354222
    110          1           0       -7.319127   -2.693878    0.640155
    111          1           0       -7.727207   -0.911745    0.475925
    112          1           0       -6.269325   -0.715037    2.599437
    113          1           0       -6.610526   -2.421576    2.802307
    114          1           0       -9.208950   -1.597675    2.360304
    115          1           0       -9.384844   -1.068712    4.888433
    116          1           0       -7.693735   -1.156860    4.921544
    117          1           0       -8.651062   -2.634940    4.447482
    118          1           0       -7.867347    1.060367    2.845973
    119          1           0       -9.145359    0.773409    3.812524
    120          1           0      -10.664416    1.262139    2.219887
    121          1           0      -10.056814   -0.034840    1.280836
    122          1           0       -8.087966    1.860216    0.795583
    123          1           0       -9.602176    2.785733    1.041174
    124          1           0       -9.919944    0.460882   -0.922773
    125          1           0       -8.079758    2.532883   -1.799563
    126          1           0       -8.579295    0.979648   -2.602571
    127          1           0       -7.541019    0.960655   -1.208444
    128          1           0      -10.718400    2.468620   -2.373082
    129          1           0      -10.494175    3.502145   -0.967311
    130          1           0      -12.394376    3.153430   -0.249865
    131          1           0      -11.884503    1.570398    0.185244
    132          1           0      -13.301923    0.556038   -1.074909
    133          1           0      -12.378570    1.150927   -2.510078
    134          1           0      -13.952246    3.289230   -2.275255
    135          1           0      -16.120741    1.676126   -1.334711
    136          1           0      -15.457156    3.191869   -0.716643
    137          1           0      -14.890131    1.717809   -0.037280
    138          1           0      -15.508657    1.009205   -3.395809
    139          1           0      -13.953620    1.386732   -4.135477
    140          1           0      -15.207969    2.616776   -3.982779
 ---------------------------------------------------------------------

 SCF Done:  E(RwB97XD) =  -3007.88539844     A.U. after   17 cycles

 Excitation energies and oscillator strengths:

 Excited State   1:      Singlet-A      1.6269 eV  762.11 nm  f=0.3976  <S**2>=0.000
     245 -> 248        0.16601
     246 -> 247        0.68723
     245 <- 248        0.10999
 This state for optimization and/or second-order correction.
 Total Energy, E(TD-HF/TD-DFT) =  -3007.82561236
 Copying the excited state density for this state as the 1-particle RhoCI density.

 Excited State   2:      Singlet-A      2.1560 eV  575.06 nm  f=0.1721  <S**2>=0.000
     245 -> 247        0.65769
     246 -> 248       -0.23394

 Excited State   3:      Singlet-A      3.2564 eV  380.74 nm  f=0.0038  <S**2>=0.000
     241 -> 247       -0.12096
     242 -> 247        0.12094
     244 -> 247        0.66747

 Excited State   4:      Singlet-A      3.5113 eV  353.10 nm  f=0.0111  <S**2>=0.000
     242 -> 247        0.59145
     242 -> 249       -0.18926
     242 -> 251       -0.23699
     244 -> 247       -0.11548

 Excited State   5:      Singlet-A      3.5536 eV  348.90 nm  f=0.0159  <S**2>=0.000
     239 -> 247        0.12519
     241 -> 247        0.61787
     246 -> 248        0.26040

 The electronic state is 1-A.
 Alpha  occ. eigenvalues --  -46.94557 -19.30830 -19.30364 -19.25143 -19.24414
 Alpha  occ. eigenvalues --  -19.23838 -19.23741 -14.46121 -14.45692 -14.44848
 Alpha  occ. eigenvalues --  -14.43331 -10.43235 -10.41974 -10.39632 -10.38462
 Alpha  occ. eigenvalues --  -10.36980 -10.35659 -10.34842 -10.34742 -10.34731
 Alpha  occ. eigenvalues --  -10.34465 -10.34197 -10.34045 -10.33918 -10.33172
 Alpha  occ. eigenvalues --  -10.32538 -10.32370 -10.32313 -10.32307 -10.32170
 Alpha  occ. eigenvalues --  -10.32049 -10.31847 -10.31789 -10.31768 -10.31688
 Alpha  occ. eigenvalues --  -10.31663 -10.31096 -10.31039 -10.31009 -10.30943
 Alpha  occ. eigenvalues --  -10.30493 -10.30318 -10.30242 -10.29996 -10.29983
 Alpha  occ. eigenvalues --  -10.29959 -10.29794 -10.29772 -10.29749 -10.29611
 Alpha  occ. eigenvalues --  -10.29604 -10.29464 -10.29388 -10.29341 -10.29257
 Alpha  occ. eigenvalues --  -10.29169 -10.28818 -10.28752 -10.28689 -10.28446
 Alpha  occ. eigenvalues --  -10.28422 -10.28304 -10.28301 -10.28293 -10.28076
 Alpha  occ. eigenvalues --  -10.27951  -3.20724  -1.94249  -1.93868  -1.93701
 Alpha  occ. eigenvalues --   -1.19279  -1.19247  -1.13449  -1.11282  -1.11205
 Alpha  occ. eigenvalues --   -1.09877  -1.05629  -1.04788  -1.04307  -1.03364
 Alpha  occ. eigenvalues --   -0.94018  -0.93009  -0.92112  -0.91068  -0.90738
 Alpha  occ. eigenvalues --   -0.90633  -0.89826  -0.89345  -0.89282  -0.88885
 Alpha  occ. eigenvalues --   -0.88302  -0.87667  -0.86447  -0.85320  -0.84984
 Alpha  occ. eigenvalues --   -0.84761  -0.83743  -0.83613  -0.82914  -0.82615
 Alpha  occ. eigenvalues --   -0.82414  -0.80351  -0.80071  -0.78790  -0.78484
 Alpha  occ. eigenvalues --   -0.78013  -0.77276  -0.77142  -0.76619  -0.75995
 Alpha  occ. eigenvalues --   -0.75868  -0.75064  -0.73668  -0.72839  -0.70796
 Alpha  occ. eigenvalues --   -0.70288  -0.69494  -0.69095  -0.68360  -0.67715
 Alpha  occ. eigenvalues --   -0.67182  -0.67022  -0.66514  -0.66326  -0.66167
 Alpha  occ. eigenvalues --   -0.65986  -0.65494  -0.64057  -0.63759  -0.62276
 Alpha  occ. eigenvalues --   -0.61839  -0.61190  -0.60918  -0.60093  -0.59937
 Alpha  occ. eigenvalues --   -0.59437  -0.58623  -0.58328  -0.58191  -0.57432
 Alpha  occ. eigenvalues --   -0.57199  -0.57117  -0.56746  -0.56238  -0.56053
 Alpha  occ. eigenvalues --   -0.55635  -0.55225  -0.55124  -0.55042  -0.54757
 Alpha  occ. eigenvalues --   -0.54277  -0.54125  -0.53917  -0.53901  -0.53722
 Alpha  occ. eigenvalues --   -0.53646  -0.53367  -0.53058  -0.52812  -0.52648
 Alpha  occ. eigenvalues --   -0.52607  -0.52180  -0.52055  -0.51787  -0.51632
 Alpha  occ. eigenvalues --   -0.51357  -0.51106  -0.50941  -0.50668  -0.50563
 Alpha  occ. eigenvalues --   -0.50423  -0.50239  -0.49926  -0.49855  -0.49551
 Alpha  occ. eigenvalues --   -0.49360  -0.48927  -0.48788  -0.48533  -0.48405
 Alpha  occ. eigenvalues --   -0.48250  -0.48079  -0.48025  -0.47993  -0.47931
 Alpha  occ. eigenvalues --   -0.47691  -0.47644  -0.47377  -0.47169  -0.46834
 Alpha  occ. eigenvalues --   -0.46750  -0.46445  -0.46213  -0.46054  -0.46032
 Alpha  occ. eigenvalues --   -0.45802  -0.45735  -0.45541  -0.45473  -0.45157
 Alpha  occ. eigenvalues --   -0.44813  -0.44796  -0.44724  -0.44541  -0.44387
 Alpha  occ. eigenvalues --   -0.44033  -0.43685  -0.43608  -0.43040  -0.43035
 Alpha  occ. eigenvalues --   -0.42788  -0.42454  -0.42238  -0.42003  -0.41985
 Alpha  occ. eigenvalues --   -0.41417  -0.41388  -0.41167  -0.40869  -0.40769
 Alpha  occ. eigenvalues --   -0.40570  -0.40249  -0.40034  -0.40021  -0.39868
 Alpha  occ. eigenvalues --   -0.39626  -0.39252  -0.39157  -0.38704  -0.38485
 Alpha  occ. eigenvalues --   -0.38244  -0.37601  -0.36946  -0.36390  -0.36137
 Alpha  occ. eigenvalues --   -0.36095  -0.35953  -0.35124  -0.33813  -0.33419
 Alpha  occ. eigenvalues --   -0.32780  -0.32277  -0.32177  -0.31506  -0.25964
 Alpha  occ. eigenvalues --   -0.23226
 Alpha virt. eigenvalues --   -0.07450   0.00822   0.02516   0.04658   0.04988
 Alpha virt. eigenvalues --    0.06674   0.07213   0.08142   0.08981   0.10092
 Alpha virt. eigenvalues --    0.11023   0.11550   0.11771   0.11921   0.12710

 Mulliken charges:
               1
     1  Mg   0.965063
     2  C    0.004142
     3  C   -0.056539
     4  C   -0.062290
     5  C   -0.122144
     6  N   -0.290756
     7  C   -0.057758
     8  C   -0.052344
     9  C   -0.059887
    10  C   -0.006864
    11  C    0.031622
    12  C    0.019827
    13  C    0.033488
    14  C    0.170591
    15  O   -0.246654
    16  O   -0.368504
    17  N   -0.450560
    18  C    0.175509
    19  C   -0.142966
    20  C   -0.077777
    21  C    0.136634
    22  C    0.060392
    23  C    0.046642
    24  O   -0.246119
    25  C   -0.021329
    26  N   -0.439328
    27  C    0.069684
    28  C   -0.075041
    29  C   -0.106680
    30  C    0.141684
    31  C    0.038007
    32  C   -0.002796
    33  C   -0.050396
    34  N   -0.500112
    35  C    0.135737
    36  C   -0.170013
    37  C   -0.051249
    38  C    0.173501
    39  C    0.088266
    40  C    0.102460
    41  O   -0.173167
    42  C   -0.096228
    43  C    0.246742
    44  O   -0.234334
    45  O   -0.335889
    46  C    0.135312
    47  C    0.244305
    48  C   -0.142427
    49  C   -0.214544
    50  C    0.030620
    51  C    0.057614
    52  C   -0.069312
    53  C    0.052916
    54  C   -0.161621
    55  C   -0.001601
    56  C    0.014626
    57  C   -0.078534
    58  C    0.034174
    59  C   -0.177929
    60  C   -0.011741
    61  C    0.003953
    62  C   -0.015898
    63  C    0.015503
    64  C   -0.222838
    65  C   -0.006776
    66  C   -0.009382
    67  H   -0.015684
    68  H    0.022236
    69  H    0.000766
    70  H    0.058879
    71  H    0.018721
    72  H    0.046761
    73  H    0.035741
    74  H    0.047559
    75  H    0.023362
    76  H    0.031757
    77  H    0.047437
    78  H    0.067850
    79  H    0.051230
    80  H    0.050534
    81  H    0.039082
    82  H    0.064867
    83  H    0.070087
    84  H    0.041891
    85  H    0.034473
    86  H    0.024220
    87  H    0.039430
    88  H    0.051151
    89  H    0.039653
    90  H    0.034822
    91  H    0.024654
    92  H    0.040262
    93  H    0.023526
    94  H    0.040325
    95  H    0.017116
    96  H    0.057389
    97  H    0.049844
    98  H    0.081012
    99  H    0.054012
   100  H    0.064591
   101  H    0.048242
   102  H    0.046622
   103  H    0.053707
   104  H    0.027645
   105  H    0.053901
   106  H    0.057381
   107  H    0.052339
   108  H    0.029195
   109  H    0.015948
   110  H    0.015768
   111  H    0.023426
   112  H    0.008756
   113  H    0.018583
   114  H    0.021742
   115  H    0.026595
   116  H    0.022968
   117  H    0.033699
   118  H    0.003439
   119  H    0.005253
   120  H    0.033470
   121  H    0.008571
   122  H    0.015650
   123  H    0.023838
   124  H    0.019954
   125  H    0.025112
   126  H    0.030142
   127  H    0.016885
   128  H    0.015642
   129  H    0.009066
   130  H    0.018101
   131  H    0.004818
   132  H    0.023300
   133  H    0.008600
   134  H    0.023840
   135  H    0.027272
   136  H    0.021918
   137  H    0.029969
   138  H    0.025343
   139  H    0.025361
   140  H    0.029700
 Sum of Mulliken charges =  -0.00000

 Dipole moment (field-independent basis, Debye):
    X=             -5.8057    Y=              2.0192    Z=              2.5239  Tot=              6.6448
 Quadrupole moment (field-independent basis, Debye-Ang):
   XX=           -388.5407   YY=           -425.9716   ZZ=           -405.3193
   XY=             24.0761   XZ=             13.3998   YZ=             -3.3605

 Normal termination of Gaussian 16 at Sun May  1 00:59:47 2022.
