 Gaussian 16, Revision A.03,
 Gaussian 16:  ES64L-G16RevA.03 25-Dec-2016

 --------------------
 #p ZINDO=(nstates=5)
 --------------------

 -----------------------------
 step_951_chromophore_24 ZINDO
 -----------------------------
 Symbolic Z-matrix:
 Charge =  0 Multiplicity = 1

                         Standard orientation:
 ---------------------------------------------------------------------
 Center     Atomic      Atomic             Coordinates (Angstroms)
 Number     Number       Type             X           Y           Z
 ---------------------------------------------------------------------
      1         12           0        4.991716    1.091583    0.093589
      2          6           0        4.504856   -2.372406   -0.180619
      3          6           0        1.488670    1.293797    0.009072
      4          6           0        5.272757    4.428038   -0.040870
      5          6           0        8.338815    0.672823   -0.358848
      6          7           0        3.139348   -0.419910   -0.442737
      7          6           0        3.263024   -1.771239   -0.186875
      8          6           0        1.898861   -2.438407    0.050801
      9          6           0        0.958857   -1.189838   -0.219943
     10          6           0        1.875867    0.019622   -0.188764
     11          6           0        0.098885   -1.401282   -1.507072
     12          6           0        1.806183   -3.063832    1.500576
     13          6           0        0.570109   -3.857383    2.014164
     14          6           0       -0.410527   -4.354721    1.001439
     15          8           0       -0.104961   -5.046348    0.071654
     16          8           0       -1.693369   -4.004296    1.328110
     17          7           0        3.568077    2.638451   -0.037440
     18          6           0        2.180604    2.501533    0.105295
     19          6           0        1.615005    3.832323    0.433957
     20          6           0        2.661294    4.787882    0.359746
     21          6           0        3.910469    3.964452    0.059208
     22          6           0        0.095633    3.966404    0.694363
     23          6           0        2.589165    6.284995    0.593149
     24          8           0        3.571067    7.034343    0.767618
     25          6           0        1.226385    6.913189    0.511330
     26          7           0        6.513634    2.352922   -0.336946
     27          6           0        6.445911    3.746668   -0.169921
     28          6           0        7.848654    4.361003   -0.455202
     29          6           0        8.791643    3.108909   -0.167351
     30          6           0        7.814033    1.923453   -0.314824
     31          6           0        7.848726    4.909888   -1.911489
     32          6           0        9.369437    3.112666    1.228862
     33          6           0       10.885287    3.545354    1.424253
     34          7           0        6.215976   -0.454839   -0.180079
     35          6           0        7.589589   -0.557927   -0.379965
     36          6           0        8.063386   -1.880056   -0.448999
     37          6           0        6.847958   -2.608807   -0.390255
     38          6           0        5.788127   -1.759527   -0.185877
     39          6           0        9.454415   -2.351177   -0.468926
     40          6           0        6.315302   -3.996443   -0.304722
     41          8           0        6.920861   -5.016463   -0.189001
     42          6           0        4.753333   -3.906605   -0.119244
     43          6           0        4.174108   -4.673842   -1.267853
     44          8           0        4.193376   -4.368079   -2.427739
     45          8           0        3.609907   -5.772616   -0.776680
     46          6           0        2.769183   -6.454641   -1.838488
     47          6           0       -2.746252   -4.177913    0.295676
     48          6           0       -3.713022   -3.034800    0.481410
     49          6           0       -4.981405   -2.978900   -0.001360
     50          6           0       -5.573193   -4.017137   -0.939114
     51          6           0       -5.703833   -1.625801    0.009707
     52          6           0       -7.018236   -1.663196    0.823480
     53          6           0       -6.985806   -1.500376    2.356628
     54          6           0       -8.390710   -1.146574    2.921514
     55          6           0       -8.551975   -1.551214    4.378247
     56          6           0       -8.731043    0.395497    2.877788
     57          6           0       -9.735121    0.860745    1.814165
     58          6           0       -9.175622    1.836072    0.719794
     59          6           0       -9.592346    1.482847   -0.731466
     60          6           0       -8.376339    1.492894   -1.662189
     61          6           0      -10.645380    2.470568   -1.286014
     62          6           0      -12.032162    2.218738   -0.677875
     63          6           0      -12.902704    1.427703   -1.594850
     64          6           0      -14.162632    2.233014   -2.106754
     65          6           0      -15.211379    2.161947   -0.979587
     66          6           0      -14.735114    1.772203   -3.480465
     67          1           0        0.398608    1.344470    0.047732
     68          1           0        5.386336    5.497516    0.147826
     69          1           0        9.419325    0.571638   -0.477097
     70          1           0        1.920219   -3.239435   -0.688208
     71          1           0        0.367837   -1.014017    0.678905
     72          1           0        0.452999   -0.732617   -2.290874
     73          1           0       -0.964520   -1.252378   -1.321650
     74          1           0        0.158769   -2.405141   -1.929260
     75          1           0        1.850527   -2.208973    2.174505
     76          1           0        2.705620   -3.633768    1.732062
     77          1           0       -0.026922   -3.269638    2.711757
     78          1           0        0.921037   -4.748711    2.535366
     79          1           0       -0.360730    4.724821    0.057549
     80          1           0       -0.068212    4.292549    1.721215
     81          1           0       -0.506549    3.068234    0.555256
     82          1           0        0.594445    6.714209    1.377028
     83          1           0        0.881394    6.799954   -0.515793
     84          1           0        1.427848    7.981951    0.591602
     85          1           0        8.033527    5.180305    0.239256
     86          1           0        9.639489    3.025989   -0.848989
     87          1           0        8.344116    5.876388   -1.820511
     88          1           0        6.840245    5.025075   -2.308493
     89          1           0        8.406614    4.285596   -2.608731
     90          1           0        9.184506    2.115134    1.628485
     91          1           0        8.746893    3.778107    1.826442
     92          1           0       10.964879    4.351670    2.153986
     93          1           0       11.328076    3.933458    0.507249
     94          1           0       11.593131    2.758079    1.682202
     95          1           0       10.108680   -1.497800   -0.290793
     96          1           0        9.731009   -2.872805   -1.384579
     97          1           0        9.727189   -3.052537    0.319058
     98          1           0        4.514667   -4.348569    0.847728
     99          1           0        3.293845   -7.130530   -2.513734
    100          1           0        2.097654   -5.870666   -2.468561
    101          1           0        2.128334   -7.132357   -1.272546
    102          1           0       -3.153360   -5.187059    0.350082
    103          1           0       -2.413529   -4.150108   -0.741777
    104          1           0       -3.278153   -2.145711    0.936777
    105          1           0       -5.594727   -4.916607   -0.323505
    106          1           0       -4.811294   -4.099249   -1.713905
    107          1           0       -6.565631   -3.764583   -1.312307
    108          1           0       -6.064074   -1.441991   -1.002647
    109          1           0       -5.062042   -0.814651    0.354222
    110          1           0       -7.319127   -2.693878    0.640155
    111          1           0       -7.727207   -0.911745    0.475925
    112          1           0       -6.269325   -0.715037    2.599437
    113          1           0       -6.610526   -2.421576    2.802307
    114          1           0       -9.208950   -1.597675    2.360304
    115          1           0       -9.384844   -1.068712    4.888433
    116          1           0       -7.693735   -1.156860    4.921544
    117          1           0       -8.651062   -2.634940    4.447482
    118          1           0       -7.867347    1.060367    2.845973
    119          1           0       -9.145359    0.773409    3.812524
    120          1           0      -10.664416    1.262139    2.219887
    121          1           0      -10.056814   -0.034840    1.280836
    122          1           0       -8.087966    1.860216    0.795583
    123          1           0       -9.602176    2.785733    1.041174
    124          1           0       -9.919944    0.460882   -0.922773
    125          1           0       -8.079758    2.532883   -1.799563
    126          1           0       -8.579295    0.979648   -2.602571
    127          1           0       -7.541019    0.960655   -1.208444
    128          1           0      -10.718400    2.468620   -2.373082
    129          1           0      -10.494175    3.502145   -0.967311
    130          1           0      -12.394376    3.153430   -0.249865
    131          1           0      -11.884503    1.570398    0.185244
    132          1           0      -13.301923    0.556038   -1.074909
    133          1           0      -12.378570    1.150927   -2.510078
    134          1           0      -13.952246    3.289230   -2.275255
    135          1           0      -16.120741    1.676126   -1.334711
    136          1           0      -15.457156    3.191869   -0.716643
    137          1           0      -14.890131    1.717809   -0.037280
    138          1           0      -15.508657    1.009205   -3.395809
    139          1           0      -13.953620    1.386732   -4.135477
    140          1           0      -15.207969    2.616776   -3.982779
 ---------------------------------------------------------------------

 SCF Done:  E(RZINDO/S) =  -474.325659573     A.U. after   19 cycles

 Excitation energies and oscillator strengths:

 Excited State   1:      Singlet-A      1.2132 eV 1021.98 nm  f=0.6154  <S**2>=0.000
     175 ->178         0.16627
     176 ->177         0.66718
 This state for optimization and/or second-order correction.
 Total Energy, E(CIS/TDA) =  -474.281076305
 Copying the excited state density for this state as the 1-particle RhoCI density.

 Excited State   2:      Singlet-A      1.8943 eV  654.52 nm  f=0.1200  <S**2>=0.000
     175 ->177         0.59469
     176 ->178        -0.33661

 Excited State   3:      Singlet-A      2.9943 eV  414.07 nm  f=0.1416  <S**2>=0.000
     168 ->177        -0.14833
     168 ->178         0.11452
     168 ->179         0.23486
     168 ->186         0.11631
     171 ->177         0.24876
     171 ->179         0.17281
     171 ->180         0.16239
     171 ->181        -0.26178
     171 ->186         0.14088
     171 ->188         0.15175
     174 ->177         0.10799
     175 ->177         0.12558
     176 ->178         0.24376

 Excited State   4:      Singlet-A      2.9994 eV  413.36 nm  f=0.0041  <S**2>=0.000
     167 ->179        -0.11128
     168 ->177         0.25079
     168 ->178        -0.19773
     168 ->179        -0.37828
     168 ->180         0.10702
     168 ->181        -0.12252
     168 ->186        -0.17785
     171 ->177         0.15216
     171 ->179         0.12601
     171 ->180         0.10833
     171 ->181        -0.17502
     171 ->186         0.10042
     171 ->188         0.10035
     174 ->177         0.10031

 Excited State   5:      Singlet-A      3.0179 eV  410.83 nm  f=0.5860  <S**2>=0.000
     171 ->181         0.12688
     174 ->177        -0.14845
     175 ->177         0.26770
     176 ->178         0.53225
     176 ->179         0.10721

 The electronic state is 1-A.
 Alpha  occ. eigenvalues --   -1.84086  -1.80021  -1.78693  -1.73587  -1.73154
 Alpha  occ. eigenvalues --   -1.69521  -1.66830  -1.61658  -1.58979  -1.57872
 Alpha  occ. eigenvalues --   -1.55409  -1.52630  -1.49552  -1.48125  -1.45457
 Alpha  occ. eigenvalues --   -1.43393  -1.42335  -1.39116  -1.38232  -1.38059
 Alpha  occ. eigenvalues --   -1.35191  -1.34787  -1.33357  -1.32780  -1.30786
 Alpha  occ. eigenvalues --   -1.28057  -1.24484  -1.22701  -1.21083  -1.18330
 Alpha  occ. eigenvalues --   -1.16854  -1.16086  -1.15305  -1.15245  -1.13650
 Alpha  occ. eigenvalues --   -1.13156  -1.12201  -1.09381  -1.05484  -1.04426
 Alpha  occ. eigenvalues --   -1.03954  -1.01553  -0.99185  -0.97748  -0.95823
 Alpha  occ. eigenvalues --   -0.95157  -0.94792  -0.94294  -0.93062  -0.92348
 Alpha  occ. eigenvalues --   -0.90601  -0.90206  -0.88515  -0.88014  -0.86509
 Alpha  occ. eigenvalues --   -0.86010  -0.85565  -0.83095  -0.81746  -0.81158
 Alpha  occ. eigenvalues --   -0.79875  -0.79526  -0.78611  -0.76126  -0.75706
 Alpha  occ. eigenvalues --   -0.75019  -0.74741  -0.74300  -0.73466  -0.73117
 Alpha  occ. eigenvalues --   -0.72666  -0.72346  -0.72040  -0.71294  -0.71169
 Alpha  occ. eigenvalues --   -0.69372  -0.69022  -0.68837  -0.68743  -0.68218
 Alpha  occ. eigenvalues --   -0.68029  -0.67636  -0.67186  -0.66671  -0.66016
 Alpha  occ. eigenvalues --   -0.65398  -0.65134  -0.64844  -0.64168  -0.63354
 Alpha  occ. eigenvalues --   -0.63040  -0.62755  -0.62291  -0.61557  -0.61402
 Alpha  occ. eigenvalues --   -0.61203  -0.60951  -0.60642  -0.60505  -0.60228
 Alpha  occ. eigenvalues --   -0.59631  -0.59417  -0.59166  -0.58439  -0.58249
 Alpha  occ. eigenvalues --   -0.58082  -0.57688  -0.57171  -0.56990  -0.56922
 Alpha  occ. eigenvalues --   -0.56313  -0.55436  -0.55313  -0.54722  -0.54272
 Alpha  occ. eigenvalues --   -0.54133  -0.54081  -0.53148  -0.53077  -0.52838
 Alpha  occ. eigenvalues --   -0.52335  -0.52163  -0.51919  -0.51224  -0.51046
 Alpha  occ. eigenvalues --   -0.50883  -0.50743  -0.50672  -0.50388  -0.50208
 Alpha  occ. eigenvalues --   -0.49980  -0.49771  -0.49723  -0.49422  -0.49239
 Alpha  occ. eigenvalues --   -0.48792  -0.48498  -0.48441  -0.48282  -0.47903
 Alpha  occ. eigenvalues --   -0.47571  -0.47374  -0.46993  -0.46878  -0.46656
 Alpha  occ. eigenvalues --   -0.46396  -0.46304  -0.45993  -0.45874  -0.45560
 Alpha  occ. eigenvalues --   -0.45384  -0.45214  -0.44619  -0.44395  -0.44198
 Alpha  occ. eigenvalues --   -0.44174  -0.43618  -0.42842  -0.42751  -0.42153
 Alpha  occ. eigenvalues --   -0.41831  -0.41572  -0.41233  -0.39113  -0.38795
 Alpha  occ. eigenvalues --   -0.37586  -0.37205  -0.36269  -0.34531  -0.34175
 Alpha  occ. eigenvalues --   -0.33895  -0.32748  -0.32425  -0.31787  -0.26511
 Alpha  occ. eigenvalues --   -0.21888
 Alpha virt. eigenvalues --   -0.08946  -0.01546  -0.00491   0.01637   0.01872
 Alpha virt. eigenvalues --    0.02187   0.03129   0.03547   0.04135   0.05101
 Alpha virt. eigenvalues --    0.06150   0.06505   0.07917   0.08012   0.08559

 Mulliken charges:
               1
     1  Mg   0.436162
     2  C   -0.028753
     3  C   -0.058814
     4  C   -0.073479
     5  C   -0.079208
     6  N   -0.300783
     7  C    0.106053
     8  C    0.002349
     9  C    0.014173
    10  C    0.153311
    11  C   -0.045862
    12  C   -0.021552
    13  C    0.007227
    14  C    0.474454
    15  O   -0.518502
    16  O   -0.280408
    17  N   -0.322808
    18  C    0.111378
    19  C    0.020650
    20  C   -0.043763
    21  C    0.155919
    22  C   -0.042891
    23  C    0.334569
    24  O   -0.522331
    25  C   -0.037758
    26  N   -0.298853
    27  C    0.157002
    28  C    0.005658
    29  C    0.001071
    30  C    0.128676
    31  C   -0.047337
    32  C   -0.028597
    33  C   -0.062681
    34  N   -0.335865
    35  C    0.093594
    36  C    0.013041
    37  C   -0.047922
    38  C    0.102259
    39  C   -0.031695
    40  C    0.329607
    41  O   -0.507106
    42  C    0.041589
    43  C    0.501591
    44  O   -0.525026
    45  O   -0.252649
    46  C    0.070587
    47  C    0.105188
    48  C   -0.088694
    49  C   -0.019521
    50  C   -0.043433
    51  C   -0.023599
    52  C   -0.041549
    53  C   -0.026089
    54  C   -0.004808
    55  C   -0.055398
    56  C   -0.040924
    57  C   -0.043479
    58  C   -0.032162
    59  C   -0.008111
    60  C   -0.061659
    61  C   -0.036052
    62  C   -0.037388
    63  C   -0.025841
    64  C   -0.018007
    65  C   -0.058843
    66  C   -0.058543
    67  H    0.016210
    68  H    0.036952
    69  H    0.025104
    70  H    0.052979
    71  H    0.019546
    72  H    0.026130
    73  H    0.018335
    74  H    0.029942
    75  H    0.012914
    76  H    0.028613
    77  H    0.028833
    78  H    0.048656
    79  H    0.026779
    80  H    0.028931
    81  H    0.028906
    82  H    0.049789
    83  H    0.047089
    84  H    0.025491
    85  H    0.031953
    86  H    0.029693
    87  H    0.019374
    88  H    0.030464
    89  H    0.024948
    90  H    0.023963
    91  H    0.017204
    92  H    0.019845
    93  H    0.014414
    94  H    0.023649
    95  H    0.014771
    96  H    0.036042
    97  H    0.030871
    98  H    0.058289
    99  H    0.045266
   100  H    0.052861
   101  H    0.019907
   102  H    0.048388
   103  H    0.052801
   104  H    0.035200
   105  H    0.028856
   106  H    0.034224
   107  H    0.030898
   108  H    0.021950
   109  H    0.021267
   110  H    0.020100
   111  H    0.024168
   112  H    0.019594
   113  H    0.018450
   114  H    0.024484
   115  H    0.016906
   116  H    0.016041
   117  H    0.015811
   118  H    0.015078
   119  H    0.011792
   120  H    0.021383
   121  H    0.009875
   122  H    0.023118
   123  H    0.021519
   124  H    0.026780
   125  H    0.016682
   126  H    0.016424
   127  H    0.009371
   128  H    0.020702
   129  H    0.014656
   130  H    0.023495
   131  H    0.009157
   132  H    0.020743
   133  H    0.017775
   134  H    0.020392
   135  H    0.019859
   136  H    0.008781
   137  H    0.021315
   138  H    0.018619
   139  H    0.016163
   140  H    0.015110
 Sum of Mulliken charges =  -0.00000

 Dipole moment (field-independent basis, Debye):
    X=             -8.5770    Y=              4.4535    Z=              4.7231  Tot=             10.7567
 N-N= 4.364829367858D+03 E-N= 0.000000000000D+00  KE=-9.403913576318D+03
 Leave Link  601 at Sun May  1 01:12:15 2022, MaxMem=  6710886400 cpu:               2.7 elap:               0.1
 (Enter /sw/apps/gaussian-16.0/g16/l9999.exe)
 1\1\GINC-BP1-COMPUTE150\SP\RZINDO CIS\STO-3G\C55H74Mg1N4O6\OF15641\01-
 May-2022\0\\#p ZINDO=(nstates=5)\\step_951_chromophore_24 ZINDO\\0,1\M
 g,0,-1.242,44.236,25.024\C,0,1.348,43.582,27.299\C,0,-3.385,43.524,27.
 711\C,0,-3.829,44.441,22.904\C,0,1.01,44.375,22.476\N,0,-1.024,43.24,2
 7.252\C,0,0.151,43.398,27.96\C,0,-0.078,43.322,29.478\C,0,-1.629,42.99
 ,29.481\C,0,-2.109,43.293,28.073\C,0,-1.896,41.553,30.033\C,0,0.335,44
 .671,30.193\C,0,0.273,44.878,31.734\C,0,0.164,43.663,32.598\O,0,0.939,

 Normal termination of Gaussian 16 at Sun May  1 01:12:15 2022.
