 Gaussian 16, Revision A.03,
 Gaussian 16:  ES64L-G16RevA.03 25-Dec-2016

 ------------------------------
 #p blyp/Def2SVP td=(nstates=5)
 ------------------------------

 --------------------------------------------------
 step_951_chromophore_15 TDDFT with blyp functional
 --------------------------------------------------
 Symbolic Z-matrix:
 Charge =  0 Multiplicity = 1

                         Standard orientation:
 ---------------------------------------------------------------------
 Center     Atomic      Atomic             Coordinates (Angstroms)
 Number     Number       Type             X           Y           Z
 ---------------------------------------------------------------------
      1         12           0       -4.716230    1.007228   -0.146449
      2          6           0       -4.532714   -2.403924    0.386845
      3          6           0       -1.294244    1.111552    0.038861
      4          6           0       -4.782874    4.405841    0.058139
      5          6           0       -8.178156    0.889627    0.488059
      6          7           0       -3.059574   -0.504973    0.100800
      7          6           0       -3.280868   -1.854877    0.116307
      8          6           0       -1.927227   -2.564630   -0.123406
      9          6           0       -0.985929   -1.438338    0.341922
     10          6           0       -1.810294   -0.153499    0.137523
     11          6           0       -0.498246   -1.633177    1.807426
     12          6           0       -1.812892   -2.963404   -1.635833
     13          6           0       -0.805074   -4.018070   -2.012670
     14          6           0        0.405434   -4.402476   -0.966399
     15          8           0        0.374545   -5.254475   -0.066807
     16          8           0        1.556996   -3.673501   -1.428951
     17          7           0       -3.273243    2.522319   -0.250812
     18          6           0       -1.942418    2.309678   -0.142220
     19          6           0       -1.266464    3.602718   -0.421148
     20          6           0       -2.252465    4.627574   -0.575268
     21          6           0       -3.551744    3.871974   -0.193063
     22          6           0        0.201583    3.716523   -0.602745
     23          6           0       -2.133228    6.115000   -0.796521
     24          8           0       -3.112713    6.778718   -1.068180
     25          6           0       -0.710199    6.762035   -0.958150
     26          7           0       -6.294430    2.457686    0.014387
     27          6           0       -6.083210    3.805152    0.250812
     28          6           0       -7.418495    4.583897    0.430716
     29          6           0       -8.442062    3.381804    0.558960
     30          6           0       -7.627348    2.179600    0.203581
     31          6           0       -7.349516    5.601630    1.606694
     32          6           0       -9.691300    3.552838   -0.298393
     33          6           0      -11.019018    3.336933    0.287269
     34          7           0       -6.116150   -0.412509    0.343257
     35          6           0       -7.453898   -0.313491    0.505490
     36          6           0       -7.962102   -1.697465    0.811732
     37          6           0       -6.816955   -2.524689    0.808191
     38          6           0       -5.741423   -1.716851    0.511570
     39          6           0       -9.311065   -2.225615    1.056622
     40          6           0       -6.388160   -3.856647    1.016000
     41          8           0       -7.005801   -4.859377    1.337722
     42          6           0       -4.841013   -3.801452    0.877029
     43          6           0       -4.390248   -4.842539   -0.053679
     44          8           0       -4.803196   -5.023650   -1.188442
     45          8           0       -3.430187   -5.615982    0.618425
     46          6           0       -2.701392   -6.488140   -0.205604
     47          6           0        2.721918   -3.925833   -0.662348
     48          6           0        3.934977   -3.333310   -1.387337
     49          6           0        5.185082   -3.568340   -1.080473
     50          6           0        5.551361   -4.303332    0.213458
     51          6           0        6.228716   -2.840200   -1.765110
     52          6           0        6.488272   -1.372667   -1.225740
     53          6           0        7.859777   -0.742424   -1.761681
     54          6           0        7.773521    0.466924   -2.716585
     55          6           0        7.173084    0.162095   -4.094189
     56          6           0        9.193757    1.129497   -2.792129
     57          6           0        9.494628    2.388834   -1.972894
     58          6           0       10.918504    2.854116   -1.818368
     59          6           0       11.349105    2.812929   -0.278413
     60          6           0       12.721811    3.621208   -0.136832
     61          6           0       11.460928    1.363713    0.373869
     62          6           0       11.898549    1.397953    1.871653
     63          6           0       11.133037    0.298984    2.776961
     64          6           0       11.190467    0.543395    4.274730
     65          6           0       12.511956   -0.098117    4.868765
     66          6           0        9.852448    0.248831    5.014349
     67          1           0       -0.213055    0.954999    0.037021
     68          1           0       -4.902082    5.490285    0.088980
     69          1           0       -9.222501    0.950292    0.801318
     70          1           0       -1.824801   -3.437272    0.520941
     71          1           0       -0.116220   -1.421663   -0.315847
     72          1           0       -1.006914   -0.970999    2.508060
     73          1           0        0.587053   -1.545613    1.766956
     74          1           0       -0.636192   -2.662043    2.140993
     75          1           0       -1.660451   -2.016237   -2.154681
     76          1           0       -2.848625   -3.201800   -1.876662
     77          1           0       -0.388126   -3.646336   -2.949290
     78          1           0       -1.336270   -4.934281   -2.270891
     79          1           0        0.628828    4.483253    0.043372
     80          1           0        0.452073    3.855521   -1.654187
     81          1           0        0.730027    2.804607   -0.320805
     82          1           0       -0.183459    6.503748   -0.038973
     83          1           0       -0.994582    7.813687   -0.925912
     84          1           0       -0.137684    6.509217   -1.850736
     85          1           0       -7.485368    5.319729   -0.369579
     86          1           0       -8.767094    3.271667    1.593296
     87          1           0       -7.290674    6.594223    1.160341
     88          1           0       -6.415116    5.539222    2.164009
     89          1           0       -8.243890    5.567701    2.230185
     90          1           0       -9.620983    2.852571   -1.130502
     91          1           0       -9.775967    4.538213   -0.756670
     92          1           0      -10.942170    3.045869    1.335492
     93          1           0      -11.521900    2.461839   -0.124750
     94          1           0      -11.720078    4.171130    0.324216
     95          1           0       -9.640194   -1.887762    2.039285
     96          1           0       -9.129664   -3.300625    1.050234
     97          1           0      -10.121772   -1.855482    0.429051
     98          1           0       -4.385109   -4.036251    1.839062
     99          1           0       -1.747199   -6.641428    0.298314
    100          1           0       -2.532562   -6.230454   -1.251404
    101          1           0       -3.193167   -7.446669   -0.040346
    102          1           0        2.827272   -4.999421   -0.503023
    103          1           0        2.596995   -3.417934    0.293017
    104          1           0        3.722225   -2.846490   -2.338740
    105          1           0        5.814930   -3.492416    0.892362
    106          1           0        6.294249   -5.090859    0.085900
    107          1           0        4.673406   -4.798868    0.628742
    108          1           0        5.923959   -2.762590   -2.809358
    109          1           0        7.109993   -3.475336   -1.675460
    110          1           0        6.426443   -1.250494   -0.143970
    111          1           0        5.689929   -0.752643   -1.632418
    112          1           0        8.302351   -1.628757   -2.215952
    113          1           0        8.602718   -0.613380   -0.973915
    114          1           0        7.071758    1.216749   -2.351025
    115          1           0        6.254111    0.737855   -4.203526
    116          1           0        6.958219   -0.902826   -4.189643
    117          1           0        7.947809    0.428600   -4.812422
    118          1           0        9.440216    1.325913   -3.835758
    119          1           0        9.904785    0.370665   -2.464174
    120          1           0        9.030866    2.199123   -1.004526
    121          1           0        8.884671    3.101793   -2.526960
    122          1           0       10.986344    3.912304   -2.071845
    123          1           0       11.699073    2.277124   -2.315233
    124          1           0       10.630263    3.386803    0.307001
    125          1           0       13.296840    3.331024    0.742297
    126          1           0       12.589735    4.701180   -0.194954
    127          1           0       13.333950    3.446885   -1.021763
    128          1           0       12.005876    0.686919   -0.284337
    129          1           0       10.431790    1.006755    0.423200
    130          1           0       11.746480    2.377552    2.323253
    131          1           0       12.949055    1.108504    1.846875
    132          1           0       11.461588   -0.693353    2.468948
    133          1           0       10.078385    0.271354    2.502239
    134          1           0       11.387774    1.605413    4.416371
    135          1           0       13.083642    0.691223    5.357087
    136          1           0       13.203552   -0.575436    4.174595
    137          1           0       12.338485   -0.751314    5.724155
    138          1           0        9.279779    1.175312    4.956188
    139          1           0        9.993152    0.097628    6.085353
    140          1           0        9.314558   -0.591759    4.577333
 ---------------------------------------------------------------------

 SCF Done:  E(RB-LYP) =  -3007.36905105     A.U. after   21 cycles

 Excitation energies and oscillator strengths:

 Excited State   1:      Singlet-A      1.7910 eV  692.26 nm  f=0.2728  <S**2>=0.000
     245 -> 248       -0.20474
     246 -> 247        0.67823
     246 <- 247       -0.13389
 This state for optimization and/or second-order correction.
 Total Energy, E(TD-HF/TD-DFT) =  -3007.30323264
 Copying the excited state density for this state as the 1-particle RhoCI density.

 Excited State   2:      Singlet-A      2.0274 eV  611.56 nm  f=0.0242  <S**2>=0.000
     244 -> 247       -0.22441
     245 -> 247        0.58920
     246 -> 248        0.28393

 Excited State   3:      Singlet-A      2.1304 eV  581.99 nm  f=0.0011  <S**2>=0.000
     244 -> 247        0.66474
     245 -> 247        0.15794
     246 -> 248        0.16766

 Excited State   4:      Singlet-A      2.2315 eV  555.61 nm  f=0.0016  <S**2>=0.000
     243 -> 247        0.70209

 Excited State   5:      Singlet-A      2.5736 eV  481.76 nm  f=0.0622  <S**2>=0.000
     239 -> 247        0.10287
     242 -> 247        0.14049
     245 -> 247       -0.17870
     246 -> 248        0.46370
     246 -> 249        0.43066

 The electronic state is 1-A.
 Alpha  occ. eigenvalues --  -46.27247 -18.83399 -18.81681 -18.80124 -18.76986
 Alpha  occ. eigenvalues --  -18.76202 -18.75549 -14.03404 -14.02785 -14.01457
 Alpha  occ. eigenvalues --  -14.01044 -10.06705 -10.03489 -10.00383  -9.99008
 Alpha  occ. eigenvalues --   -9.98188  -9.96959  -9.96413  -9.96264  -9.96217
 Alpha  occ. eigenvalues --   -9.96134  -9.96036  -9.95785  -9.95717  -9.94731
 Alpha  occ. eigenvalues --   -9.94425  -9.94314  -9.94165  -9.93838  -9.93565
 Alpha  occ. eigenvalues --   -9.93547  -9.93498  -9.93407  -9.93379  -9.93289
 Alpha  occ. eigenvalues --   -9.93072  -9.93034  -9.93033  -9.92738  -9.92730
 Alpha  occ. eigenvalues --   -9.92712  -9.92428  -9.92428  -9.92388  -9.92384
 Alpha  occ. eigenvalues --   -9.92343  -9.92340  -9.92276  -9.92238  -9.92238
 Alpha  occ. eigenvalues --   -9.92115  -9.92031  -9.91808  -9.91798  -9.91766
 Alpha  occ. eigenvalues --   -9.91583  -9.91533  -9.91523  -9.91461  -9.91435
 Alpha  occ. eigenvalues --   -9.91232  -9.91196  -9.91038  -9.90833  -9.90828
 Alpha  occ. eigenvalues --   -9.90159  -2.91855  -1.72294  -1.71718  -1.71575
 Alpha  occ. eigenvalues --   -0.98019  -0.97552  -0.92461  -0.91838  -0.91348
 Alpha  occ. eigenvalues --   -0.90303  -0.87474  -0.86118  -0.85567  -0.84792
 Alpha  occ. eigenvalues --   -0.76427  -0.74743  -0.73023  -0.72934  -0.72834
 Alpha  occ. eigenvalues --   -0.71969  -0.71822  -0.70908  -0.70624  -0.70452
 Alpha  occ. eigenvalues --   -0.69817  -0.69181  -0.68132  -0.68048  -0.67550
 Alpha  occ. eigenvalues --   -0.66709  -0.66027  -0.65202  -0.64824  -0.64419
 Alpha  occ. eigenvalues --   -0.63993  -0.62809  -0.62226  -0.62039  -0.61479
 Alpha  occ. eigenvalues --   -0.60531  -0.60461  -0.59865  -0.59583  -0.59138
 Alpha  occ. eigenvalues --   -0.58360  -0.57283  -0.56930  -0.55611  -0.54494
 Alpha  occ. eigenvalues --   -0.54400  -0.54077  -0.53221  -0.52972  -0.51837
 Alpha  occ. eigenvalues --   -0.51396  -0.51208  -0.51062  -0.50620  -0.50404
 Alpha  occ. eigenvalues --   -0.49766  -0.49487  -0.48482  -0.48388  -0.46627
 Alpha  occ. eigenvalues --   -0.46438  -0.46047  -0.45752  -0.45477  -0.44501
 Alpha  occ. eigenvalues --   -0.44083  -0.43690  -0.43359  -0.43086  -0.42747
 Alpha  occ. eigenvalues --   -0.42535  -0.42137  -0.41952  -0.41466  -0.41366
 Alpha  occ. eigenvalues --   -0.41209  -0.40928  -0.40747  -0.40642  -0.40159
 Alpha  occ. eigenvalues --   -0.40117  -0.40103  -0.39842  -0.39549  -0.39482
 Alpha  occ. eigenvalues --   -0.39331  -0.38924  -0.38657  -0.38612  -0.38363
 Alpha  occ. eigenvalues --   -0.38280  -0.38274  -0.37913  -0.37762  -0.37500
 Alpha  occ. eigenvalues --   -0.37355  -0.37071  -0.36620  -0.36600  -0.36516
 Alpha  occ. eigenvalues --   -0.36394  -0.36161  -0.36127  -0.36068  -0.35952
 Alpha  occ. eigenvalues --   -0.35665  -0.35603  -0.35414  -0.35198  -0.34855
 Alpha  occ. eigenvalues --   -0.34574  -0.34509  -0.34296  -0.34165  -0.34008
 Alpha  occ. eigenvalues --   -0.33871  -0.33840  -0.33620  -0.33473  -0.33167
 Alpha  occ. eigenvalues --   -0.33054  -0.32823  -0.32725  -0.32260  -0.32225
 Alpha  occ. eigenvalues --   -0.32004  -0.31930  -0.31833  -0.31769  -0.31621
 Alpha  occ. eigenvalues --   -0.31515  -0.31267  -0.31047  -0.31030  -0.30956
 Alpha  occ. eigenvalues --   -0.30672  -0.30518  -0.30132  -0.30111  -0.29941
 Alpha  occ. eigenvalues --   -0.29845  -0.29674  -0.29406  -0.29373  -0.29218
 Alpha  occ. eigenvalues --   -0.28912  -0.28825  -0.28716  -0.28297  -0.27781
 Alpha  occ. eigenvalues --   -0.27602  -0.27494  -0.27375  -0.27019  -0.26805
 Alpha  occ. eigenvalues --   -0.26523  -0.26451  -0.26053  -0.25892  -0.25684
 Alpha  occ. eigenvalues --   -0.25466  -0.25222  -0.24732  -0.24375  -0.24141
 Alpha  occ. eigenvalues --   -0.23655  -0.23276  -0.22425  -0.21681  -0.20886
 Alpha  occ. eigenvalues --   -0.20762  -0.20336  -0.19199  -0.18805  -0.17411
 Alpha  occ. eigenvalues --   -0.15526
 Alpha virt. eigenvalues --   -0.11114  -0.07826  -0.06418  -0.05594  -0.04929
 Alpha virt. eigenvalues --   -0.02820  -0.02258  -0.01817  -0.01600   0.00018
 Alpha virt. eigenvalues --    0.00668   0.01355   0.02051   0.02414   0.03068

 Mulliken charges:
               1
     1  Mg   0.691304
     2  C    0.015857
     3  C   -0.066738
     4  C   -0.035619
     5  C   -0.098354
     6  N   -0.164649
     7  C   -0.123023
     8  C   -0.029038
     9  C   -0.000368
    10  C   -0.085474
    11  C    0.142575
    12  C    0.110631
    13  C    0.172213
    14  C    0.133338
    15  O   -0.181602
    16  O   -0.289326
    17  N   -0.291691
    18  C    0.254511
    19  C   -0.161622
    20  C    0.051148
    21  C    0.145238
    22  C    0.181740
    23  C   -0.087643
    24  O   -0.160461
    25  C    0.106406
    26  N   -0.230135
    27  C   -0.024173
    28  C    0.005371
    29  C    0.061188
    30  C    0.026828
    31  C    0.103662
    32  C    0.110791
    33  C    0.060691
    34  N   -0.267278
    35  C    0.156206
    36  C   -0.183897
    37  C    0.090789
    38  C    0.103583
    39  C    0.173215
    40  C   -0.058371
    41  O   -0.128048
    42  C    0.105638
    43  C    0.085661
    44  O   -0.173337
    45  O   -0.268809
    46  C    0.218044
    47  C    0.293663
    48  C   -0.111270
    49  C   -0.153433
    50  C    0.133894
    51  C    0.145099
    52  C    0.080752
    53  C    0.089177
    54  C   -0.068809
    55  C    0.124169
    56  C    0.069126
    57  C    0.094100
    58  C    0.142977
    59  C   -0.123310
    60  C    0.087414
    61  C    0.091916
    62  C    0.057515
    63  C    0.070295
    64  C   -0.064302
    65  C    0.091183
    66  C    0.113739
    67  H   -0.073660
    68  H   -0.051438
    69  H   -0.060209
    70  H   -0.021851
    71  H   -0.044249
    72  H    0.005928
    73  H   -0.010798
    74  H   -0.006537
    75  H   -0.031596
    76  H   -0.002926
    77  H   -0.009203
    78  H   -0.002680
    79  H   -0.002735
    80  H    0.009895
    81  H   -0.026958
    82  H   -0.003398
    83  H   -0.006312
    84  H    0.028271
    85  H   -0.003207
    86  H   -0.017934
    87  H   -0.015249
    88  H   -0.002724
    89  H   -0.004815
    90  H   -0.021752
    91  H   -0.024357
    92  H   -0.033759
    93  H   -0.012394
    94  H   -0.007514
    95  H   -0.010930
    96  H    0.019985
    97  H   -0.011439
    98  H   -0.001915
    99  H    0.009867
   100  H    0.015191
   101  H   -0.007060
   102  H    0.015911
   103  H   -0.005664
   104  H   -0.037412
   105  H    0.006501
   106  H    0.002867
   107  H   -0.021270
   108  H   -0.018783
   109  H   -0.032410
   110  H   -0.025876
   111  H   -0.036600
   112  H   -0.043999
   113  H   -0.032446
   114  H   -0.042210
   115  H   -0.010273
   116  H   -0.019719
   117  H   -0.018942
   118  H   -0.043653
   119  H   -0.042341
   120  H   -0.025744
   121  H   -0.036659
   122  H   -0.033305
   123  H   -0.023416
   124  H   -0.033087
   125  H   -0.010025
   126  H   -0.020329
   127  H   -0.030441
   128  H   -0.023307
   129  H   -0.027263
   130  H   -0.013321
   131  H   -0.014160
   132  H   -0.031248
   133  H   -0.047275
   134  H   -0.037076
   135  H   -0.029230
   136  H   -0.009603
   137  H   -0.028113
   138  H   -0.014676
   139  H   -0.021228
   140  H   -0.004575
 Sum of Mulliken charges =  -0.00000

 Dipole moment (field-independent basis, Debye):
    X=              4.9705    Y=              3.6699    Z=              0.2277  Tot=              6.1827
 Quadrupole moment (field-independent basis, Debye-Ang):
   XX=           -395.6096   YY=           -440.7188   ZZ=           -406.4735
   XY=            -40.6553   XZ=             -4.0375   YZ=             10.7754

 Normal termination of Gaussian 16 at Thu May  5 16:01:47 2022.
