 Gaussian 16, Revision A.03,
 Gaussian 16:  ES64L-G16RevA.03 25-Dec-2016

 -----------------------------------
 #p cam-b3lyp/Def2SVP td=(nstates=5)
 -----------------------------------

 -------------------------------------------------------
 step_951_chromophore_15 TDDFT with cam-b3lyp functional
 -------------------------------------------------------
 Symbolic Z-matrix:
 Charge =  0 Multiplicity = 1

                         Standard orientation:
 ---------------------------------------------------------------------
 Center     Atomic      Atomic             Coordinates (Angstroms)
 Number     Number       Type             X           Y           Z
 ---------------------------------------------------------------------
      1         12           0       -4.716230    1.007228   -0.146449
      2          6           0       -4.532714   -2.403924    0.386845
      3          6           0       -1.294244    1.111552    0.038861
      4          6           0       -4.782874    4.405841    0.058139
      5          6           0       -8.178156    0.889627    0.488059
      6          7           0       -3.059574   -0.504973    0.100800
      7          6           0       -3.280868   -1.854877    0.116307
      8          6           0       -1.927227   -2.564630   -0.123406
      9          6           0       -0.985929   -1.438338    0.341922
     10          6           0       -1.810294   -0.153499    0.137523
     11          6           0       -0.498246   -1.633177    1.807426
     12          6           0       -1.812892   -2.963404   -1.635833
     13          6           0       -0.805074   -4.018070   -2.012670
     14          6           0        0.405434   -4.402476   -0.966399
     15          8           0        0.374545   -5.254475   -0.066807
     16          8           0        1.556996   -3.673501   -1.428951
     17          7           0       -3.273243    2.522319   -0.250812
     18          6           0       -1.942418    2.309678   -0.142220
     19          6           0       -1.266464    3.602718   -0.421148
     20          6           0       -2.252465    4.627574   -0.575268
     21          6           0       -3.551744    3.871974   -0.193063
     22          6           0        0.201583    3.716523   -0.602745
     23          6           0       -2.133228    6.115000   -0.796521
     24          8           0       -3.112713    6.778718   -1.068180
     25          6           0       -0.710199    6.762035   -0.958150
     26          7           0       -6.294430    2.457686    0.014387
     27          6           0       -6.083210    3.805152    0.250812
     28          6           0       -7.418495    4.583897    0.430716
     29          6           0       -8.442062    3.381804    0.558960
     30          6           0       -7.627348    2.179600    0.203581
     31          6           0       -7.349516    5.601630    1.606694
     32          6           0       -9.691300    3.552838   -0.298393
     33          6           0      -11.019018    3.336933    0.287269
     34          7           0       -6.116150   -0.412509    0.343257
     35          6           0       -7.453898   -0.313491    0.505490
     36          6           0       -7.962102   -1.697465    0.811732
     37          6           0       -6.816955   -2.524689    0.808191
     38          6           0       -5.741423   -1.716851    0.511570
     39          6           0       -9.311065   -2.225615    1.056622
     40          6           0       -6.388160   -3.856647    1.016000
     41          8           0       -7.005801   -4.859377    1.337722
     42          6           0       -4.841013   -3.801452    0.877029
     43          6           0       -4.390248   -4.842539   -0.053679
     44          8           0       -4.803196   -5.023650   -1.188442
     45          8           0       -3.430187   -5.615982    0.618425
     46          6           0       -2.701392   -6.488140   -0.205604
     47          6           0        2.721918   -3.925833   -0.662348
     48          6           0        3.934977   -3.333310   -1.387337
     49          6           0        5.185082   -3.568340   -1.080473
     50          6           0        5.551361   -4.303332    0.213458
     51          6           0        6.228716   -2.840200   -1.765110
     52          6           0        6.488272   -1.372667   -1.225740
     53          6           0        7.859777   -0.742424   -1.761681
     54          6           0        7.773521    0.466924   -2.716585
     55          6           0        7.173084    0.162095   -4.094189
     56          6           0        9.193757    1.129497   -2.792129
     57          6           0        9.494628    2.388834   -1.972894
     58          6           0       10.918504    2.854116   -1.818368
     59          6           0       11.349105    2.812929   -0.278413
     60          6           0       12.721811    3.621208   -0.136832
     61          6           0       11.460928    1.363713    0.373869
     62          6           0       11.898549    1.397953    1.871653
     63          6           0       11.133037    0.298984    2.776961
     64          6           0       11.190467    0.543395    4.274730
     65          6           0       12.511956   -0.098117    4.868765
     66          6           0        9.852448    0.248831    5.014349
     67          1           0       -0.213055    0.954999    0.037021
     68          1           0       -4.902082    5.490285    0.088980
     69          1           0       -9.222501    0.950292    0.801318
     70          1           0       -1.824801   -3.437272    0.520941
     71          1           0       -0.116220   -1.421663   -0.315847
     72          1           0       -1.006914   -0.970999    2.508060
     73          1           0        0.587053   -1.545613    1.766956
     74          1           0       -0.636192   -2.662043    2.140993
     75          1           0       -1.660451   -2.016237   -2.154681
     76          1           0       -2.848625   -3.201800   -1.876662
     77          1           0       -0.388126   -3.646336   -2.949290
     78          1           0       -1.336270   -4.934281   -2.270891
     79          1           0        0.628828    4.483253    0.043372
     80          1           0        0.452073    3.855521   -1.654187
     81          1           0        0.730027    2.804607   -0.320805
     82          1           0       -0.183459    6.503748   -0.038973
     83          1           0       -0.994582    7.813687   -0.925912
     84          1           0       -0.137684    6.509217   -1.850736
     85          1           0       -7.485368    5.319729   -0.369579
     86          1           0       -8.767094    3.271667    1.593296
     87          1           0       -7.290674    6.594223    1.160341
     88          1           0       -6.415116    5.539222    2.164009
     89          1           0       -8.243890    5.567701    2.230185
     90          1           0       -9.620983    2.852571   -1.130502
     91          1           0       -9.775967    4.538213   -0.756670
     92          1           0      -10.942170    3.045869    1.335492
     93          1           0      -11.521900    2.461839   -0.124750
     94          1           0      -11.720078    4.171130    0.324216
     95          1           0       -9.640194   -1.887762    2.039285
     96          1           0       -9.129664   -3.300625    1.050234
     97          1           0      -10.121772   -1.855482    0.429051
     98          1           0       -4.385109   -4.036251    1.839062
     99          1           0       -1.747199   -6.641428    0.298314
    100          1           0       -2.532562   -6.230454   -1.251404
    101          1           0       -3.193167   -7.446669   -0.040346
    102          1           0        2.827272   -4.999421   -0.503023
    103          1           0        2.596995   -3.417934    0.293017
    104          1           0        3.722225   -2.846490   -2.338740
    105          1           0        5.814930   -3.492416    0.892362
    106          1           0        6.294249   -5.090859    0.085900
    107          1           0        4.673406   -4.798868    0.628742
    108          1           0        5.923959   -2.762590   -2.809358
    109          1           0        7.109993   -3.475336   -1.675460
    110          1           0        6.426443   -1.250494   -0.143970
    111          1           0        5.689929   -0.752643   -1.632418
    112          1           0        8.302351   -1.628757   -2.215952
    113          1           0        8.602718   -0.613380   -0.973915
    114          1           0        7.071758    1.216749   -2.351025
    115          1           0        6.254111    0.737855   -4.203526
    116          1           0        6.958219   -0.902826   -4.189643
    117          1           0        7.947809    0.428600   -4.812422
    118          1           0        9.440216    1.325913   -3.835758
    119          1           0        9.904785    0.370665   -2.464174
    120          1           0        9.030866    2.199123   -1.004526
    121          1           0        8.884671    3.101793   -2.526960
    122          1           0       10.986344    3.912304   -2.071845
    123          1           0       11.699073    2.277124   -2.315233
    124          1           0       10.630263    3.386803    0.307001
    125          1           0       13.296840    3.331024    0.742297
    126          1           0       12.589735    4.701180   -0.194954
    127          1           0       13.333950    3.446885   -1.021763
    128          1           0       12.005876    0.686919   -0.284337
    129          1           0       10.431790    1.006755    0.423200
    130          1           0       11.746480    2.377552    2.323253
    131          1           0       12.949055    1.108504    1.846875
    132          1           0       11.461588   -0.693353    2.468948
    133          1           0       10.078385    0.271354    2.502239
    134          1           0       11.387774    1.605413    4.416371
    135          1           0       13.083642    0.691223    5.357087
    136          1           0       13.203552   -0.575436    4.174595
    137          1           0       12.338485   -0.751314    5.724155
    138          1           0        9.279779    1.175312    4.956188
    139          1           0        9.993152    0.097628    6.085353
    140          1           0        9.314558   -0.591759    4.577333
 ---------------------------------------------------------------------

 SCF Done:  E(RCAM-B3LYP) =  -3007.16259707     A.U. after   17 cycles

 Excitation energies and oscillator strengths:

 Excited State   1:      Singlet-A      1.7763 eV  697.98 nm  f=0.3460  <S**2>=0.000
     245 -> 248       -0.18978
     246 -> 247        0.67993
     245 <- 248       -0.10282
 This state for optimization and/or second-order correction.
 Total Energy, E(TD-HF/TD-DFT) =  -3007.09731825
 Copying the excited state density for this state as the 1-particle RhoCI density.

 Excited State   2:      Singlet-A      2.2983 eV  539.46 nm  f=0.0168  <S**2>=0.000
     245 -> 247        0.56256
     246 -> 248        0.41222

 Excited State   3:      Singlet-A      3.3161 eV  373.89 nm  f=0.7180  <S**2>=0.000
     241 -> 247        0.11243
     243 -> 247        0.10501
     245 -> 247       -0.39385
     246 -> 248        0.56300

 Excited State   4:      Singlet-A      3.6497 eV  339.71 nm  f=0.0028  <S**2>=0.000
     239 -> 247       -0.24421
     239 -> 248        0.11109
     239 -> 249       -0.17254
     239 -> 250       -0.10222
     240 -> 247       -0.10402
     241 -> 247        0.20676
     243 -> 247        0.33191
     244 -> 247        0.43160

 Excited State   5:      Singlet-A      3.6874 eV  336.23 nm  f=0.0123  <S**2>=0.000
     239 -> 247        0.39583
     239 -> 248       -0.18259
     239 -> 249        0.28325
     239 -> 250        0.16724
     240 -> 247        0.12268
     243 -> 247        0.15185
     244 -> 247        0.33522

 The electronic state is 1-A.
 Alpha  occ. eigenvalues --  -46.88803 -19.26194 -19.24499 -19.23177 -19.20057
 Alpha  occ. eigenvalues --  -19.19923 -19.18371 -14.42343 -14.41571 -14.40100
 Alpha  occ. eigenvalues --  -14.39235 -10.42318 -10.38933 -10.36053 -10.33984
 Alpha  occ. eigenvalues --  -10.32126 -10.31898 -10.31340 -10.31041 -10.30455
 Alpha  occ. eigenvalues --  -10.30443 -10.30271 -10.29811 -10.29711 -10.29437
 Alpha  occ. eigenvalues --  -10.28843 -10.28383 -10.28360 -10.27974 -10.27682
 Alpha  occ. eigenvalues --  -10.27646 -10.27562 -10.27549 -10.27320 -10.27306
 Alpha  occ. eigenvalues --  -10.27201 -10.27128 -10.26978 -10.26766 -10.26629
 Alpha  occ. eigenvalues --  -10.26550 -10.26526 -10.26522 -10.26398 -10.26276
 Alpha  occ. eigenvalues --  -10.26184 -10.26175 -10.26133 -10.26066 -10.26060
 Alpha  occ. eigenvalues --  -10.25884 -10.25588 -10.25556 -10.25535 -10.25531
 Alpha  occ. eigenvalues --  -10.25465 -10.25192 -10.25158 -10.24942 -10.24911
 Alpha  occ. eigenvalues --  -10.24862 -10.24849 -10.24779 -10.24524 -10.24465
 Alpha  occ. eigenvalues --  -10.23734  -3.17312  -1.92228  -1.91743  -1.91627
 Alpha  occ. eigenvalues --   -1.16384  -1.15994  -1.11362  -1.09693  -1.09423
 Alpha  occ. eigenvalues --   -1.08221  -1.05269  -1.03541  -1.03347  -1.02361
 Alpha  occ. eigenvalues --   -0.93383  -0.91707  -0.89815  -0.89715  -0.89569
 Alpha  occ. eigenvalues --   -0.88787  -0.88544  -0.87642  -0.87343  -0.87219
 Alpha  occ. eigenvalues --   -0.86077  -0.85559  -0.84321  -0.84218  -0.83763
 Alpha  occ. eigenvalues --   -0.82760  -0.82032  -0.81295  -0.80791  -0.80366
 Alpha  occ. eigenvalues --   -0.79784  -0.78559  -0.77893  -0.77745  -0.76929
 Alpha  occ. eigenvalues --   -0.75922  -0.75723  -0.75189  -0.74905  -0.74418
 Alpha  occ. eigenvalues --   -0.73397  -0.72091  -0.71878  -0.70444  -0.69082
 Alpha  occ. eigenvalues --   -0.68955  -0.68602  -0.67877  -0.67608  -0.65992
 Alpha  occ. eigenvalues --   -0.65466  -0.65438  -0.65232  -0.64520  -0.64293
 Alpha  occ. eigenvalues --   -0.63819  -0.63477  -0.62265  -0.62172  -0.60250
 Alpha  occ. eigenvalues --   -0.60043  -0.59608  -0.59246  -0.58853  -0.57978
 Alpha  occ. eigenvalues --   -0.57475  -0.57095  -0.56547  -0.56412  -0.55839
 Alpha  occ. eigenvalues --   -0.55701  -0.55430  -0.55127  -0.54263  -0.54222
 Alpha  occ. eigenvalues --   -0.53989  -0.53786  -0.53668  -0.53498  -0.53199
 Alpha  occ. eigenvalues --   -0.52834  -0.52692  -0.52582  -0.52349  -0.52062
 Alpha  occ. eigenvalues --   -0.51770  -0.51566  -0.51029  -0.51005  -0.50694
 Alpha  occ. eigenvalues --   -0.50680  -0.50624  -0.50528  -0.50374  -0.49833
 Alpha  occ. eigenvalues --   -0.49533  -0.49461  -0.49219  -0.48952  -0.48764
 Alpha  occ. eigenvalues --   -0.48713  -0.48583  -0.48413  -0.48290  -0.48230
 Alpha  occ. eigenvalues --   -0.48063  -0.47832  -0.47577  -0.47517  -0.46630
 Alpha  occ. eigenvalues --   -0.46553  -0.46383  -0.46262  -0.46042  -0.45791
 Alpha  occ. eigenvalues --   -0.45574  -0.45554  -0.45377  -0.45272  -0.44998
 Alpha  occ. eigenvalues --   -0.44698  -0.44572  -0.44400  -0.44218  -0.43822
 Alpha  occ. eigenvalues --   -0.43686  -0.43444  -0.43377  -0.43240  -0.43228
 Alpha  occ. eigenvalues --   -0.43138  -0.42936  -0.42836  -0.42362  -0.42246
 Alpha  occ. eigenvalues --   -0.42069  -0.41975  -0.41747  -0.41393  -0.41231
 Alpha  occ. eigenvalues --   -0.41120  -0.41101  -0.40664  -0.40510  -0.40357
 Alpha  occ. eigenvalues --   -0.39890  -0.39881  -0.39667  -0.39207  -0.38811
 Alpha  occ. eigenvalues --   -0.38708  -0.38491  -0.38178  -0.37862  -0.37792
 Alpha  occ. eigenvalues --   -0.37589  -0.37286  -0.36995  -0.36744  -0.36453
 Alpha  occ. eigenvalues --   -0.36301  -0.35780  -0.35688  -0.35175  -0.35142
 Alpha  occ. eigenvalues --   -0.34493  -0.34162  -0.33263  -0.31796  -0.31329
 Alpha  occ. eigenvalues --   -0.30640  -0.30556  -0.30406  -0.29236  -0.24337
 Alpha  occ. eigenvalues --   -0.20724
 Alpha virt. eigenvalues --   -0.07826  -0.02829  -0.00070   0.02030   0.02195
 Alpha virt. eigenvalues --    0.02815   0.05038   0.05403   0.05697   0.06383
 Alpha virt. eigenvalues --    0.07402   0.07775   0.08347   0.09064   0.09244

 Mulliken charges:
               1
     1  Mg   0.823264
     2  C   -0.010108
     3  C   -0.089609
     4  C   -0.062208
     5  C   -0.093922
     6  N   -0.235037
     7  C   -0.078935
     8  C   -0.082753
     9  C   -0.056886
    10  C   -0.057599
    11  C    0.087334
    12  C    0.062305
    13  C    0.110262
    14  C    0.203508
    15  O   -0.222237
    16  O   -0.354224
    17  N   -0.381097
    18  C    0.267138
    19  C   -0.166459
    20  C   -0.001366
    21  C    0.167671
    22  C    0.120507
    23  C   -0.016627
    24  O   -0.195229
    25  C    0.032257
    26  N   -0.301534
    27  C    0.007823
    28  C   -0.044922
    29  C   -0.010679
    30  C    0.047588
    31  C    0.046204
    32  C    0.053541
    33  C   -0.004707
    34  N   -0.356545
    35  C    0.151633
    36  C   -0.172895
    37  C    0.002984
    38  C    0.132231
    39  C    0.115832
    40  C    0.042179
    41  O   -0.169842
    42  C    0.020958
    43  C    0.176994
    44  O   -0.208983
    45  O   -0.330544
    46  C    0.172680
    47  C    0.260805
    48  C   -0.127518
    49  C   -0.176532
    50  C    0.075514
    51  C    0.081542
    52  C    0.030291
    53  C    0.037227
    54  C   -0.125590
    55  C    0.067334
    56  C    0.022213
    57  C    0.038612
    58  C    0.084254
    59  C   -0.173333
    60  C    0.029850
    61  C    0.044105
    62  C    0.003613
    63  C    0.018513
    64  C   -0.126793
    65  C    0.031807
    66  C    0.054100
    67  H   -0.037447
    68  H   -0.013242
    69  H   -0.025707
    70  H    0.012331
    71  H   -0.008215
    72  H    0.031736
    73  H    0.012086
    74  H    0.019584
    75  H   -0.001195
    76  H    0.030430
    77  H    0.027304
    78  H    0.027182
    79  H    0.024623
    80  H    0.038920
    81  H    0.005262
    82  H    0.022958
    83  H    0.029702
    84  H    0.056252
    85  H    0.031374
    86  H    0.017027
    87  H    0.009173
    88  H    0.023376
    89  H    0.020779
    90  H    0.010362
    91  H    0.004538
    92  H   -0.010065
    93  H    0.012312
    94  H    0.017652
    95  H    0.013394
    96  H    0.046030
    97  H    0.012733
    98  H    0.044058
    99  H    0.035357
   100  H    0.033732
   101  H    0.018946
   102  H    0.042393
   103  H    0.018185
   104  H   -0.001952
   105  H    0.028489
   106  H    0.027746
   107  H    0.003551
   108  H    0.009270
   109  H   -0.003684
   110  H    0.002244
   111  H   -0.008889
   112  H   -0.014091
   113  H   -0.004537
   114  H   -0.010513
   115  H    0.012960
   116  H    0.002656
   117  H    0.006095
   118  H   -0.015227
   119  H   -0.016606
   120  H    0.000122
   121  H   -0.007957
   122  H   -0.001718
   123  H    0.004213
   124  H   -0.002826
   125  H    0.014102
   126  H    0.004804
   127  H   -0.006398
   128  H    0.003240
   129  H   -0.004619
   130  H    0.012587
   131  H    0.011556
   132  H   -0.002956
   133  H   -0.018173
   134  H   -0.004590
   135  H   -0.004757
   136  H    0.014055
   137  H   -0.002994
   138  H    0.009032
   139  H    0.003813
   140  H    0.018070
 Sum of Mulliken charges =  -0.00000

 Dipole moment (field-independent basis, Debye):
    X=              5.9532    Y=              4.9705    Z=              0.0814  Tot=              7.7559
 Quadrupole moment (field-independent basis, Debye-Ang):
   XX=           -401.5525   YY=           -436.2282   ZZ=           -406.5192
   XY=            -44.4937   XZ=             -3.9903   YZ=             11.0384

 Normal termination of Gaussian 16 at Thu May  5 14:20:06 2022.
