 Gaussian 16, Revision A.03,
 Gaussian 16:  ES64L-G16RevA.03 25-Dec-2016

 ---------------------------------
 #p PBE1PBE/Def2SVP td=(nstates=5)
 ---------------------------------

 -----------------------------------------------------
 step_951_chromophore_15 TDDFT with PBE1PBE functional
 -----------------------------------------------------
 Symbolic Z-matrix:
 Charge =  0 Multiplicity = 1

                         Standard orientation:
 ---------------------------------------------------------------------
 Center     Atomic      Atomic             Coordinates (Angstroms)
 Number     Number       Type             X           Y           Z
 ---------------------------------------------------------------------
      1         12           0       -4.716230    1.007228   -0.146449
      2          6           0       -4.532714   -2.403924    0.386845
      3          6           0       -1.294244    1.111552    0.038861
      4          6           0       -4.782874    4.405841    0.058139
      5          6           0       -8.178156    0.889627    0.488059
      6          7           0       -3.059574   -0.504973    0.100800
      7          6           0       -3.280868   -1.854877    0.116307
      8          6           0       -1.927227   -2.564630   -0.123406
      9          6           0       -0.985929   -1.438338    0.341922
     10          6           0       -1.810294   -0.153499    0.137523
     11          6           0       -0.498246   -1.633177    1.807426
     12          6           0       -1.812892   -2.963404   -1.635833
     13          6           0       -0.805074   -4.018070   -2.012670
     14          6           0        0.405434   -4.402476   -0.966399
     15          8           0        0.374545   -5.254475   -0.066807
     16          8           0        1.556996   -3.673501   -1.428951
     17          7           0       -3.273243    2.522319   -0.250812
     18          6           0       -1.942418    2.309678   -0.142220
     19          6           0       -1.266464    3.602718   -0.421148
     20          6           0       -2.252465    4.627574   -0.575268
     21          6           0       -3.551744    3.871974   -0.193063
     22          6           0        0.201583    3.716523   -0.602745
     23          6           0       -2.133228    6.115000   -0.796521
     24          8           0       -3.112713    6.778718   -1.068180
     25          6           0       -0.710199    6.762035   -0.958150
     26          7           0       -6.294430    2.457686    0.014387
     27          6           0       -6.083210    3.805152    0.250812
     28          6           0       -7.418495    4.583897    0.430716
     29          6           0       -8.442062    3.381804    0.558960
     30          6           0       -7.627348    2.179600    0.203581
     31          6           0       -7.349516    5.601630    1.606694
     32          6           0       -9.691300    3.552838   -0.298393
     33          6           0      -11.019018    3.336933    0.287269
     34          7           0       -6.116150   -0.412509    0.343257
     35          6           0       -7.453898   -0.313491    0.505490
     36          6           0       -7.962102   -1.697465    0.811732
     37          6           0       -6.816955   -2.524689    0.808191
     38          6           0       -5.741423   -1.716851    0.511570
     39          6           0       -9.311065   -2.225615    1.056622
     40          6           0       -6.388160   -3.856647    1.016000
     41          8           0       -7.005801   -4.859377    1.337722
     42          6           0       -4.841013   -3.801452    0.877029
     43          6           0       -4.390248   -4.842539   -0.053679
     44          8           0       -4.803196   -5.023650   -1.188442
     45          8           0       -3.430187   -5.615982    0.618425
     46          6           0       -2.701392   -6.488140   -0.205604
     47          6           0        2.721918   -3.925833   -0.662348
     48          6           0        3.934977   -3.333310   -1.387337
     49          6           0        5.185082   -3.568340   -1.080473
     50          6           0        5.551361   -4.303332    0.213458
     51          6           0        6.228716   -2.840200   -1.765110
     52          6           0        6.488272   -1.372667   -1.225740
     53          6           0        7.859777   -0.742424   -1.761681
     54          6           0        7.773521    0.466924   -2.716585
     55          6           0        7.173084    0.162095   -4.094189
     56          6           0        9.193757    1.129497   -2.792129
     57          6           0        9.494628    2.388834   -1.972894
     58          6           0       10.918504    2.854116   -1.818368
     59          6           0       11.349105    2.812929   -0.278413
     60          6           0       12.721811    3.621208   -0.136832
     61          6           0       11.460928    1.363713    0.373869
     62          6           0       11.898549    1.397953    1.871653
     63          6           0       11.133037    0.298984    2.776961
     64          6           0       11.190467    0.543395    4.274730
     65          6           0       12.511956   -0.098117    4.868765
     66          6           0        9.852448    0.248831    5.014349
     67          1           0       -0.213055    0.954999    0.037021
     68          1           0       -4.902082    5.490285    0.088980
     69          1           0       -9.222501    0.950292    0.801318
     70          1           0       -1.824801   -3.437272    0.520941
     71          1           0       -0.116220   -1.421663   -0.315847
     72          1           0       -1.006914   -0.970999    2.508060
     73          1           0        0.587053   -1.545613    1.766956
     74          1           0       -0.636192   -2.662043    2.140993
     75          1           0       -1.660451   -2.016237   -2.154681
     76          1           0       -2.848625   -3.201800   -1.876662
     77          1           0       -0.388126   -3.646336   -2.949290
     78          1           0       -1.336270   -4.934281   -2.270891
     79          1           0        0.628828    4.483253    0.043372
     80          1           0        0.452073    3.855521   -1.654187
     81          1           0        0.730027    2.804607   -0.320805
     82          1           0       -0.183459    6.503748   -0.038973
     83          1           0       -0.994582    7.813687   -0.925912
     84          1           0       -0.137684    6.509217   -1.850736
     85          1           0       -7.485368    5.319729   -0.369579
     86          1           0       -8.767094    3.271667    1.593296
     87          1           0       -7.290674    6.594223    1.160341
     88          1           0       -6.415116    5.539222    2.164009
     89          1           0       -8.243890    5.567701    2.230185
     90          1           0       -9.620983    2.852571   -1.130502
     91          1           0       -9.775967    4.538213   -0.756670
     92          1           0      -10.942170    3.045869    1.335492
     93          1           0      -11.521900    2.461839   -0.124750
     94          1           0      -11.720078    4.171130    0.324216
     95          1           0       -9.640194   -1.887762    2.039285
     96          1           0       -9.129664   -3.300625    1.050234
     97          1           0      -10.121772   -1.855482    0.429051
     98          1           0       -4.385109   -4.036251    1.839062
     99          1           0       -1.747199   -6.641428    0.298314
    100          1           0       -2.532562   -6.230454   -1.251404
    101          1           0       -3.193167   -7.446669   -0.040346
    102          1           0        2.827272   -4.999421   -0.503023
    103          1           0        2.596995   -3.417934    0.293017
    104          1           0        3.722225   -2.846490   -2.338740
    105          1           0        5.814930   -3.492416    0.892362
    106          1           0        6.294249   -5.090859    0.085900
    107          1           0        4.673406   -4.798868    0.628742
    108          1           0        5.923959   -2.762590   -2.809358
    109          1           0        7.109993   -3.475336   -1.675460
    110          1           0        6.426443   -1.250494   -0.143970
    111          1           0        5.689929   -0.752643   -1.632418
    112          1           0        8.302351   -1.628757   -2.215952
    113          1           0        8.602718   -0.613380   -0.973915
    114          1           0        7.071758    1.216749   -2.351025
    115          1           0        6.254111    0.737855   -4.203526
    116          1           0        6.958219   -0.902826   -4.189643
    117          1           0        7.947809    0.428600   -4.812422
    118          1           0        9.440216    1.325913   -3.835758
    119          1           0        9.904785    0.370665   -2.464174
    120          1           0        9.030866    2.199123   -1.004526
    121          1           0        8.884671    3.101793   -2.526960
    122          1           0       10.986344    3.912304   -2.071845
    123          1           0       11.699073    2.277124   -2.315233
    124          1           0       10.630263    3.386803    0.307001
    125          1           0       13.296840    3.331024    0.742297
    126          1           0       12.589735    4.701180   -0.194954
    127          1           0       13.333950    3.446885   -1.021763
    128          1           0       12.005876    0.686919   -0.284337
    129          1           0       10.431790    1.006755    0.423200
    130          1           0       11.746480    2.377552    2.323253
    131          1           0       12.949055    1.108504    1.846875
    132          1           0       11.461588   -0.693353    2.468948
    133          1           0       10.078385    0.271354    2.502239
    134          1           0       11.387774    1.605413    4.416371
    135          1           0       13.083642    0.691223    5.357087
    136          1           0       13.203552   -0.575436    4.174595
    137          1           0       12.338485   -0.751314    5.724155
    138          1           0        9.279779    1.175312    4.956188
    139          1           0        9.993152    0.097628    6.085353
    140          1           0        9.314558   -0.591759    4.577333
 ---------------------------------------------------------------------

 SCF Done:  E(RPBE1PBE) =  -3005.35031044     A.U. after   15 cycles

 Excitation energies and oscillator strengths:

 Excited State   1:      Singlet-A      1.8742 eV  661.54 nm  f=0.3378  <S**2>=0.000
     245 -> 248       -0.18586
     246 -> 247        0.68529
 This state for optimization and/or second-order correction.
 Total Energy, E(TD-HF/TD-DFT) =  -3005.28143543
 Copying the excited state density for this state as the 1-particle RhoCI density.

 Excited State   2:      Singlet-A      2.2915 eV  541.06 nm  f=0.0248  <S**2>=0.000
     245 -> 247        0.58910
     246 -> 248        0.37457

 Excited State   3:      Singlet-A      3.0767 eV  402.98 nm  f=0.3693  <S**2>=0.000
     241 -> 247       -0.11542
     245 -> 247       -0.31319
     246 -> 248        0.55310
     246 -> 249       -0.23082

 Excited State   4:      Singlet-A      3.2285 eV  384.02 nm  f=0.0060  <S**2>=0.000
     241 -> 247       -0.13127
     243 -> 247        0.48859
     243 -> 249       -0.15011
     243 -> 251        0.11427
     244 -> 247        0.42033

 Excited State   5:      Singlet-A      3.2545 eV  380.96 nm  f=0.0012  <S**2>=0.000
     240 -> 247       -0.13520
     243 -> 247       -0.43369
     244 -> 247        0.49958
     246 -> 249       -0.12188

 The electronic state is 1-A.
 Alpha  occ. eigenvalues --  -46.92193 -19.26945 -19.25236 -19.23473 -19.20328
 Alpha  occ. eigenvalues --  -19.19842 -19.18840 -14.41852 -14.41069 -14.39634
 Alpha  occ. eigenvalues --  -14.39037 -10.39459 -10.36010 -10.32928 -10.31329
 Alpha  occ. eigenvalues --  -10.29543 -10.29413 -10.28728 -10.28411 -10.28314
 Alpha  occ. eigenvalues --  -10.28264 -10.27892 -10.27527 -10.27106 -10.26963
 Alpha  occ. eigenvalues --  -10.26359 -10.26164 -10.25966 -10.25761 -10.25567
 Alpha  occ. eigenvalues --  -10.25536 -10.25419 -10.25414 -10.25279 -10.24935
 Alpha  occ. eigenvalues --  -10.24772 -10.24709 -10.24473 -10.24354 -10.24098
 Alpha  occ. eigenvalues --  -10.24093 -10.24082 -10.23898 -10.23854 -10.23843
 Alpha  occ. eigenvalues --  -10.23831 -10.23789 -10.23600 -10.23541 -10.23500
 Alpha  occ. eigenvalues --  -10.23434 -10.23232 -10.23165 -10.23085 -10.23066
 Alpha  occ. eigenvalues --  -10.23021 -10.22747 -10.22554 -10.22533 -10.22416
 Alpha  occ. eigenvalues --  -10.22400 -10.22329 -10.22220 -10.21921 -10.21848
 Alpha  occ. eigenvalues --  -10.21748  -3.14283  -1.87139  -1.86632  -1.86521
 Alpha  occ. eigenvalues --   -1.11211  -1.10826  -1.05839  -1.04593  -1.04374
 Alpha  occ. eigenvalues --   -1.03112  -0.99868  -0.98323  -0.97895  -0.96994
 Alpha  occ. eigenvalues --   -0.87938  -0.85877  -0.84049  -0.83882  -0.83768
 Alpha  occ. eigenvalues --   -0.83004  -0.82607  -0.81848  -0.81480  -0.81295
 Alpha  occ. eigenvalues --   -0.80592  -0.79776  -0.78606  -0.78506  -0.78010
 Alpha  occ. eigenvalues --   -0.76947  -0.76335  -0.75483  -0.74957  -0.74631
 Alpha  occ. eigenvalues --   -0.73932  -0.72803  -0.72116  -0.72013  -0.71072
 Alpha  occ. eigenvalues --   -0.70142  -0.69992  -0.69536  -0.69049  -0.68541
 Alpha  occ. eigenvalues --   -0.67715  -0.66655  -0.66302  -0.64714  -0.63444
 Alpha  occ. eigenvalues --   -0.63340  -0.63067  -0.62147  -0.61823  -0.60492
 Alpha  occ. eigenvalues --   -0.59860  -0.59737  -0.59639  -0.59062  -0.58828
 Alpha  occ. eigenvalues --   -0.57923  -0.57625  -0.56772  -0.56461  -0.54756
 Alpha  occ. eigenvalues --   -0.54552  -0.54089  -0.53722  -0.53457  -0.52551
 Alpha  occ. eigenvalues --   -0.52082  -0.51585  -0.51090  -0.50905  -0.50356
 Alpha  occ. eigenvalues --   -0.50258  -0.50014  -0.49612  -0.48871  -0.48621
 Alpha  occ. eigenvalues --   -0.48379  -0.48330  -0.48152  -0.48009  -0.47509
 Alpha  occ. eigenvalues --   -0.47435  -0.47089  -0.46998  -0.46844  -0.46704
 Alpha  occ. eigenvalues --   -0.46259  -0.46154  -0.45770  -0.45532  -0.45250
 Alpha  occ. eigenvalues --   -0.45199  -0.45143  -0.44961  -0.44929  -0.44427
 Alpha  occ. eigenvalues --   -0.44051  -0.43906  -0.43752  -0.43619  -0.43470
 Alpha  occ. eigenvalues --   -0.43272  -0.43187  -0.43046  -0.42940  -0.42890
 Alpha  occ. eigenvalues --   -0.42674  -0.42461  -0.42181  -0.42076  -0.41320
 Alpha  occ. eigenvalues --   -0.41238  -0.41017  -0.40920  -0.40610  -0.40594
 Alpha  occ. eigenvalues --   -0.40345  -0.40206  -0.40137  -0.40088  -0.39840
 Alpha  occ. eigenvalues --   -0.39466  -0.39265  -0.39189  -0.38817  -0.38506
 Alpha  occ. eigenvalues --   -0.38332  -0.38287  -0.38210  -0.38126  -0.38014
 Alpha  occ. eigenvalues --   -0.37902  -0.37770  -0.37571  -0.37119  -0.36988
 Alpha  occ. eigenvalues --   -0.36945  -0.36673  -0.36610  -0.36241  -0.36131
 Alpha  occ. eigenvalues --   -0.36003  -0.35852  -0.35463  -0.35380  -0.35248
 Alpha  occ. eigenvalues --   -0.34813  -0.34672  -0.34481  -0.33984  -0.33690
 Alpha  occ. eigenvalues --   -0.33515  -0.33411  -0.33001  -0.32793  -0.32645
 Alpha  occ. eigenvalues --   -0.32579  -0.32076  -0.32023  -0.31580  -0.31491
 Alpha  occ. eigenvalues --   -0.31130  -0.30767  -0.30661  -0.30178  -0.30104
 Alpha  occ. eigenvalues --   -0.29626  -0.29291  -0.28722  -0.26948  -0.26289
 Alpha  occ. eigenvalues --   -0.25916  -0.25842  -0.25598  -0.25121  -0.21174
 Alpha  occ. eigenvalues --   -0.18380
 Alpha virt. eigenvalues --   -0.10510  -0.06258  -0.04208  -0.02422  -0.02389
 Alpha virt. eigenvalues --    0.00023   0.00287   0.01133   0.01253   0.03039
 Alpha virt. eigenvalues --    0.03267   0.04084   0.04988   0.05308   0.06046

 Mulliken charges:
               1
     1  Mg   0.969025
     2  C   -0.020762
     3  C   -0.080728
     4  C   -0.058940
     5  C   -0.081832
     6  N   -0.339716
     7  C    0.005796
     8  C   -0.159427
     9  C   -0.141275
    10  C   -0.007717
    11  C    0.034873
    12  C    0.017354
    13  C    0.036733
    14  C    0.255161
    15  O   -0.254558
    16  O   -0.382902
    17  N   -0.489547
    18  C    0.281674
    19  C   -0.203660
    20  C   -0.029173
    21  C    0.177029
    22  C    0.062647
    23  C    0.027776
    24  O   -0.230654
    25  C   -0.040491
    26  N   -0.404729
    27  C    0.045857
    28  C   -0.114464
    29  C   -0.107428
    30  C    0.096212
    31  C   -0.007796
    32  C   -0.000040
    33  C   -0.074648
    34  N   -0.489451
    35  C    0.177870
    36  C   -0.188348
    37  C   -0.046031
    38  C    0.177318
    39  C    0.059894
    40  C    0.141710
    41  O   -0.216198
    42  C   -0.098172
    43  C    0.273082
    44  O   -0.245887
    45  O   -0.364145
    46  C    0.115557
    47  C    0.222144
    48  C   -0.131559
    49  C   -0.220584
    50  C    0.012412
    51  C    0.007591
    52  C   -0.027947
    53  C   -0.018949
    54  C   -0.211961
    55  C    0.008225
    56  C   -0.030908
    57  C   -0.028137
    58  C    0.027729
    59  C   -0.259413
    60  C   -0.029924
    61  C   -0.011634
    62  C   -0.060579
    63  C   -0.034428
    64  C   -0.218966
    65  C   -0.025758
    66  C   -0.011055
    67  H   -0.004100
    68  H    0.019110
    69  H    0.008069
    70  H    0.052425
    71  H    0.029794
    72  H    0.058414
    73  H    0.039702
    74  H    0.045483
    75  H    0.032690
    76  H    0.064682
    77  H    0.059661
    78  H    0.060127
    79  H    0.050643
    80  H    0.065100
    81  H    0.031994
    82  H    0.050131
    83  H    0.056233
    84  H    0.080568
    85  H    0.066726
    86  H    0.054580
    87  H    0.036103
    88  H    0.051136
    89  H    0.047609
    90  H    0.043435
    91  H    0.037845
    92  H    0.017113
    93  H    0.039290
    94  H    0.045505
    95  H    0.044384
    96  H    0.074477
    97  H    0.042019
    98  H    0.080797
    99  H    0.059179
   100  H    0.056444
   101  H    0.043463
   102  H    0.067940
   103  H    0.047230
   104  H    0.027622
   105  H    0.056749
   106  H    0.054699
   107  H    0.030885
   108  H    0.042322
   109  H    0.029251
   110  H    0.034011
   111  H    0.025341
   112  H    0.019625
   113  H    0.030000
   114  H    0.027500
   115  H    0.039509
   116  H    0.031721
   117  H    0.033176
   118  H    0.017419
   119  H    0.017494
   120  H    0.033052
   121  H    0.026418
   122  H    0.032169
   123  H    0.035149
   124  H    0.035549
   125  H    0.041704
   126  H    0.032906
   127  H    0.021698
   128  H    0.033659
   129  H    0.033167
   130  H    0.043484
   131  H    0.044896
   132  H    0.029544
   133  H    0.014667
   134  H    0.033998
   135  H    0.022684
   136  H    0.040158
   137  H    0.024504
   138  H    0.037465
   139  H    0.031761
   140  H    0.044895
 Sum of Mulliken charges =  -0.00000

 Dipole moment (field-independent basis, Debye):
    X=              5.4242    Y=              4.4699    Z=              0.2018  Tot=              7.0315
 Quadrupole moment (field-independent basis, Debye-Ang):
   XX=           -391.0813   YY=           -434.5004   ZZ=           -403.9836
   XY=            -43.5882   XZ=             -4.6835   YZ=             10.8883

 Normal termination of Gaussian 16 at Thu May  5 14:52:18 2022.
