 Gaussian 16, Revision A.03,
 Gaussian 16:  ES64L-G16RevA.03 25-Dec-2016

 --------------------------------
 #p wB97XD/Def2SVP td=(nstates=5)
 --------------------------------

 ----------------------------------------------------
 step_951_chromophore_15 TDDFT with wB97XD functional
 ----------------------------------------------------
 Symbolic Z-matrix:
 Charge =  0 Multiplicity = 1

                         Standard orientation:
 ---------------------------------------------------------------------
 Center     Atomic      Atomic             Coordinates (Angstroms)
 Number     Number       Type             X           Y           Z
 ---------------------------------------------------------------------
      1         12           0       -4.716230    1.007228   -0.146449
      2          6           0       -4.532714   -2.403924    0.386845
      3          6           0       -1.294244    1.111552    0.038861
      4          6           0       -4.782874    4.405841    0.058139
      5          6           0       -8.178156    0.889627    0.488059
      6          7           0       -3.059574   -0.504973    0.100800
      7          6           0       -3.280868   -1.854877    0.116307
      8          6           0       -1.927227   -2.564630   -0.123406
      9          6           0       -0.985929   -1.438338    0.341922
     10          6           0       -1.810294   -0.153499    0.137523
     11          6           0       -0.498246   -1.633177    1.807426
     12          6           0       -1.812892   -2.963404   -1.635833
     13          6           0       -0.805074   -4.018070   -2.012670
     14          6           0        0.405434   -4.402476   -0.966399
     15          8           0        0.374545   -5.254475   -0.066807
     16          8           0        1.556996   -3.673501   -1.428951
     17          7           0       -3.273243    2.522319   -0.250812
     18          6           0       -1.942418    2.309678   -0.142220
     19          6           0       -1.266464    3.602718   -0.421148
     20          6           0       -2.252465    4.627574   -0.575268
     21          6           0       -3.551744    3.871974   -0.193063
     22          6           0        0.201583    3.716523   -0.602745
     23          6           0       -2.133228    6.115000   -0.796521
     24          8           0       -3.112713    6.778718   -1.068180
     25          6           0       -0.710199    6.762035   -0.958150
     26          7           0       -6.294430    2.457686    0.014387
     27          6           0       -6.083210    3.805152    0.250812
     28          6           0       -7.418495    4.583897    0.430716
     29          6           0       -8.442062    3.381804    0.558960
     30          6           0       -7.627348    2.179600    0.203581
     31          6           0       -7.349516    5.601630    1.606694
     32          6           0       -9.691300    3.552838   -0.298393
     33          6           0      -11.019018    3.336933    0.287269
     34          7           0       -6.116150   -0.412509    0.343257
     35          6           0       -7.453898   -0.313491    0.505490
     36          6           0       -7.962102   -1.697465    0.811732
     37          6           0       -6.816955   -2.524689    0.808191
     38          6           0       -5.741423   -1.716851    0.511570
     39          6           0       -9.311065   -2.225615    1.056622
     40          6           0       -6.388160   -3.856647    1.016000
     41          8           0       -7.005801   -4.859377    1.337722
     42          6           0       -4.841013   -3.801452    0.877029
     43          6           0       -4.390248   -4.842539   -0.053679
     44          8           0       -4.803196   -5.023650   -1.188442
     45          8           0       -3.430187   -5.615982    0.618425
     46          6           0       -2.701392   -6.488140   -0.205604
     47          6           0        2.721918   -3.925833   -0.662348
     48          6           0        3.934977   -3.333310   -1.387337
     49          6           0        5.185082   -3.568340   -1.080473
     50          6           0        5.551361   -4.303332    0.213458
     51          6           0        6.228716   -2.840200   -1.765110
     52          6           0        6.488272   -1.372667   -1.225740
     53          6           0        7.859777   -0.742424   -1.761681
     54          6           0        7.773521    0.466924   -2.716585
     55          6           0        7.173084    0.162095   -4.094189
     56          6           0        9.193757    1.129497   -2.792129
     57          6           0        9.494628    2.388834   -1.972894
     58          6           0       10.918504    2.854116   -1.818368
     59          6           0       11.349105    2.812929   -0.278413
     60          6           0       12.721811    3.621208   -0.136832
     61          6           0       11.460928    1.363713    0.373869
     62          6           0       11.898549    1.397953    1.871653
     63          6           0       11.133037    0.298984    2.776961
     64          6           0       11.190467    0.543395    4.274730
     65          6           0       12.511956   -0.098117    4.868765
     66          6           0        9.852448    0.248831    5.014349
     67          1           0       -0.213055    0.954999    0.037021
     68          1           0       -4.902082    5.490285    0.088980
     69          1           0       -9.222501    0.950292    0.801318
     70          1           0       -1.824801   -3.437272    0.520941
     71          1           0       -0.116220   -1.421663   -0.315847
     72          1           0       -1.006914   -0.970999    2.508060
     73          1           0        0.587053   -1.545613    1.766956
     74          1           0       -0.636192   -2.662043    2.140993
     75          1           0       -1.660451   -2.016237   -2.154681
     76          1           0       -2.848625   -3.201800   -1.876662
     77          1           0       -0.388126   -3.646336   -2.949290
     78          1           0       -1.336270   -4.934281   -2.270891
     79          1           0        0.628828    4.483253    0.043372
     80          1           0        0.452073    3.855521   -1.654187
     81          1           0        0.730027    2.804607   -0.320805
     82          1           0       -0.183459    6.503748   -0.038973
     83          1           0       -0.994582    7.813687   -0.925912
     84          1           0       -0.137684    6.509217   -1.850736
     85          1           0       -7.485368    5.319729   -0.369579
     86          1           0       -8.767094    3.271667    1.593296
     87          1           0       -7.290674    6.594223    1.160341
     88          1           0       -6.415116    5.539222    2.164009
     89          1           0       -8.243890    5.567701    2.230185
     90          1           0       -9.620983    2.852571   -1.130502
     91          1           0       -9.775967    4.538213   -0.756670
     92          1           0      -10.942170    3.045869    1.335492
     93          1           0      -11.521900    2.461839   -0.124750
     94          1           0      -11.720078    4.171130    0.324216
     95          1           0       -9.640194   -1.887762    2.039285
     96          1           0       -9.129664   -3.300625    1.050234
     97          1           0      -10.121772   -1.855482    0.429051
     98          1           0       -4.385109   -4.036251    1.839062
     99          1           0       -1.747199   -6.641428    0.298314
    100          1           0       -2.532562   -6.230454   -1.251404
    101          1           0       -3.193167   -7.446669   -0.040346
    102          1           0        2.827272   -4.999421   -0.503023
    103          1           0        2.596995   -3.417934    0.293017
    104          1           0        3.722225   -2.846490   -2.338740
    105          1           0        5.814930   -3.492416    0.892362
    106          1           0        6.294249   -5.090859    0.085900
    107          1           0        4.673406   -4.798868    0.628742
    108          1           0        5.923959   -2.762590   -2.809358
    109          1           0        7.109993   -3.475336   -1.675460
    110          1           0        6.426443   -1.250494   -0.143970
    111          1           0        5.689929   -0.752643   -1.632418
    112          1           0        8.302351   -1.628757   -2.215952
    113          1           0        8.602718   -0.613380   -0.973915
    114          1           0        7.071758    1.216749   -2.351025
    115          1           0        6.254111    0.737855   -4.203526
    116          1           0        6.958219   -0.902826   -4.189643
    117          1           0        7.947809    0.428600   -4.812422
    118          1           0        9.440216    1.325913   -3.835758
    119          1           0        9.904785    0.370665   -2.464174
    120          1           0        9.030866    2.199123   -1.004526
    121          1           0        8.884671    3.101793   -2.526960
    122          1           0       10.986344    3.912304   -2.071845
    123          1           0       11.699073    2.277124   -2.315233
    124          1           0       10.630263    3.386803    0.307001
    125          1           0       13.296840    3.331024    0.742297
    126          1           0       12.589735    4.701180   -0.194954
    127          1           0       13.333950    3.446885   -1.021763
    128          1           0       12.005876    0.686919   -0.284337
    129          1           0       10.431790    1.006755    0.423200
    130          1           0       11.746480    2.377552    2.323253
    131          1           0       12.949055    1.108504    1.846875
    132          1           0       11.461588   -0.693353    2.468948
    133          1           0       10.078385    0.271354    2.502239
    134          1           0       11.387774    1.605413    4.416371
    135          1           0       13.083642    0.691223    5.357087
    136          1           0       13.203552   -0.575436    4.174595
    137          1           0       12.338485   -0.751314    5.724155
    138          1           0        9.279779    1.175312    4.956188
    139          1           0        9.993152    0.097628    6.085353
    140          1           0        9.314558   -0.591759    4.577333
 ---------------------------------------------------------------------

 SCF Done:  E(RwB97XD) =  -3007.86196335     A.U. after   19 cycles

 Excitation energies and oscillator strengths:

 Excited State   1:      Singlet-A      1.7439 eV  710.96 nm  f=0.3443  <S**2>=0.000
     245 -> 248       -0.19299
     246 -> 247        0.67789
     245 <- 248       -0.11058
 This state for optimization and/or second-order correction.
 Total Energy, E(TD-HF/TD-DFT) =  -3007.79787588
 Copying the excited state density for this state as the 1-particle RhoCI density.

 Excited State   2:      Singlet-A      2.2516 eV  550.65 nm  f=0.0177  <S**2>=0.000
     245 -> 247        0.56390
     246 -> 248        0.40876

 Excited State   3:      Singlet-A      3.3400 eV  371.21 nm  f=0.7423  <S**2>=0.000
     241 -> 247       -0.18040
     245 -> 247       -0.38699
     246 -> 248        0.56043
     245 <- 247        0.10307

 Excited State   4:      Singlet-A      3.6550 eV  339.22 nm  f=0.0058  <S**2>=0.000
     239 -> 247        0.32772
     239 -> 248       -0.15196
     239 -> 249        0.25450
     239 -> 250        0.14350
     240 -> 247       -0.21094
     240 -> 249       -0.13699
     241 -> 247        0.29812
     243 -> 247        0.14658
     244 -> 247       -0.25207

 Excited State   5:      Singlet-A      3.7035 eV  334.78 nm  f=0.0295  <S**2>=0.000
     239 -> 247        0.28293
     239 -> 248       -0.13215
     239 -> 249        0.21929
     239 -> 250        0.11668
     240 -> 247       -0.10401
     241 -> 247       -0.31181
     243 -> 247       -0.18750
     244 -> 247        0.38139

 The electronic state is 1-A.
 Alpha  occ. eigenvalues --  -46.95149 -19.31450 -19.29699 -19.28114 -19.24998
 Alpha  occ. eigenvalues --  -19.24966 -19.23353 -14.46946 -14.46127 -14.44738
 Alpha  occ. eigenvalues --  -14.43789 -10.46219 -10.42758 -10.40087 -10.37927
 Alpha  occ. eigenvalues --  -10.36017 -10.36013 -10.35488 -10.35167 -10.34501
 Alpha  occ. eigenvalues --  -10.34437 -10.34221 -10.33957 -10.33560 -10.33361
 Alpha  occ. eigenvalues --  -10.32772 -10.32562 -10.32454 -10.31890 -10.31767
 Alpha  occ. eigenvalues --  -10.31675 -10.31629 -10.31597 -10.31331 -10.31312
 Alpha  occ. eigenvalues --  -10.31187 -10.31085 -10.30984 -10.30693 -10.30644
 Alpha  occ. eigenvalues --  -10.30598 -10.30595 -10.30496 -10.30248 -10.30240
 Alpha  occ. eigenvalues --  -10.30176 -10.30146 -10.30007 -10.29985 -10.29946
 Alpha  occ. eigenvalues --  -10.29835 -10.29560 -10.29478 -10.29473 -10.29450
 Alpha  occ. eigenvalues --  -10.29405 -10.29132 -10.28979 -10.28834 -10.28733
 Alpha  occ. eigenvalues --  -10.28729 -10.28687 -10.28662 -10.28377 -10.28285
 Alpha  occ. eigenvalues --  -10.27677  -3.21094  -1.94700  -1.94194  -1.94079
 Alpha  occ. eigenvalues --   -1.18564  -1.18132  -1.13641  -1.11907  -1.11586
 Alpha  occ. eigenvalues --   -1.10387  -1.07263  -1.05567  -1.05375  -1.04380
 Alpha  occ. eigenvalues --   -0.95331  -0.93546  -0.91678  -0.91515  -0.91405
 Alpha  occ. eigenvalues --   -0.90733  -0.90309  -0.89629  -0.89278  -0.88998
 Alpha  occ. eigenvalues --   -0.87969  -0.87428  -0.86188  -0.86095  -0.85667
 Alpha  occ. eigenvalues --   -0.84618  -0.83961  -0.83249  -0.82716  -0.82277
 Alpha  occ. eigenvalues --   -0.81624  -0.80539  -0.79826  -0.79626  -0.78773
 Alpha  occ. eigenvalues --   -0.77710  -0.77645  -0.77157  -0.76755  -0.76245
 Alpha  occ. eigenvalues --   -0.75323  -0.74051  -0.73857  -0.72367  -0.71013
 Alpha  occ. eigenvalues --   -0.70846  -0.70564  -0.69897  -0.69503  -0.67953
 Alpha  occ. eigenvalues --   -0.67347  -0.67336  -0.67230  -0.66487  -0.66269
 Alpha  occ. eigenvalues --   -0.65641  -0.65300  -0.64123  -0.64117  -0.62189
 Alpha  occ. eigenvalues --   -0.62038  -0.61601  -0.61220  -0.60820  -0.59905
 Alpha  occ. eigenvalues --   -0.59447  -0.59046  -0.58522  -0.58330  -0.57752
 Alpha  occ. eigenvalues --   -0.57632  -0.57416  -0.57001  -0.56149  -0.56109
 Alpha  occ. eigenvalues --   -0.55837  -0.55752  -0.55568  -0.55435  -0.55176
 Alpha  occ. eigenvalues --   -0.54736  -0.54621  -0.54491  -0.54235  -0.53978
 Alpha  occ. eigenvalues --   -0.53655  -0.53480  -0.52932  -0.52910  -0.52660
 Alpha  occ. eigenvalues --   -0.52567  -0.52546  -0.52435  -0.52275  -0.51763
 Alpha  occ. eigenvalues --   -0.51446  -0.51389  -0.51112  -0.50943  -0.50684
 Alpha  occ. eigenvalues --   -0.50599  -0.50484  -0.50366  -0.50185  -0.50155
 Alpha  occ. eigenvalues --   -0.49992  -0.49753  -0.49512  -0.49423  -0.48552
 Alpha  occ. eigenvalues --   -0.48465  -0.48260  -0.48183  -0.47890  -0.47720
 Alpha  occ. eigenvalues --   -0.47491  -0.47414  -0.47286  -0.47177  -0.46897
 Alpha  occ. eigenvalues --   -0.46569  -0.46477  -0.46364  -0.46195  -0.45834
 Alpha  occ. eigenvalues --   -0.45562  -0.45364  -0.45253  -0.45189  -0.45110
 Alpha  occ. eigenvalues --   -0.45052  -0.44890  -0.44763  -0.44249  -0.44118
 Alpha  occ. eigenvalues --   -0.43995  -0.43846  -0.43684  -0.43323  -0.43142
 Alpha  occ. eigenvalues --   -0.42980  -0.42968  -0.42569  -0.42393  -0.42246
 Alpha  occ. eigenvalues --   -0.41801  -0.41745  -0.41519  -0.41076  -0.40701
 Alpha  occ. eigenvalues --   -0.40579  -0.40391  -0.40027  -0.39805  -0.39681
 Alpha  occ. eigenvalues --   -0.39670  -0.39127  -0.38967  -0.38599  -0.38359
 Alpha  occ. eigenvalues --   -0.38161  -0.37729  -0.37553  -0.37125  -0.36993
 Alpha  occ. eigenvalues --   -0.36508  -0.36127  -0.35419  -0.33817  -0.33521
 Alpha  occ. eigenvalues --   -0.32767  -0.32595  -0.32437  -0.31358  -0.26286
 Alpha  occ. eigenvalues --   -0.22550
 Alpha virt. eigenvalues --   -0.06132  -0.00899   0.01957   0.04152   0.04457
 Alpha virt. eigenvalues --    0.05919   0.07196   0.07829   0.07960   0.09317
 Alpha virt. eigenvalues --    0.09812   0.10817   0.11718   0.12040   0.12799

 Mulliken charges:
               1
     1  Mg   0.959683
     2  C   -0.022741
     3  C   -0.102719
     4  C   -0.078001
     5  C   -0.095700
     6  N   -0.303886
     7  C   -0.035188
     8  C   -0.122027
     9  C   -0.111312
    10  C   -0.024903
    11  C    0.040423
    12  C    0.026429
    13  C    0.055021
    14  C    0.244176
    15  O   -0.250503
    16  O   -0.382172
    17  N   -0.461541
    18  C    0.282273
    19  C   -0.187648
    20  C   -0.030887
    21  C    0.182316
    22  C    0.073072
    23  C    0.025485
    24  O   -0.223894
    25  C   -0.027793
    26  N   -0.373357
    27  C    0.037708
    28  C   -0.094985
    29  C   -0.070792
    30  C    0.076037
    31  C    0.000526
    32  C    0.010090
    33  C   -0.060343
    34  N   -0.447585
    35  C    0.161535
    36  C   -0.187337
    37  C   -0.040003
    38  C    0.160070
    39  C    0.071509
    40  C    0.118720
    41  O   -0.207030
    42  C   -0.054291
    43  C    0.245271
    44  O   -0.238549
    45  O   -0.360866
    46  C    0.130623
    47  C    0.234953
    48  C   -0.144238
    49  C   -0.204747
    50  C    0.026879
    51  C    0.031504
    52  C   -0.014858
    53  C    0.000274
    54  C   -0.185881
    55  C    0.021429
    56  C   -0.011943
    57  C   -0.007239
    58  C    0.038596
    59  C   -0.225879
    60  C   -0.017098
    61  C    0.006451
    62  C   -0.044003
    63  C   -0.019601
    64  C   -0.189738
    65  C   -0.016571
    66  C    0.002260
    67  H   -0.011642
    68  H    0.014022
    69  H    0.001600
    70  H    0.032109
    71  H    0.018362
    72  H    0.053954
    73  H    0.034397
    74  H    0.041611
    75  H    0.023792
    76  H    0.054892
    77  H    0.055336
    78  H    0.052665
    79  H    0.046552
    80  H    0.062514
    81  H    0.029360
    82  H    0.043455
    83  H    0.055517
    84  H    0.078501
    85  H    0.057903
    86  H    0.041340
    87  H    0.030923
    88  H    0.044645
    89  H    0.043497
    90  H    0.034996
    91  H    0.029709
    92  H    0.009263
    93  H    0.034099
    94  H    0.040679
    95  H    0.036673
    96  H    0.068221
    97  H    0.035480
    98  H    0.075398
    99  H    0.055162
   100  H    0.048205
   101  H    0.040623
   102  H    0.061345
   103  H    0.040931
   104  H    0.024972
   105  H    0.049508
   106  H    0.050516
   107  H    0.024851
   108  H    0.032433
   109  H    0.020256
   110  H    0.027096
   111  H    0.014625
   112  H    0.007902
   113  H    0.019726
   114  H    0.015365
   115  H    0.034835
   116  H    0.023142
   117  H    0.026856
   118  H    0.008156
   119  H    0.004318
   120  H    0.020105
   121  H    0.018308
   122  H    0.024859
   123  H    0.026272
   124  H    0.022837
   125  H    0.035097
   126  H    0.027316
   127  H    0.014271
   128  H    0.027092
   129  H    0.013741
   130  H    0.033507
   131  H    0.035745
   132  H    0.021379
   133  H    0.004279
   134  H    0.021919
   135  H    0.016847
   136  H    0.034799
   137  H    0.018794
   138  H    0.031193
   139  H    0.026399
   140  H    0.039134
 Sum of Mulliken charges =  -0.00000

 Dipole moment (field-independent basis, Debye):
    X=              6.1360    Y=              5.2157    Z=              0.0654  Tot=              8.0534
 Quadrupole moment (field-independent basis, Debye-Ang):
   XX=           -397.4541   YY=           -431.9885   ZZ=           -403.5795
   XY=            -45.3270   XZ=             -4.0735   YZ=             10.6997

 Normal termination of Gaussian 16 at Thu May  5 15:41:32 2022.
