 Gaussian 16, Revision A.03,
 Gaussian 16:  ES64L-G16RevA.03 25-Dec-2016

 --------------------
 #p ZINDO=(nstates=5)
 --------------------

 -----------------------------
 step_951_chromophore_15 ZINDO
 -----------------------------
 Symbolic Z-matrix:
 Charge =  0 Multiplicity = 1

                         Standard orientation:
 ---------------------------------------------------------------------
 Center     Atomic      Atomic             Coordinates (Angstroms)
 Number     Number       Type             X           Y           Z
 ---------------------------------------------------------------------
      1         12           0       -4.716230    1.007228   -0.146449
      2          6           0       -4.532714   -2.403924    0.386845
      3          6           0       -1.294244    1.111552    0.038861
      4          6           0       -4.782874    4.405841    0.058139
      5          6           0       -8.178156    0.889627    0.488059
      6          7           0       -3.059574   -0.504973    0.100800
      7          6           0       -3.280868   -1.854877    0.116307
      8          6           0       -1.927227   -2.564630   -0.123406
      9          6           0       -0.985929   -1.438338    0.341922
     10          6           0       -1.810294   -0.153499    0.137523
     11          6           0       -0.498246   -1.633177    1.807426
     12          6           0       -1.812892   -2.963404   -1.635833
     13          6           0       -0.805074   -4.018070   -2.012670
     14          6           0        0.405434   -4.402476   -0.966399
     15          8           0        0.374545   -5.254475   -0.066807
     16          8           0        1.556996   -3.673501   -1.428951
     17          7           0       -3.273243    2.522319   -0.250812
     18          6           0       -1.942418    2.309678   -0.142220
     19          6           0       -1.266464    3.602718   -0.421148
     20          6           0       -2.252465    4.627574   -0.575268
     21          6           0       -3.551744    3.871974   -0.193063
     22          6           0        0.201583    3.716523   -0.602745
     23          6           0       -2.133228    6.115000   -0.796521
     24          8           0       -3.112713    6.778718   -1.068180
     25          6           0       -0.710199    6.762035   -0.958150
     26          7           0       -6.294430    2.457686    0.014387
     27          6           0       -6.083210    3.805152    0.250812
     28          6           0       -7.418495    4.583897    0.430716
     29          6           0       -8.442062    3.381804    0.558960
     30          6           0       -7.627348    2.179600    0.203581
     31          6           0       -7.349516    5.601630    1.606694
     32          6           0       -9.691300    3.552838   -0.298393
     33          6           0      -11.019018    3.336933    0.287269
     34          7           0       -6.116150   -0.412509    0.343257
     35          6           0       -7.453898   -0.313491    0.505490
     36          6           0       -7.962102   -1.697465    0.811732
     37          6           0       -6.816955   -2.524689    0.808191
     38          6           0       -5.741423   -1.716851    0.511570
     39          6           0       -9.311065   -2.225615    1.056622
     40          6           0       -6.388160   -3.856647    1.016000
     41          8           0       -7.005801   -4.859377    1.337722
     42          6           0       -4.841013   -3.801452    0.877029
     43          6           0       -4.390248   -4.842539   -0.053679
     44          8           0       -4.803196   -5.023650   -1.188442
     45          8           0       -3.430187   -5.615982    0.618425
     46          6           0       -2.701392   -6.488140   -0.205604
     47          6           0        2.721918   -3.925833   -0.662348
     48          6           0        3.934977   -3.333310   -1.387337
     49          6           0        5.185082   -3.568340   -1.080473
     50          6           0        5.551361   -4.303332    0.213458
     51          6           0        6.228716   -2.840200   -1.765110
     52          6           0        6.488272   -1.372667   -1.225740
     53          6           0        7.859777   -0.742424   -1.761681
     54          6           0        7.773521    0.466924   -2.716585
     55          6           0        7.173084    0.162095   -4.094189
     56          6           0        9.193757    1.129497   -2.792129
     57          6           0        9.494628    2.388834   -1.972894
     58          6           0       10.918504    2.854116   -1.818368
     59          6           0       11.349105    2.812929   -0.278413
     60          6           0       12.721811    3.621208   -0.136832
     61          6           0       11.460928    1.363713    0.373869
     62          6           0       11.898549    1.397953    1.871653
     63          6           0       11.133037    0.298984    2.776961
     64          6           0       11.190467    0.543395    4.274730
     65          6           0       12.511956   -0.098117    4.868765
     66          6           0        9.852448    0.248831    5.014349
     67          1           0       -0.213055    0.954999    0.037021
     68          1           0       -4.902082    5.490285    0.088980
     69          1           0       -9.222501    0.950292    0.801318
     70          1           0       -1.824801   -3.437272    0.520941
     71          1           0       -0.116220   -1.421663   -0.315847
     72          1           0       -1.006914   -0.970999    2.508060
     73          1           0        0.587053   -1.545613    1.766956
     74          1           0       -0.636192   -2.662043    2.140993
     75          1           0       -1.660451   -2.016237   -2.154681
     76          1           0       -2.848625   -3.201800   -1.876662
     77          1           0       -0.388126   -3.646336   -2.949290
     78          1           0       -1.336270   -4.934281   -2.270891
     79          1           0        0.628828    4.483253    0.043372
     80          1           0        0.452073    3.855521   -1.654187
     81          1           0        0.730027    2.804607   -0.320805
     82          1           0       -0.183459    6.503748   -0.038973
     83          1           0       -0.994582    7.813687   -0.925912
     84          1           0       -0.137684    6.509217   -1.850736
     85          1           0       -7.485368    5.319729   -0.369579
     86          1           0       -8.767094    3.271667    1.593296
     87          1           0       -7.290674    6.594223    1.160341
     88          1           0       -6.415116    5.539222    2.164009
     89          1           0       -8.243890    5.567701    2.230185
     90          1           0       -9.620983    2.852571   -1.130502
     91          1           0       -9.775967    4.538213   -0.756670
     92          1           0      -10.942170    3.045869    1.335492
     93          1           0      -11.521900    2.461839   -0.124750
     94          1           0      -11.720078    4.171130    0.324216
     95          1           0       -9.640194   -1.887762    2.039285
     96          1           0       -9.129664   -3.300625    1.050234
     97          1           0      -10.121772   -1.855482    0.429051
     98          1           0       -4.385109   -4.036251    1.839062
     99          1           0       -1.747199   -6.641428    0.298314
    100          1           0       -2.532562   -6.230454   -1.251404
    101          1           0       -3.193167   -7.446669   -0.040346
    102          1           0        2.827272   -4.999421   -0.503023
    103          1           0        2.596995   -3.417934    0.293017
    104          1           0        3.722225   -2.846490   -2.338740
    105          1           0        5.814930   -3.492416    0.892362
    106          1           0        6.294249   -5.090859    0.085900
    107          1           0        4.673406   -4.798868    0.628742
    108          1           0        5.923959   -2.762590   -2.809358
    109          1           0        7.109993   -3.475336   -1.675460
    110          1           0        6.426443   -1.250494   -0.143970
    111          1           0        5.689929   -0.752643   -1.632418
    112          1           0        8.302351   -1.628757   -2.215952
    113          1           0        8.602718   -0.613380   -0.973915
    114          1           0        7.071758    1.216749   -2.351025
    115          1           0        6.254111    0.737855   -4.203526
    116          1           0        6.958219   -0.902826   -4.189643
    117          1           0        7.947809    0.428600   -4.812422
    118          1           0        9.440216    1.325913   -3.835758
    119          1           0        9.904785    0.370665   -2.464174
    120          1           0        9.030866    2.199123   -1.004526
    121          1           0        8.884671    3.101793   -2.526960
    122          1           0       10.986344    3.912304   -2.071845
    123          1           0       11.699073    2.277124   -2.315233
    124          1           0       10.630263    3.386803    0.307001
    125          1           0       13.296840    3.331024    0.742297
    126          1           0       12.589735    4.701180   -0.194954
    127          1           0       13.333950    3.446885   -1.021763
    128          1           0       12.005876    0.686919   -0.284337
    129          1           0       10.431790    1.006755    0.423200
    130          1           0       11.746480    2.377552    2.323253
    131          1           0       12.949055    1.108504    1.846875
    132          1           0       11.461588   -0.693353    2.468948
    133          1           0       10.078385    0.271354    2.502239
    134          1           0       11.387774    1.605413    4.416371
    135          1           0       13.083642    0.691223    5.357087
    136          1           0       13.203552   -0.575436    4.174595
    137          1           0       12.338485   -0.751314    5.724155
    138          1           0        9.279779    1.175312    4.956188
    139          1           0        9.993152    0.097628    6.085353
    140          1           0        9.314558   -0.591759    4.577333
 ---------------------------------------------------------------------

 SCF Done:  E(RZINDO/S) =  -474.335611482     A.U. after   19 cycles

 Excitation energies and oscillator strengths:

 Excited State   1:      Singlet-A      1.3578 eV  913.11 nm  f=0.5110  <S**2>=0.000
     175 ->178        -0.16837
     176 ->177         0.66837
 This state for optimization and/or second-order correction.
 Total Energy, E(CIS/TDA) =  -474.285712599
 Copying the excited state density for this state as the 1-particle RhoCI density.

 Excited State   2:      Singlet-A      1.8974 eV  653.45 nm  f=0.0084  <S**2>=0.000
     175 ->177         0.42613
     176 ->178         0.53410

 Excited State   3:      Singlet-A      2.8329 eV  437.66 nm  f=0.1848  <S**2>=0.000
     175 ->177        -0.21735
     176 ->178         0.26383
     176 ->179         0.54751
     176 ->181         0.11741
     176 ->183         0.10360

 Excited State   4:      Singlet-A      2.9534 eV  419.80 nm  f=0.0018  <S**2>=0.000
     167 ->177         0.29303
     167 ->178        -0.16581
     167 ->179        -0.36999
     167 ->181         0.20769
     167 ->185        -0.20875
     168 ->177         0.14947
     168 ->179        -0.17952
     168 ->181         0.10409
     168 ->185        -0.10088
     176 ->179        -0.13228

 Excited State   5:      Singlet-A      3.0070 eV  412.32 nm  f=0.9780  <S**2>=0.000
     175 ->177         0.45491
     176 ->178        -0.34146
     176 ->179         0.27454
     176 ->181         0.22321

 The electronic state is 1-A.
 Alpha  occ. eigenvalues --   -1.85728  -1.81910  -1.79421  -1.73182  -1.71900
 Alpha  occ. eigenvalues --   -1.70371  -1.63978  -1.59922  -1.59572  -1.59368
 Alpha  occ. eigenvalues --   -1.55846  -1.51414  -1.49410  -1.48172  -1.47997
 Alpha  occ. eigenvalues --   -1.44929  -1.44172  -1.40826  -1.39688  -1.38609
 Alpha  occ. eigenvalues --   -1.36780  -1.34629  -1.32923  -1.32129  -1.29047
 Alpha  occ. eigenvalues --   -1.27154  -1.25232  -1.22245  -1.20241  -1.18454
 Alpha  occ. eigenvalues --   -1.17465  -1.17156  -1.16953  -1.14543  -1.13375
 Alpha  occ. eigenvalues --   -1.12459  -1.11504  -1.11413  -1.04034  -1.03286
 Alpha  occ. eigenvalues --   -1.02425  -1.00179  -0.99473  -0.97709  -0.96541
 Alpha  occ. eigenvalues --   -0.95988  -0.94878  -0.93541  -0.92689  -0.91791
 Alpha  occ. eigenvalues --   -0.90650  -0.90553  -0.89323  -0.88267  -0.86710
 Alpha  occ. eigenvalues --   -0.85694  -0.85152  -0.83586  -0.82814  -0.80764
 Alpha  occ. eigenvalues --   -0.79978  -0.79527  -0.77036  -0.76820  -0.76471
 Alpha  occ. eigenvalues --   -0.76140  -0.74959  -0.73748  -0.73635  -0.73151
 Alpha  occ. eigenvalues --   -0.73127  -0.72261  -0.71837  -0.71004  -0.70599
 Alpha  occ. eigenvalues --   -0.69866  -0.69660  -0.69195  -0.68738  -0.68195
 Alpha  occ. eigenvalues --   -0.67866  -0.67567  -0.67281  -0.66517  -0.66273
 Alpha  occ. eigenvalues --   -0.65484  -0.65183  -0.64876  -0.64414  -0.64304
 Alpha  occ. eigenvalues --   -0.64168  -0.63709  -0.62935  -0.62648  -0.62429
 Alpha  occ. eigenvalues --   -0.61732  -0.61509  -0.60766  -0.60273  -0.59976
 Alpha  occ. eigenvalues --   -0.59715  -0.59242  -0.58965  -0.58633  -0.58366
 Alpha  occ. eigenvalues --   -0.58127  -0.57846  -0.57326  -0.57241  -0.56785
 Alpha  occ. eigenvalues --   -0.56367  -0.55558  -0.55183  -0.54891  -0.54603
 Alpha  occ. eigenvalues --   -0.54293  -0.53445  -0.53147  -0.52880  -0.52409
 Alpha  occ. eigenvalues --   -0.52306  -0.52166  -0.51745  -0.51513  -0.51393
 Alpha  occ. eigenvalues --   -0.51157  -0.50989  -0.50710  -0.50150  -0.49998
 Alpha  occ. eigenvalues --   -0.49711  -0.49628  -0.49388  -0.49272  -0.49092
 Alpha  occ. eigenvalues --   -0.48976  -0.48718  -0.48405  -0.48256  -0.47992
 Alpha  occ. eigenvalues --   -0.47497  -0.47407  -0.47141  -0.47023  -0.46597
 Alpha  occ. eigenvalues --   -0.46255  -0.46038  -0.45862  -0.45697  -0.45580
 Alpha  occ. eigenvalues --   -0.45384  -0.45211  -0.44664  -0.44602  -0.44369
 Alpha  occ. eigenvalues --   -0.44030  -0.43916  -0.43546  -0.43338  -0.43104
 Alpha  occ. eigenvalues --   -0.42156  -0.40988  -0.40740  -0.39887  -0.39256
 Alpha  occ. eigenvalues --   -0.37816  -0.36942  -0.36480  -0.34741  -0.33871
 Alpha  occ. eigenvalues --   -0.33769  -0.32989  -0.32562  -0.31347  -0.26932
 Alpha  occ. eigenvalues --   -0.21316
 Alpha virt. eigenvalues --   -0.07455  -0.02813  -0.01009   0.00284   0.01385
 Alpha virt. eigenvalues --    0.02139   0.02652   0.03268   0.04490   0.04798
 Alpha virt. eigenvalues --    0.05955   0.06286   0.07148   0.07322   0.08119

 Mulliken charges:
               1
     1  Mg   0.422397
     2  C   -0.030121
     3  C   -0.097503
     4  C   -0.066590
     5  C   -0.059293
     6  N   -0.279629
     7  C    0.085960
     8  C   -0.001941
     9  C    0.005863
    10  C    0.172520
    11  C   -0.050892
    12  C   -0.018458
    13  C    0.009600
    14  C    0.449535
    15  O   -0.489226
    16  O   -0.276891
    17  N   -0.332353
    18  C    0.156048
    19  C    0.034725
    20  C   -0.049433
    21  C    0.151403
    22  C   -0.040564
    23  C    0.326972
    24  O   -0.496783
    25  C   -0.039101
    26  N   -0.265387
    27  C    0.151945
    28  C   -0.002196
    29  C    0.017461
    30  C    0.072770
    31  C   -0.056217
    32  C   -0.020135
    33  C   -0.053689
    34  N   -0.309963
    35  C    0.070972
    36  C    0.003861
    37  C   -0.056980
    38  C    0.091663
    39  C   -0.040620
    40  C    0.338910
    41  O   -0.529164
    42  C    0.057881
    43  C    0.487828
    44  O   -0.520673
    45  O   -0.272925
    46  C    0.070559
    47  C    0.102992
    48  C   -0.094206
    49  C   -0.001587
    50  C   -0.050627
    51  C   -0.011661
    52  C   -0.036210
    53  C   -0.043202
    54  C   -0.005851
    55  C   -0.057844
    56  C   -0.039220
    57  C   -0.030255
    58  C   -0.028166
    59  C   -0.025845
    60  C   -0.069847
    61  C   -0.037384
    62  C   -0.038731
    63  C   -0.036020
    64  C   -0.007354
    65  C   -0.064373
    66  C   -0.052499
    67  H    0.023648
    68  H    0.035768
    69  H    0.032736
    70  H    0.035771
    71  H    0.018445
    72  H    0.031493
    73  H    0.019467
    74  H    0.025131
    75  H    0.020731
    76  H    0.036962
    77  H    0.033325
    78  H    0.046247
    79  H    0.031655
    80  H    0.038045
    81  H    0.019156
    82  H    0.029711
    83  H    0.039038
    84  H    0.051476
    85  H    0.049597
    86  H    0.034721
    87  H    0.014869
    88  H    0.026008
    89  H    0.025348
    90  H    0.018879
    91  H    0.015299
    92  H    0.006208
    93  H    0.016847
    94  H    0.020980
    95  H    0.024676
    96  H    0.044727
    97  H    0.029112
    98  H    0.056457
    99  H    0.029632
   100  H    0.053006
   101  H    0.035833
   102  H    0.054942
   103  H    0.041597
   104  H    0.030178
   105  H    0.032036
   106  H    0.032393
   107  H    0.018561
   108  H    0.023990
   109  H    0.019450
   110  H    0.025317
   111  H    0.016220
   112  H    0.013471
   113  H    0.019072
   114  H    0.016809
   115  H    0.021742
   116  H    0.019632
   117  H    0.024113
   118  H    0.013533
   119  H    0.009692
   120  H    0.020256
   121  H    0.013368
   122  H    0.020491
   123  H    0.030246
   124  H    0.018540
   125  H    0.023102
   126  H    0.017235
   127  H    0.011806
   128  H    0.030067
   129  H    0.010331
   130  H    0.031472
   131  H    0.020205
   132  H    0.019117
   133  H    0.007897
   134  H    0.016047
   135  H    0.008861
   136  H    0.025961
   137  H    0.016753
   138  H    0.016352
   139  H    0.017955
   140  H    0.025929
 Sum of Mulliken charges =  -0.00000

 Dipole moment (field-independent basis, Debye):
    X=             10.5588    Y=              7.8503    Z=              0.9589  Tot=             13.1923
 N-N= 4.365417640540D+03 E-N= 0.000000000000D+00  KE=-9.404753225282D+03
 Leave Link  601 at Thu May  5 16:01:55 2022, MaxMem=  6710886400 cpu:               1.0 elap:               0.1
 (Enter /sw/apps/gaussian-16.0/g16/l9999.exe)
 1\1\GINC-BP1-COMPUTE164\SP\RZINDO CIS\STO-3G\C55H74Mg1N4O6\OF15641\05-
 May-2022\0\\#p ZINDO=(nstates=5)\\step_951_chromophore_15 ZINDO\\0,1\M
 g,0,46.515,35.002,28.381\C,0,45.025,32.906,30.692\C,0,46.352,37.511,30
 .712\C,0,47.294,37.32,26.011\C,0,45.889,32.621,25.863\N,0,45.837,35.18
 ,30.526\C,0,45.436,34.105,31.271\C,0,45.456,34.521,32.761\C,0,45.329,3
 6.045,32.581\C,0,45.897,36.304,31.173\C,0,43.867,36.549,32.76\C,0,46.7
 9,34.024,33.419\C,0,46.844,33.934,34.922\C,0,45.726,34.731,35.829\O,0,

 Normal termination of Gaussian 16 at Thu May  5 16:01:55 2022.
