 Gaussian 16, Revision A.03,
 Gaussian 16:  ES64L-G16RevA.03 25-Dec-2016

 ------------------------------
 #p blyp/Def2SVP td=(nstates=5)
 ------------------------------

 ---------------------------------------------------
 step_1451_chromophore_15 TDDFT with blyp functional
 ---------------------------------------------------
 Symbolic Z-matrix:
 Charge =  0 Multiplicity = 1

                         Standard orientation:
 ---------------------------------------------------------------------
 Center     Atomic      Atomic             Coordinates (Angstroms)
 Number     Number       Type             X           Y           Z
 ---------------------------------------------------------------------
      1         12           0       -4.717563    0.893655   -0.025106
      2          6           0       -4.137565   -2.587270    0.483392
      3          6           0       -1.194835    1.305350    0.075905
      4          6           0       -5.184300    4.089094    0.336850
      5          6           0       -8.086799    0.194142    0.600081
      6          7           0       -2.846005   -0.520760    0.293364
      7          6           0       -2.913153   -1.899074    0.267601
      8          6           0       -1.537784   -2.462046   -0.043309
      9          6           0       -0.562892   -1.312195    0.158296
     10          6           0       -1.551399   -0.091232    0.169961
     11          6           0        0.451050   -1.542854    1.333411
     12          6           0       -1.590358   -2.918922   -1.583711
     13          6           0       -0.375470   -3.420863   -2.296730
     14          6           0        0.941760   -3.695915   -1.616529
     15          8           0        1.111032   -4.343495   -0.583952
     16          8           0        2.084654   -3.068503   -2.308623
     17          7           0       -3.334837    2.546945    0.062281
     18          6           0       -1.964124    2.477642    0.101171
     19          6           0       -1.495298    3.828979   -0.120429
     20          6           0       -2.622216    4.737801   -0.058897
     21          6           0       -3.781526    3.811103    0.113116
     22          6           0       -0.108318    4.206601   -0.272673
     23          6           0       -2.688653    6.240748   -0.246476
     24          8           0       -3.751140    6.809980   -0.111904
     25          6           0       -1.459991    7.026463   -0.532660
     26          7           0       -6.472820    1.981887    0.385770
     27          6           0       -6.410524    3.294621    0.413952
     28          6           0       -7.815329    3.946662    0.422607
     29          6           0       -8.768765    2.708181    0.554706
     30          6           0       -7.727181    1.546691    0.510243
     31          6           0       -7.915835    5.082033    1.528889
     32          6           0       -9.844955    2.648189   -0.531769
     33          6           0      -11.135936    1.900499   -0.281452
     34          7           0       -5.920059   -0.753152    0.335243
     35          6           0       -7.288853   -0.888298    0.587828
     36          6           0       -7.631180   -2.244264    0.714819
     37          6           0       -6.431612   -2.905719    0.755297
     38          6           0       -5.432096   -1.978439    0.482699
     39          6           0       -9.038100   -2.854138    0.903621
     40          6           0       -5.823342   -4.184839    0.885956
     41          8           0       -6.279368   -5.286267    1.029353
     42          6           0       -4.294856   -3.898484    1.000618
     43          6           0       -3.556340   -5.100540    0.392130
     44          8           0       -3.698463   -5.458468   -0.763477
     45          8           0       -2.686442   -5.614377    1.355313
     46          6           0       -1.708766   -6.560488    0.768742
     47          6           0        3.365293   -3.313703   -1.626709
     48          6           0        4.560000   -2.743871   -2.316585
     49          6           0        5.798538   -2.525767   -1.857695
     50          6           0        6.325851   -3.221812   -0.646056
     51          6           0        6.775425   -1.772336   -2.669027
     52          6           0        6.306674   -0.583053   -3.686614
     53          6           0        7.349357    0.554175   -3.557742
     54          6           0        6.748740    1.729167   -2.661709
     55          6           0        5.635190    2.432908   -3.462978
     56          6           0        7.893405    2.650317   -2.231103
     57          6           0        8.399225    2.282829   -0.843620
     58          6           0        9.652893    1.400101   -0.999744
     59          6           0       10.646650    1.811851    0.174803
     60          6           0       11.721835    2.777970   -0.354937
     61          6           0       11.301214    0.507851    0.825753
     62          6           0       12.049620    0.853004    2.221673
     63          6           0       11.866837   -0.153822    3.364140
     64          6           0       11.151599    0.487101    4.574146
     65          6           0       11.407618   -0.380135    5.773832
     66          6           0        9.620821    0.465435    4.246850
     67          1           0       -0.117338    1.483231    0.074433
     68          1           0       -5.429962    5.151494    0.399792
     69          1           0       -9.101363   -0.171565    0.769456
     70          1           0       -1.409619   -3.297100    0.645240
     71          1           0        0.041511   -1.146228   -0.733157
     72          1           0        0.607085   -2.614517    1.456026
     73          1           0        0.050579   -1.130497    2.259769
     74          1           0        1.389757   -1.104698    0.994526
     75          1           0       -1.753091   -1.957019   -2.068399
     76          1           0       -2.402956   -3.627858   -1.743831
     77          1           0       -0.100717   -2.720416   -3.085932
     78          1           0       -0.631984   -4.369045   -2.770911
     79          1           0        0.036559    4.800373   -1.175535
     80          1           0        0.490426    3.321450   -0.483659
     81          1           0        0.315184    4.746880    0.573858
     82          1           0       -0.888313    6.610699   -1.362523
     83          1           0       -0.873256    6.905161    0.377237
     84          1           0       -1.721051    8.067127   -0.726197
     85          1           0       -7.952373    4.417403   -0.551441
     86          1           0       -9.226180    2.773485    1.541566
     87          1           0       -7.137267    4.879449    2.264814
     88          1           0       -8.899086    4.998169    1.991846
     89          1           0       -7.801004    6.106820    1.175566
     90          1           0       -9.423084    2.079762   -1.361777
     91          1           0      -10.097965    3.644483   -0.893900
     92          1           0      -11.191520    0.947186   -0.806738
     93          1           0      -11.899727    2.595663   -0.630454
     94          1           0      -11.196587    1.761488    0.797773
     95          1           0       -9.595603   -2.290806    1.652067
     96          1           0       -8.968347   -3.873159    1.284941
     97          1           0       -9.646900   -2.813899   -0.000124
     98          1           0       -4.027935   -3.943950    2.056285
     99          1           0       -2.150462   -7.533074    0.551026
    100          1           0       -0.987701   -6.746752    1.565173
    101          1           0       -1.194235   -6.159319   -0.103963
    102          1           0        3.534678   -4.385464   -1.525442
    103          1           0        3.350674   -2.945048   -0.600976
    104          1           0        4.269895   -2.278794   -3.258869
    105          1           0        5.566060   -3.228001    0.135410
    106          1           0        7.235098   -2.718815   -0.314854
    107          1           0        6.638844   -4.249676   -0.825843
    108          1           0        7.245017   -2.576557   -3.234610
    109          1           0        7.500920   -1.321014   -1.991810
    110          1           0        5.259448   -0.369939   -3.471311
    111          1           0        6.343344   -1.017261   -4.686219
    112          1           0        7.592823    0.851015   -4.578122
    113          1           0        8.285686    0.237184   -3.099011
    114          1           0        6.212357    1.190481   -1.879657
    115          1           0        5.722470    3.504762   -3.290663
    116          1           0        4.652925    2.203898   -3.050782
    117          1           0        5.632049    2.355414   -4.550378
    118          1           0        7.534659    3.674565   -2.133685
    119          1           0        8.571883    2.588207   -3.082264
    120          1           0        7.687174    1.778330   -0.190783
    121          1           0        8.690495    3.261894   -0.461717
    122          1           0       10.075895    1.488845   -2.000536
    123          1           0        9.283509    0.377156   -0.919111
    124          1           0       10.064243    2.274068    0.972966
    125          1           0       11.336587    3.761722   -0.086447
    126          1           0       11.752464    2.684445   -1.440444
    127          1           0       12.724509    2.563858    0.015951
    128          1           0       12.094825    0.255156    0.122361
    129          1           0       10.561907   -0.291370    0.869876
    130          1           0       11.845290    1.817071    2.686581
    131          1           0       13.100983    0.919025    1.942478
    132          1           0       12.782192   -0.695887    3.603743
    133          1           0       11.277591   -1.004965    3.023667
    134          1           0       11.520655    1.498062    4.746027
    135          1           0       12.071614    0.181324    6.431714
    136          1           0       11.784811   -1.379863    5.559164
    137          1           0       10.484060   -0.493578    6.341378
    138          1           0        9.092042    0.418464    5.198916
    139          1           0        9.302454   -0.435866    3.723189
    140          1           0        9.249582    1.352895    3.734649
 ---------------------------------------------------------------------

 SCF Done:  E(RB-LYP) =  -3007.36358535     A.U. after   21 cycles

 Excitation energies and oscillator strengths:

 Excited State   1:      Singlet-A      1.8498 eV  670.27 nm  f=0.2611  <S**2>=0.000
     245 -> 248       -0.23261
     246 -> 247        0.67530
     246 <- 247       -0.12757
 This state for optimization and/or second-order correction.
 Total Energy, E(TD-HF/TD-DFT) =  -3007.29560818
 Copying the excited state density for this state as the 1-particle RhoCI density.

 Excited State   2:      Singlet-A      1.9150 eV  647.45 nm  f=0.0535  <S**2>=0.000
     244 -> 247        0.28181
     245 -> 247        0.60821
     246 -> 248        0.20649

 Excited State   3:      Singlet-A      2.0700 eV  598.96 nm  f=0.0006  <S**2>=0.000
     243 -> 247        0.68315
     244 -> 247        0.17470

 Excited State   4:      Singlet-A      2.0902 eV  593.17 nm  f=0.0101  <S**2>=0.000
     243 -> 247       -0.17732
     244 -> 247        0.61799
     245 -> 247       -0.23426
     246 -> 248       -0.16255

 Excited State   5:      Singlet-A      2.2587 eV  548.92 nm  f=0.0001  <S**2>=0.000
     242 -> 247        0.70706

 The electronic state is 1-A.
 Alpha  occ. eigenvalues --  -46.28442 -18.82469 -18.82153 -18.78763 -18.77271
 Alpha  occ. eigenvalues --  -18.75321 -18.75196 -14.03221 -14.03170 -14.00961
 Alpha  occ. eigenvalues --  -14.00527 -10.05439 -10.03883  -9.99580  -9.98595
 Alpha  occ. eigenvalues --   -9.97572  -9.97228  -9.96943  -9.96639  -9.96391
 Alpha  occ. eigenvalues --   -9.96259  -9.96128  -9.95542  -9.94355  -9.94245
 Alpha  occ. eigenvalues --   -9.94156  -9.94088  -9.93856  -9.93852  -9.93835
 Alpha  occ. eigenvalues --   -9.93658  -9.93547  -9.93257  -9.93225  -9.92976
 Alpha  occ. eigenvalues --   -9.92638  -9.92619  -9.92570  -9.92485  -9.92468
 Alpha  occ. eigenvalues --   -9.92290  -9.92281  -9.92280  -9.92262  -9.92188
 Alpha  occ. eigenvalues --   -9.92073  -9.92053  -9.92039  -9.91997  -9.91995
 Alpha  occ. eigenvalues --   -9.91968  -9.91961  -9.91714  -9.91534  -9.91464
 Alpha  occ. eigenvalues --   -9.91206  -9.91148  -9.91087  -9.91082  -9.91002
 Alpha  occ. eigenvalues --   -9.90909  -9.90881  -9.90655  -9.90648  -9.90426
 Alpha  occ. eigenvalues --   -9.90020  -2.92885  -1.73297  -1.72808  -1.72565
 Alpha  occ. eigenvalues --   -0.96973  -0.96362  -0.92148  -0.91929  -0.90095
 Alpha  occ. eigenvalues --   -0.89673  -0.87780  -0.86652  -0.85571  -0.84872
 Alpha  occ. eigenvalues --   -0.76438  -0.73921  -0.73269  -0.72985  -0.72443
 Alpha  occ. eigenvalues --   -0.72365  -0.71664  -0.70954  -0.70734  -0.70422
 Alpha  occ. eigenvalues --   -0.69673  -0.69469  -0.67810  -0.67756  -0.66720
 Alpha  occ. eigenvalues --   -0.66052  -0.66046  -0.65281  -0.64893  -0.64344
 Alpha  occ. eigenvalues --   -0.64059  -0.62522  -0.62210  -0.61599  -0.60556
 Alpha  occ. eigenvalues --   -0.60393  -0.59994  -0.59959  -0.59479  -0.58794
 Alpha  occ. eigenvalues --   -0.58220  -0.57719  -0.56895  -0.55463  -0.54333
 Alpha  occ. eigenvalues --   -0.54257  -0.53803  -0.52607  -0.52382  -0.51614
 Alpha  occ. eigenvalues --   -0.51078  -0.50815  -0.50682  -0.50358  -0.49990
 Alpha  occ. eigenvalues --   -0.49730  -0.49187  -0.48907  -0.48126  -0.46445
 Alpha  occ. eigenvalues --   -0.46094  -0.45789  -0.45527  -0.45051  -0.44633
 Alpha  occ. eigenvalues --   -0.43777  -0.43510  -0.42945  -0.42649  -0.42514
 Alpha  occ. eigenvalues --   -0.41885  -0.41602  -0.41446  -0.41344  -0.41219
 Alpha  occ. eigenvalues --   -0.40965  -0.40521  -0.40374  -0.40164  -0.40031
 Alpha  occ. eigenvalues --   -0.39991  -0.39903  -0.39685  -0.39543  -0.39316
 Alpha  occ. eigenvalues --   -0.39241  -0.39102  -0.38772  -0.38759  -0.38320
 Alpha  occ. eigenvalues --   -0.37961  -0.37907  -0.37837  -0.37739  -0.37238
 Alpha  occ. eigenvalues --   -0.37105  -0.37068  -0.36924  -0.36702  -0.36310
 Alpha  occ. eigenvalues --   -0.36063  -0.35972  -0.35737  -0.35557  -0.35493
 Alpha  occ. eigenvalues --   -0.35349  -0.35092  -0.35017  -0.34994  -0.34784
 Alpha  occ. eigenvalues --   -0.34747  -0.34642  -0.34201  -0.34127  -0.33968
 Alpha  occ. eigenvalues --   -0.33882  -0.33585  -0.33532  -0.33384  -0.33356
 Alpha  occ. eigenvalues --   -0.33221  -0.33132  -0.32780  -0.32488  -0.32224
 Alpha  occ. eigenvalues --   -0.32051  -0.32010  -0.31852  -0.31644  -0.31412
 Alpha  occ. eigenvalues --   -0.31320  -0.30966  -0.30668  -0.30606  -0.30405
 Alpha  occ. eigenvalues --   -0.30323  -0.30200  -0.30057  -0.29939  -0.29917
 Alpha  occ. eigenvalues --   -0.29664  -0.29654  -0.29382  -0.29203  -0.29017
 Alpha  occ. eigenvalues --   -0.28966  -0.28739  -0.28627  -0.28611  -0.28333
 Alpha  occ. eigenvalues --   -0.28075  -0.27962  -0.27880  -0.26788  -0.26423
 Alpha  occ. eigenvalues --   -0.26229  -0.26094  -0.25690  -0.25512  -0.25483
 Alpha  occ. eigenvalues --   -0.25358  -0.25346  -0.24526  -0.24028  -0.23484
 Alpha  occ. eigenvalues --   -0.23060  -0.22425  -0.22408  -0.21451  -0.20652
 Alpha  occ. eigenvalues --   -0.19955  -0.19413  -0.18632  -0.18506  -0.16676
 Alpha  occ. eigenvalues --   -0.15751
 Alpha virt. eigenvalues --   -0.11113  -0.07024  -0.05811  -0.04788  -0.04047
 Alpha virt. eigenvalues --   -0.03590  -0.02911  -0.01736  -0.01359   0.00092
 Alpha virt. eigenvalues --    0.00997   0.01538   0.02096   0.02217   0.03014

 Mulliken charges:
               1
     1  Mg   0.695007
     2  C    0.031831
     3  C   -0.068778
     4  C   -0.012102
     5  C   -0.088424
     6  N   -0.187260
     7  C   -0.112250
     8  C    0.036423
     9  C    0.013233
    10  C   -0.018217
    11  C    0.137282
    12  C    0.097363
    13  C    0.172128
    14  C    0.083778
    15  O   -0.196166
    16  O   -0.326051
    17  N   -0.268031
    18  C    0.150052
    19  C   -0.153010
    20  C    0.041325
    21  C    0.077084
    22  C    0.181852
    23  C   -0.100539
    24  O   -0.152503
    25  C    0.152646
    26  N   -0.179670
    27  C   -0.024266
    28  C   -0.021373
    29  C    0.084117
    30  C    0.026521
    31  C    0.118418
    32  C    0.051917
    33  C    0.093391
    34  N   -0.255133
    35  C    0.088693
    36  C   -0.175852
    37  C    0.109340
    38  C    0.076699
    39  C    0.166783
    40  C   -0.063233
    41  O   -0.106392
    42  C    0.046547
    43  C    0.101837
    44  O   -0.174029
    45  O   -0.280918
    46  C    0.222536
    47  C    0.316743
    48  C   -0.113080
    49  C   -0.162931
    50  C    0.135006
    51  C    0.099984
    52  C    0.079267
    53  C    0.070511
    54  C   -0.101416
    55  C    0.121339
    56  C    0.133211
    57  C    0.078973
    58  C    0.070876
    59  C   -0.099461
    60  C    0.129123
    61  C    0.084187
    62  C    0.083552
    63  C    0.091349
    64  C   -0.101037
    65  C    0.133138
    66  C    0.096018
    67  H   -0.061712
    68  H   -0.049474
    69  H   -0.085825
    70  H   -0.022508
    71  H   -0.030405
    72  H    0.011249
    73  H   -0.001758
    74  H   -0.006257
    75  H   -0.024738
    76  H    0.016643
    77  H   -0.007345
    78  H    0.018251
    79  H   -0.013703
    80  H   -0.029316
    81  H    0.012083
    82  H    0.001282
    83  H    0.006638
    84  H   -0.003930
    85  H   -0.010885
    86  H   -0.030878
    87  H    0.000317
    88  H   -0.014246
    89  H    0.008823
    90  H   -0.025347
    91  H   -0.016867
    92  H    0.003380
    93  H   -0.010861
    94  H   -0.013310
    95  H   -0.007026
    96  H    0.007972
    97  H    0.000624
    98  H    0.005402
    99  H    0.016524
   100  H    0.008593
   101  H    0.016974
   102  H   -0.008805
   103  H   -0.002418
   104  H   -0.032469
   105  H   -0.006517
   106  H   -0.023005
   107  H    0.009018
   108  H   -0.005544
   109  H   -0.021627
   110  H   -0.011389
   111  H   -0.034827
   112  H   -0.033863
   113  H   -0.026080
   114  H   -0.038373
   115  H   -0.039657
   116  H   -0.020119
   117  H   -0.015035
   118  H   -0.047113
   119  H   -0.024536
   120  H   -0.017622
   121  H   -0.029920
   122  H   -0.019429
   123  H   -0.031423
   124  H   -0.022423
   125  H   -0.011898
   126  H   -0.022100
   127  H   -0.008378
   128  H   -0.035184
   129  H   -0.024913
   130  H   -0.029272
   131  H   -0.035139
   132  H   -0.043218
   133  H   -0.046448
   134  H   -0.027320
   135  H   -0.020400
   136  H   -0.010025
   137  H   -0.035667
   138  H   -0.026852
   139  H   -0.016245
   140  H   -0.010092
 Sum of Mulliken charges =  -0.00000

 Dipole moment (field-independent basis, Debye):
    X=              3.6928    Y=              2.8648    Z=             -1.2144  Tot=              4.8289
 Quadrupole moment (field-independent basis, Debye-Ang):
   XX=           -378.9929   YY=           -439.8825   ZZ=           -403.8808
   XY=            -24.0773   XZ=              2.2809   YZ=              0.2887

 Normal termination of Gaussian 16 at Thu Apr 28 05:25:08 2022.
