 Gaussian 16, Revision A.03,
 Gaussian 16:  ES64L-G16RevA.03 25-Dec-2016

 -----------------------------------
 #p cam-b3lyp/Def2SVP td=(nstates=5)
 -----------------------------------

 --------------------------------------------------------
 step_1451_chromophore_15 TDDFT with cam-b3lyp functional
 --------------------------------------------------------
 Symbolic Z-matrix:
 Charge =  0 Multiplicity = 1

                         Standard orientation:
 ---------------------------------------------------------------------
 Center     Atomic      Atomic             Coordinates (Angstroms)
 Number     Number       Type             X           Y           Z
 ---------------------------------------------------------------------
      1         12           0       -4.717563    0.893655   -0.025106
      2          6           0       -4.137565   -2.587270    0.483392
      3          6           0       -1.194835    1.305350    0.075905
      4          6           0       -5.184300    4.089094    0.336850
      5          6           0       -8.086799    0.194142    0.600081
      6          7           0       -2.846005   -0.520760    0.293364
      7          6           0       -2.913153   -1.899074    0.267601
      8          6           0       -1.537784   -2.462046   -0.043309
      9          6           0       -0.562892   -1.312195    0.158296
     10          6           0       -1.551399   -0.091232    0.169961
     11          6           0        0.451050   -1.542854    1.333411
     12          6           0       -1.590358   -2.918922   -1.583711
     13          6           0       -0.375470   -3.420863   -2.296730
     14          6           0        0.941760   -3.695915   -1.616529
     15          8           0        1.111032   -4.343495   -0.583952
     16          8           0        2.084654   -3.068503   -2.308623
     17          7           0       -3.334837    2.546945    0.062281
     18          6           0       -1.964124    2.477642    0.101171
     19          6           0       -1.495298    3.828979   -0.120429
     20          6           0       -2.622216    4.737801   -0.058897
     21          6           0       -3.781526    3.811103    0.113116
     22          6           0       -0.108318    4.206601   -0.272673
     23          6           0       -2.688653    6.240748   -0.246476
     24          8           0       -3.751140    6.809980   -0.111904
     25          6           0       -1.459991    7.026463   -0.532660
     26          7           0       -6.472820    1.981887    0.385770
     27          6           0       -6.410524    3.294621    0.413952
     28          6           0       -7.815329    3.946662    0.422607
     29          6           0       -8.768765    2.708181    0.554706
     30          6           0       -7.727181    1.546691    0.510243
     31          6           0       -7.915835    5.082033    1.528889
     32          6           0       -9.844955    2.648189   -0.531769
     33          6           0      -11.135936    1.900499   -0.281452
     34          7           0       -5.920059   -0.753152    0.335243
     35          6           0       -7.288853   -0.888298    0.587828
     36          6           0       -7.631180   -2.244264    0.714819
     37          6           0       -6.431612   -2.905719    0.755297
     38          6           0       -5.432096   -1.978439    0.482699
     39          6           0       -9.038100   -2.854138    0.903621
     40          6           0       -5.823342   -4.184839    0.885956
     41          8           0       -6.279368   -5.286267    1.029353
     42          6           0       -4.294856   -3.898484    1.000618
     43          6           0       -3.556340   -5.100540    0.392130
     44          8           0       -3.698463   -5.458468   -0.763477
     45          8           0       -2.686442   -5.614377    1.355313
     46          6           0       -1.708766   -6.560488    0.768742
     47          6           0        3.365293   -3.313703   -1.626709
     48          6           0        4.560000   -2.743871   -2.316585
     49          6           0        5.798538   -2.525767   -1.857695
     50          6           0        6.325851   -3.221812   -0.646056
     51          6           0        6.775425   -1.772336   -2.669027
     52          6           0        6.306674   -0.583053   -3.686614
     53          6           0        7.349357    0.554175   -3.557742
     54          6           0        6.748740    1.729167   -2.661709
     55          6           0        5.635190    2.432908   -3.462978
     56          6           0        7.893405    2.650317   -2.231103
     57          6           0        8.399225    2.282829   -0.843620
     58          6           0        9.652893    1.400101   -0.999744
     59          6           0       10.646650    1.811851    0.174803
     60          6           0       11.721835    2.777970   -0.354937
     61          6           0       11.301214    0.507851    0.825753
     62          6           0       12.049620    0.853004    2.221673
     63          6           0       11.866837   -0.153822    3.364140
     64          6           0       11.151599    0.487101    4.574146
     65          6           0       11.407618   -0.380135    5.773832
     66          6           0        9.620821    0.465435    4.246850
     67          1           0       -0.117338    1.483231    0.074433
     68          1           0       -5.429962    5.151494    0.399792
     69          1           0       -9.101363   -0.171565    0.769456
     70          1           0       -1.409619   -3.297100    0.645240
     71          1           0        0.041511   -1.146228   -0.733157
     72          1           0        0.607085   -2.614517    1.456026
     73          1           0        0.050579   -1.130497    2.259769
     74          1           0        1.389757   -1.104698    0.994526
     75          1           0       -1.753091   -1.957019   -2.068399
     76          1           0       -2.402956   -3.627858   -1.743831
     77          1           0       -0.100717   -2.720416   -3.085932
     78          1           0       -0.631984   -4.369045   -2.770911
     79          1           0        0.036559    4.800373   -1.175535
     80          1           0        0.490426    3.321450   -0.483659
     81          1           0        0.315184    4.746880    0.573858
     82          1           0       -0.888313    6.610699   -1.362523
     83          1           0       -0.873256    6.905161    0.377237
     84          1           0       -1.721051    8.067127   -0.726197
     85          1           0       -7.952373    4.417403   -0.551441
     86          1           0       -9.226180    2.773485    1.541566
     87          1           0       -7.137267    4.879449    2.264814
     88          1           0       -8.899086    4.998169    1.991846
     89          1           0       -7.801004    6.106820    1.175566
     90          1           0       -9.423084    2.079762   -1.361777
     91          1           0      -10.097965    3.644483   -0.893900
     92          1           0      -11.191520    0.947186   -0.806738
     93          1           0      -11.899727    2.595663   -0.630454
     94          1           0      -11.196587    1.761488    0.797773
     95          1           0       -9.595603   -2.290806    1.652067
     96          1           0       -8.968347   -3.873159    1.284941
     97          1           0       -9.646900   -2.813899   -0.000124
     98          1           0       -4.027935   -3.943950    2.056285
     99          1           0       -2.150462   -7.533074    0.551026
    100          1           0       -0.987701   -6.746752    1.565173
    101          1           0       -1.194235   -6.159319   -0.103963
    102          1           0        3.534678   -4.385464   -1.525442
    103          1           0        3.350674   -2.945048   -0.600976
    104          1           0        4.269895   -2.278794   -3.258869
    105          1           0        5.566060   -3.228001    0.135410
    106          1           0        7.235098   -2.718815   -0.314854
    107          1           0        6.638844   -4.249676   -0.825843
    108          1           0        7.245017   -2.576557   -3.234610
    109          1           0        7.500920   -1.321014   -1.991810
    110          1           0        5.259448   -0.369939   -3.471311
    111          1           0        6.343344   -1.017261   -4.686219
    112          1           0        7.592823    0.851015   -4.578122
    113          1           0        8.285686    0.237184   -3.099011
    114          1           0        6.212357    1.190481   -1.879657
    115          1           0        5.722470    3.504762   -3.290663
    116          1           0        4.652925    2.203898   -3.050782
    117          1           0        5.632049    2.355414   -4.550378
    118          1           0        7.534659    3.674565   -2.133685
    119          1           0        8.571883    2.588207   -3.082264
    120          1           0        7.687174    1.778330   -0.190783
    121          1           0        8.690495    3.261894   -0.461717
    122          1           0       10.075895    1.488845   -2.000536
    123          1           0        9.283509    0.377156   -0.919111
    124          1           0       10.064243    2.274068    0.972966
    125          1           0       11.336587    3.761722   -0.086447
    126          1           0       11.752464    2.684445   -1.440444
    127          1           0       12.724509    2.563858    0.015951
    128          1           0       12.094825    0.255156    0.122361
    129          1           0       10.561907   -0.291370    0.869876
    130          1           0       11.845290    1.817071    2.686581
    131          1           0       13.100983    0.919025    1.942478
    132          1           0       12.782192   -0.695887    3.603743
    133          1           0       11.277591   -1.004965    3.023667
    134          1           0       11.520655    1.498062    4.746027
    135          1           0       12.071614    0.181324    6.431714
    136          1           0       11.784811   -1.379863    5.559164
    137          1           0       10.484060   -0.493578    6.341378
    138          1           0        9.092042    0.418464    5.198916
    139          1           0        9.302454   -0.435866    3.723189
    140          1           0        9.249582    1.352895    3.734649
 ---------------------------------------------------------------------

 SCF Done:  E(RCAM-B3LYP) =  -3007.16022155     A.U. after   17 cycles

 Excitation energies and oscillator strengths:

 Excited State   1:      Singlet-A      1.7644 eV  702.70 nm  f=0.3376  <S**2>=0.000
     245 -> 248        0.21435
     246 -> 247        0.67551
     245 <- 248        0.11228
 This state for optimization and/or second-order correction.
 Total Energy, E(TD-HF/TD-DFT) =  -3007.09538145
 Copying the excited state density for this state as the 1-particle RhoCI density.

 Excited State   2:      Singlet-A      2.1785 eV  569.13 nm  f=0.0837  <S**2>=0.000
     245 -> 247        0.63116
     246 -> 248       -0.31018

 Excited State   3:      Singlet-A      3.4021 eV  364.44 nm  f=0.1615  <S**2>=0.000
     242 -> 247        0.21628
     243 -> 247        0.53212
     245 -> 247        0.14214
     246 -> 248        0.36491

 Excited State   4:      Singlet-A      3.4654 eV  357.78 nm  f=0.4075  <S**2>=0.000
     240 -> 247        0.14437
     242 -> 247        0.18681
     243 -> 247       -0.40253
     245 -> 247        0.21770
     246 -> 248        0.44026

 Excited State   5:      Singlet-A      3.6480 eV  339.87 nm  f=0.1429  <S**2>=0.000
     240 -> 247       -0.19479
     240 -> 249       -0.11560
     240 -> 252        0.10675
     241 -> 247        0.47659
     241 -> 249        0.18559
     241 -> 252       -0.15019
     242 -> 247       -0.22713
     245 -> 247        0.11633
     246 -> 248        0.19544

 The electronic state is 1-A.
 Alpha  occ. eigenvalues --  -46.90102 -19.25361 -19.25024 -19.21891 -19.20314
 Alpha  occ. eigenvalues --  -19.18561 -19.18396 -14.42106 -14.42070 -14.39446
 Alpha  occ. eigenvalues --  -14.38878 -10.41048 -10.39321 -10.34880 -10.33722
 Alpha  occ. eigenvalues --  -10.31618 -10.31562 -10.31199 -10.31199 -10.30732
 Alpha  occ. eigenvalues --  -10.30707 -10.30669 -10.30013 -10.28486 -10.28311
 Alpha  occ. eigenvalues --  -10.28280 -10.28243 -10.28235 -10.27896 -10.27831
 Alpha  occ. eigenvalues --  -10.27744 -10.27497 -10.27436 -10.27417 -10.27251
 Alpha  occ. eigenvalues --  -10.27201 -10.26799 -10.26651 -10.26631 -10.26406
 Alpha  occ. eigenvalues --  -10.26242 -10.26184 -10.26030 -10.25998 -10.25961
 Alpha  occ. eigenvalues --  -10.25903 -10.25900 -10.25842 -10.25821 -10.25747
 Alpha  occ. eigenvalues --  -10.25743 -10.25729 -10.25290 -10.25285 -10.25258
 Alpha  occ. eigenvalues --  -10.25047 -10.24883 -10.24872 -10.24835 -10.24607
 Alpha  occ. eigenvalues --  -10.24557 -10.24539 -10.24313 -10.24290 -10.23993
 Alpha  occ. eigenvalues --  -10.23947  -3.18437  -1.93328  -1.92922  -1.92703
 Alpha  occ. eigenvalues --   -1.15447  -1.14834  -1.10518  -1.10496  -1.07972
 Alpha  occ. eigenvalues --   -1.07458  -1.05532  -1.04265  -1.03294  -1.02505
 Alpha  occ. eigenvalues --   -0.93596  -0.90860  -0.90089  -0.89802  -0.89114
 Alpha  occ. eigenvalues --   -0.89112  -0.88496  -0.87547  -0.87346  -0.87004
 Alpha  occ. eigenvalues --   -0.86260  -0.85899  -0.84072  -0.83951  -0.82979
 Alpha  occ. eigenvalues --   -0.82260  -0.82062  -0.81290  -0.80757  -0.80065
 Alpha  occ. eigenvalues --   -0.79862  -0.78153  -0.78041  -0.77139  -0.75944
 Alpha  occ. eigenvalues --   -0.75769  -0.75304  -0.75279  -0.74789  -0.74061
 Alpha  occ. eigenvalues --   -0.73275  -0.72735  -0.71835  -0.70261  -0.68971
 Alpha  occ. eigenvalues --   -0.68852  -0.68460  -0.67089  -0.66851  -0.65720
 Alpha  occ. eigenvalues --   -0.65266  -0.65008  -0.64704  -0.64416  -0.64031
 Alpha  occ. eigenvalues --   -0.63752  -0.62912  -0.62860  -0.61834  -0.60160
 Alpha  occ. eigenvalues --   -0.59723  -0.59304  -0.58952  -0.58493  -0.58039
 Alpha  occ. eigenvalues --   -0.57266  -0.56969  -0.56170  -0.55806  -0.55735
 Alpha  occ. eigenvalues --   -0.55007  -0.54740  -0.54419  -0.54188  -0.54157
 Alpha  occ. eigenvalues --   -0.53969  -0.53345  -0.53181  -0.53023  -0.52810
 Alpha  occ. eigenvalues --   -0.52653  -0.52603  -0.52507  -0.52378  -0.51811
 Alpha  occ. eigenvalues --   -0.51745  -0.51676  -0.51317  -0.51258  -0.50924
 Alpha  occ. eigenvalues --   -0.50515  -0.50335  -0.50252  -0.50174  -0.49754
 Alpha  occ. eigenvalues --   -0.49457  -0.49293  -0.49242  -0.48870  -0.48779
 Alpha  occ. eigenvalues --   -0.48597  -0.48311  -0.48002  -0.47925  -0.47501
 Alpha  occ. eigenvalues --   -0.47411  -0.47318  -0.47025  -0.46804  -0.46756
 Alpha  occ. eigenvalues --   -0.46549  -0.46529  -0.46159  -0.45910  -0.45843
 Alpha  occ. eigenvalues --   -0.45805  -0.45380  -0.45321  -0.45155  -0.45029
 Alpha  occ. eigenvalues --   -0.44994  -0.44784  -0.44688  -0.44420  -0.43978
 Alpha  occ. eigenvalues --   -0.43612  -0.43507  -0.43412  -0.43260  -0.43041
 Alpha  occ. eigenvalues --   -0.42796  -0.42573  -0.42425  -0.42080  -0.41913
 Alpha  occ. eigenvalues --   -0.41906  -0.41514  -0.41484  -0.41208  -0.41154
 Alpha  occ. eigenvalues --   -0.40920  -0.40801  -0.40564  -0.40319  -0.40133
 Alpha  occ. eigenvalues --   -0.40009  -0.39794  -0.39750  -0.39677  -0.39373
 Alpha  occ. eigenvalues --   -0.39043  -0.38920  -0.38785  -0.37600  -0.37542
 Alpha  occ. eigenvalues --   -0.37151  -0.37072  -0.36960  -0.36646  -0.36575
 Alpha  occ. eigenvalues --   -0.36349  -0.35990  -0.35048  -0.35017  -0.34447
 Alpha  occ. eigenvalues --   -0.34378  -0.33292  -0.32710  -0.31112  -0.30921
 Alpha  occ. eigenvalues --   -0.30403  -0.29968  -0.29224  -0.29007  -0.23380
 Alpha  occ. eigenvalues --   -0.21099
 Alpha virt. eigenvalues --   -0.08127  -0.02133   0.00647   0.01401   0.03014
 Alpha virt. eigenvalues --    0.03049   0.05052   0.05558   0.05839   0.06852
 Alpha virt. eigenvalues --    0.07474   0.07770   0.08147   0.09050   0.09230

 Mulliken charges:
               1
     1  Mg   0.825097
     2  C    0.003193
     3  C   -0.085160
     4  C   -0.034281
     5  C   -0.092931
     6  N   -0.250135
     7  C   -0.058929
     8  C   -0.022753
     9  C   -0.040210
    10  C    0.004019
    11  C    0.083124
    12  C    0.046890
    13  C    0.099475
    14  C    0.165217
    15  O   -0.234357
    16  O   -0.392548
    17  N   -0.355606
    18  C    0.161555
    19  C   -0.155498
    20  C   -0.024177
    21  C    0.103568
    22  C    0.115140
    23  C   -0.018323
    24  O   -0.193469
    25  C    0.069250
    26  N   -0.256038
    27  C    0.002202
    28  C   -0.072654
    29  C    0.029018
    30  C    0.043687
    31  C    0.057845
    32  C   -0.001777
    33  C    0.029799
    34  N   -0.345020
    35  C    0.088359
    36  C   -0.166423
    37  C    0.019275
    38  C    0.114032
    39  C    0.115950
    40  C    0.040360
    41  O   -0.146458
    42  C   -0.036236
    43  C    0.189540
    44  O   -0.211311
    45  O   -0.345016
    46  C    0.183339
    47  C    0.286959
    48  C   -0.133480
    49  C   -0.184121
    50  C    0.074477
    51  C    0.053094
    52  C    0.019541
    53  C    0.021758
    54  C   -0.150716
    55  C    0.060631
    56  C    0.071355
    57  C    0.022432
    58  C    0.024092
    59  C   -0.149399
    60  C    0.069112
    61  C    0.035729
    62  C    0.029083
    63  C    0.036616
    64  C   -0.163561
    65  C    0.070285
    66  C    0.039278
    67  H   -0.027818
    68  H   -0.010433
    69  H   -0.048698
    70  H    0.011391
    71  H    0.004429
    72  H    0.035505
    73  H    0.023967
    74  H    0.015905
    75  H    0.004969
    76  H    0.047753
    77  H    0.028776
    78  H    0.050278
    79  H    0.014349
    80  H    0.000903
    81  H    0.039949
    82  H    0.028678
    83  H    0.033070
    84  H    0.032336
    85  H    0.023627
    86  H    0.003387
    87  H    0.026066
    88  H    0.010400
    89  H    0.032761
    90  H    0.004629
    91  H    0.011208
    92  H    0.025595
    93  H    0.013932
    94  H    0.008642
    95  H    0.016742
    96  H    0.036318
    97  H    0.026445
    98  H    0.049231
    99  H    0.040142
   100  H    0.033148
   101  H    0.036868
   102  H    0.019090
   103  H    0.020144
   104  H    0.002016
   105  H    0.017577
   106  H    0.002103
   107  H    0.034009
   108  H    0.022626
   109  H   -0.000135
   110  H    0.015337
   111  H   -0.003053
   112  H   -0.004942
   113  H   -0.000909
   114  H   -0.007575
   115  H   -0.013946
   116  H    0.003895
   117  H    0.009622
   118  H   -0.015398
   119  H    0.004274
   120  H    0.010720
   121  H   -0.001667
   122  H    0.005992
   123  H   -0.007084
   124  H    0.005672
   125  H    0.011551
   126  H    0.002027
   127  H    0.015123
   128  H   -0.006803
   129  H    0.000600
   130  H   -0.003107
   131  H   -0.006214
   132  H   -0.011838
   133  H   -0.018098
   134  H    0.004302
   135  H    0.005017
   136  H    0.014093
   137  H   -0.010236
   138  H   -0.002402
   139  H    0.006811
   140  H    0.012563
 Sum of Mulliken charges =  -0.00000

 Dipole moment (field-independent basis, Debye):
    X=              4.0948    Y=              3.4913    Z=             -1.3317  Tot=              5.5435
 Quadrupole moment (field-independent basis, Debye-Ang):
   XX=           -380.0146   YY=           -436.7212   ZZ=           -404.0616
   XY=            -25.8176   XZ=              2.4689   YZ=             -0.3033

 Normal termination of Gaussian 16 at Thu Apr 28 04:15:38 2022.
