 Gaussian 16, Revision A.03,
 Gaussian 16:  ES64L-G16RevA.03 25-Dec-2016

 ---------------------------------
 #p PBE1PBE/Def2SVP td=(nstates=5)
 ---------------------------------

 ------------------------------------------------------
 step_1451_chromophore_15 TDDFT with PBE1PBE functional
 ------------------------------------------------------
 Symbolic Z-matrix:
 Charge =  0 Multiplicity = 1

                         Standard orientation:
 ---------------------------------------------------------------------
 Center     Atomic      Atomic             Coordinates (Angstroms)
 Number     Number       Type             X           Y           Z
 ---------------------------------------------------------------------
      1         12           0       -4.717563    0.893655   -0.025106
      2          6           0       -4.137565   -2.587270    0.483392
      3          6           0       -1.194835    1.305350    0.075905
      4          6           0       -5.184300    4.089094    0.336850
      5          6           0       -8.086799    0.194142    0.600081
      6          7           0       -2.846005   -0.520760    0.293364
      7          6           0       -2.913153   -1.899074    0.267601
      8          6           0       -1.537784   -2.462046   -0.043309
      9          6           0       -0.562892   -1.312195    0.158296
     10          6           0       -1.551399   -0.091232    0.169961
     11          6           0        0.451050   -1.542854    1.333411
     12          6           0       -1.590358   -2.918922   -1.583711
     13          6           0       -0.375470   -3.420863   -2.296730
     14          6           0        0.941760   -3.695915   -1.616529
     15          8           0        1.111032   -4.343495   -0.583952
     16          8           0        2.084654   -3.068503   -2.308623
     17          7           0       -3.334837    2.546945    0.062281
     18          6           0       -1.964124    2.477642    0.101171
     19          6           0       -1.495298    3.828979   -0.120429
     20          6           0       -2.622216    4.737801   -0.058897
     21          6           0       -3.781526    3.811103    0.113116
     22          6           0       -0.108318    4.206601   -0.272673
     23          6           0       -2.688653    6.240748   -0.246476
     24          8           0       -3.751140    6.809980   -0.111904
     25          6           0       -1.459991    7.026463   -0.532660
     26          7           0       -6.472820    1.981887    0.385770
     27          6           0       -6.410524    3.294621    0.413952
     28          6           0       -7.815329    3.946662    0.422607
     29          6           0       -8.768765    2.708181    0.554706
     30          6           0       -7.727181    1.546691    0.510243
     31          6           0       -7.915835    5.082033    1.528889
     32          6           0       -9.844955    2.648189   -0.531769
     33          6           0      -11.135936    1.900499   -0.281452
     34          7           0       -5.920059   -0.753152    0.335243
     35          6           0       -7.288853   -0.888298    0.587828
     36          6           0       -7.631180   -2.244264    0.714819
     37          6           0       -6.431612   -2.905719    0.755297
     38          6           0       -5.432096   -1.978439    0.482699
     39          6           0       -9.038100   -2.854138    0.903621
     40          6           0       -5.823342   -4.184839    0.885956
     41          8           0       -6.279368   -5.286267    1.029353
     42          6           0       -4.294856   -3.898484    1.000618
     43          6           0       -3.556340   -5.100540    0.392130
     44          8           0       -3.698463   -5.458468   -0.763477
     45          8           0       -2.686442   -5.614377    1.355313
     46          6           0       -1.708766   -6.560488    0.768742
     47          6           0        3.365293   -3.313703   -1.626709
     48          6           0        4.560000   -2.743871   -2.316585
     49          6           0        5.798538   -2.525767   -1.857695
     50          6           0        6.325851   -3.221812   -0.646056
     51          6           0        6.775425   -1.772336   -2.669027
     52          6           0        6.306674   -0.583053   -3.686614
     53          6           0        7.349357    0.554175   -3.557742
     54          6           0        6.748740    1.729167   -2.661709
     55          6           0        5.635190    2.432908   -3.462978
     56          6           0        7.893405    2.650317   -2.231103
     57          6           0        8.399225    2.282829   -0.843620
     58          6           0        9.652893    1.400101   -0.999744
     59          6           0       10.646650    1.811851    0.174803
     60          6           0       11.721835    2.777970   -0.354937
     61          6           0       11.301214    0.507851    0.825753
     62          6           0       12.049620    0.853004    2.221673
     63          6           0       11.866837   -0.153822    3.364140
     64          6           0       11.151599    0.487101    4.574146
     65          6           0       11.407618   -0.380135    5.773832
     66          6           0        9.620821    0.465435    4.246850
     67          1           0       -0.117338    1.483231    0.074433
     68          1           0       -5.429962    5.151494    0.399792
     69          1           0       -9.101363   -0.171565    0.769456
     70          1           0       -1.409619   -3.297100    0.645240
     71          1           0        0.041511   -1.146228   -0.733157
     72          1           0        0.607085   -2.614517    1.456026
     73          1           0        0.050579   -1.130497    2.259769
     74          1           0        1.389757   -1.104698    0.994526
     75          1           0       -1.753091   -1.957019   -2.068399
     76          1           0       -2.402956   -3.627858   -1.743831
     77          1           0       -0.100717   -2.720416   -3.085932
     78          1           0       -0.631984   -4.369045   -2.770911
     79          1           0        0.036559    4.800373   -1.175535
     80          1           0        0.490426    3.321450   -0.483659
     81          1           0        0.315184    4.746880    0.573858
     82          1           0       -0.888313    6.610699   -1.362523
     83          1           0       -0.873256    6.905161    0.377237
     84          1           0       -1.721051    8.067127   -0.726197
     85          1           0       -7.952373    4.417403   -0.551441
     86          1           0       -9.226180    2.773485    1.541566
     87          1           0       -7.137267    4.879449    2.264814
     88          1           0       -8.899086    4.998169    1.991846
     89          1           0       -7.801004    6.106820    1.175566
     90          1           0       -9.423084    2.079762   -1.361777
     91          1           0      -10.097965    3.644483   -0.893900
     92          1           0      -11.191520    0.947186   -0.806738
     93          1           0      -11.899727    2.595663   -0.630454
     94          1           0      -11.196587    1.761488    0.797773
     95          1           0       -9.595603   -2.290806    1.652067
     96          1           0       -8.968347   -3.873159    1.284941
     97          1           0       -9.646900   -2.813899   -0.000124
     98          1           0       -4.027935   -3.943950    2.056285
     99          1           0       -2.150462   -7.533074    0.551026
    100          1           0       -0.987701   -6.746752    1.565173
    101          1           0       -1.194235   -6.159319   -0.103963
    102          1           0        3.534678   -4.385464   -1.525442
    103          1           0        3.350674   -2.945048   -0.600976
    104          1           0        4.269895   -2.278794   -3.258869
    105          1           0        5.566060   -3.228001    0.135410
    106          1           0        7.235098   -2.718815   -0.314854
    107          1           0        6.638844   -4.249676   -0.825843
    108          1           0        7.245017   -2.576557   -3.234610
    109          1           0        7.500920   -1.321014   -1.991810
    110          1           0        5.259448   -0.369939   -3.471311
    111          1           0        6.343344   -1.017261   -4.686219
    112          1           0        7.592823    0.851015   -4.578122
    113          1           0        8.285686    0.237184   -3.099011
    114          1           0        6.212357    1.190481   -1.879657
    115          1           0        5.722470    3.504762   -3.290663
    116          1           0        4.652925    2.203898   -3.050782
    117          1           0        5.632049    2.355414   -4.550378
    118          1           0        7.534659    3.674565   -2.133685
    119          1           0        8.571883    2.588207   -3.082264
    120          1           0        7.687174    1.778330   -0.190783
    121          1           0        8.690495    3.261894   -0.461717
    122          1           0       10.075895    1.488845   -2.000536
    123          1           0        9.283509    0.377156   -0.919111
    124          1           0       10.064243    2.274068    0.972966
    125          1           0       11.336587    3.761722   -0.086447
    126          1           0       11.752464    2.684445   -1.440444
    127          1           0       12.724509    2.563858    0.015951
    128          1           0       12.094825    0.255156    0.122361
    129          1           0       10.561907   -0.291370    0.869876
    130          1           0       11.845290    1.817071    2.686581
    131          1           0       13.100983    0.919025    1.942478
    132          1           0       12.782192   -0.695887    3.603743
    133          1           0       11.277591   -1.004965    3.023667
    134          1           0       11.520655    1.498062    4.746027
    135          1           0       12.071614    0.181324    6.431714
    136          1           0       11.784811   -1.379863    5.559164
    137          1           0       10.484060   -0.493578    6.341378
    138          1           0        9.092042    0.418464    5.198916
    139          1           0        9.302454   -0.435866    3.723189
    140          1           0        9.249582    1.352895    3.734649
 ---------------------------------------------------------------------

 SCF Done:  E(RPBE1PBE) =  -3005.34942149     A.U. after   15 cycles

 Excitation energies and oscillator strengths:

 Excited State   1:      Singlet-A      1.9140 eV  647.76 nm  f=0.3263  <S**2>=0.000
     245 -> 248       -0.20851
     246 -> 247        0.68100
 This state for optimization and/or second-order correction.
 Total Energy, E(TD-HF/TD-DFT) =  -3005.27908212
 Copying the excited state density for this state as the 1-particle RhoCI density.

 Excited State   2:      Singlet-A      2.1823 eV  568.14 nm  f=0.0865  <S**2>=0.000
     245 -> 247        0.64627
     246 -> 248        0.27831

 Excited State   3:      Singlet-A      3.0236 eV  410.05 nm  f=0.0073  <S**2>=0.000
     239 -> 247        0.10467
     242 -> 247        0.25565
     243 -> 247        0.61765

 Excited State   4:      Singlet-A      3.1423 eV  394.57 nm  f=0.0161  <S**2>=0.000
     241 -> 247       -0.10382
     242 -> 247        0.57125
     243 -> 247       -0.30667
     246 -> 248       -0.21782

 Excited State   5:      Singlet-A      3.2151 eV  385.63 nm  f=0.0001  <S**2>=0.000
     240 -> 247        0.39333
     240 -> 249        0.11155
     241 -> 247        0.54335
     241 -> 249        0.12903

 The electronic state is 1-A.
 Alpha  occ. eigenvalues --  -46.93489 -19.26069 -19.25737 -19.22107 -19.20591
 Alpha  occ. eigenvalues --  -19.18680 -19.18669 -14.41609 -14.41538 -14.39049
 Alpha  occ. eigenvalues --  -14.38570 -10.38091 -10.36421 -10.31897 -10.30918
 Alpha  occ. eigenvalues --  -10.29288 -10.28974 -10.28883 -10.28534 -10.28497
 Alpha  occ. eigenvalues --  -10.28450 -10.28304 -10.27572 -10.26037 -10.26025
 Alpha  occ. eigenvalues --  -10.26002 -10.25986 -10.25789 -10.25727 -10.25661
 Alpha  occ. eigenvalues --  -10.25597 -10.25224 -10.25109 -10.25101 -10.25015
 Alpha  occ. eigenvalues --  -10.24832 -10.24426 -10.24346 -10.24022 -10.23974
 Alpha  occ. eigenvalues --  -10.23679 -10.23596 -10.23545 -10.23538 -10.23468
 Alpha  occ. eigenvalues --  -10.23455 -10.23446 -10.23443 -10.23399 -10.23399
 Alpha  occ. eigenvalues --  -10.23344 -10.23337 -10.22905 -10.22840 -10.22739
 Alpha  occ. eigenvalues --  -10.22590 -10.22439 -10.22438 -10.22418 -10.22124
 Alpha  occ. eigenvalues --  -10.21987 -10.21938 -10.21876 -10.21718 -10.21680
 Alpha  occ. eigenvalues --  -10.21380  -3.15410  -1.88239  -1.87812  -1.87596
 Alpha  occ. eigenvalues --   -1.10239  -1.09567  -1.05316  -1.05162  -1.02854
 Alpha  occ. eigenvalues --   -1.02319  -1.00193  -0.99001  -0.97885  -0.97111
 Alpha  occ. eigenvalues --   -0.88029  -0.84997  -0.84270  -0.83948  -0.83394
 Alpha  occ. eigenvalues --   -0.83209  -0.82711  -0.81890  -0.81447  -0.81369
 Alpha  occ. eigenvalues --   -0.80552  -0.80151  -0.78248  -0.78211  -0.77210
 Alpha  occ. eigenvalues --   -0.76445  -0.76273  -0.75542  -0.74978  -0.74388
 Alpha  occ. eigenvalues --   -0.74020  -0.72429  -0.72288  -0.71459  -0.70272
 Alpha  occ. eigenvalues --   -0.69962  -0.69629  -0.69383  -0.68913  -0.68225
 Alpha  occ. eigenvalues --   -0.67665  -0.67134  -0.66291  -0.64557  -0.63312
 Alpha  occ. eigenvalues --   -0.63165  -0.62856  -0.61316  -0.61269  -0.60122
 Alpha  occ. eigenvalues --   -0.59713  -0.59293  -0.59209  -0.58982  -0.58158
 Alpha  occ. eigenvalues --   -0.57902  -0.57392  -0.57057  -0.56433  -0.54659
 Alpha  occ. eigenvalues --   -0.54230  -0.53834  -0.53584  -0.53034  -0.52621
 Alpha  occ. eigenvalues --   -0.51734  -0.51453  -0.50752  -0.50333  -0.50218
 Alpha  occ. eigenvalues --   -0.49601  -0.49169  -0.48856  -0.48758  -0.48668
 Alpha  occ. eigenvalues --   -0.48413  -0.47812  -0.47591  -0.47451  -0.47352
 Alpha  occ. eigenvalues --   -0.47148  -0.47089  -0.47016  -0.46829  -0.46386
 Alpha  occ. eigenvalues --   -0.46327  -0.46222  -0.45926  -0.45753  -0.45530
 Alpha  occ. eigenvalues --   -0.45092  -0.44879  -0.44809  -0.44734  -0.44330
 Alpha  occ. eigenvalues --   -0.44083  -0.43887  -0.43818  -0.43484  -0.43350
 Alpha  occ. eigenvalues --   -0.43107  -0.42896  -0.42624  -0.42573  -0.42110
 Alpha  occ. eigenvalues --   -0.42011  -0.41976  -0.41663  -0.41444  -0.41418
 Alpha  occ. eigenvalues --   -0.41236  -0.41103  -0.40861  -0.40639  -0.40575
 Alpha  occ. eigenvalues --   -0.40485  -0.40156  -0.40087  -0.39896  -0.39808
 Alpha  occ. eigenvalues --   -0.39622  -0.39536  -0.39397  -0.39155  -0.38701
 Alpha  occ. eigenvalues --   -0.38514  -0.38316  -0.38128  -0.38067  -0.37878
 Alpha  occ. eigenvalues --   -0.37507  -0.37400  -0.37273  -0.36919  -0.36734
 Alpha  occ. eigenvalues --   -0.36623  -0.36359  -0.36200  -0.36112  -0.35894
 Alpha  occ. eigenvalues --   -0.35756  -0.35538  -0.35468  -0.35260  -0.34959
 Alpha  occ. eigenvalues --   -0.34756  -0.34742  -0.34660  -0.34509  -0.34132
 Alpha  occ. eigenvalues --   -0.33821  -0.33797  -0.33580  -0.32608  -0.32398
 Alpha  occ. eigenvalues --   -0.32104  -0.32047  -0.31772  -0.31692  -0.31612
 Alpha  occ. eigenvalues --   -0.31242  -0.30844  -0.29963  -0.29932  -0.29594
 Alpha  occ. eigenvalues --   -0.29466  -0.28731  -0.27723  -0.26508  -0.25799
 Alpha  occ. eigenvalues --   -0.25706  -0.25332  -0.24771  -0.24290  -0.20348
 Alpha  occ. eigenvalues --   -0.18717
 Alpha virt. eigenvalues --   -0.10647  -0.05518  -0.03525  -0.01691  -0.01425
 Alpha virt. eigenvalues --   -0.01262   0.00290   0.01224   0.01452   0.03096
 Alpha virt. eigenvalues --    0.03877   0.04267   0.04733   0.05155   0.05971

 Mulliken charges:
               1
     1  Mg   0.963349
     2  C    0.005405
     3  C   -0.087060
     4  C   -0.029699
     5  C   -0.083805
     6  N   -0.342173
     7  C    0.027760
     8  C   -0.115313
     9  C   -0.110661
    10  C    0.048504
    11  C    0.023720
    12  C    0.001774
    13  C    0.023729
    14  C    0.226295
    15  O   -0.265691
    16  O   -0.422987
    17  N   -0.465843
    18  C    0.188898
    19  C   -0.190220
    20  C   -0.071183
    21  C    0.137246
    22  C    0.054843
    23  C    0.034470
    24  O   -0.231948
    25  C   -0.006222
    26  N   -0.367063
    27  C    0.039812
    28  C   -0.143156
    29  C   -0.049450
    30  C    0.081966
    31  C   -0.004109
    32  C   -0.058635
    33  C   -0.043494
    34  N   -0.476689
    35  C    0.101661
    36  C   -0.167061
    37  C   -0.041343
    38  C    0.164718
    39  C    0.062730
    40  C    0.141261
    41  O   -0.193251
    42  C   -0.159898
    43  C    0.278381
    44  O   -0.246010
    45  O   -0.376658
    46  C    0.124232
    47  C    0.247624
    48  C   -0.142407
    49  C   -0.231192
    50  C    0.013100
    51  C   -0.009043
    52  C   -0.044073
    53  C   -0.038404
    54  C   -0.231370
    55  C    0.005154
    56  C    0.008750
    57  C   -0.042979
    58  C   -0.029293
    59  C   -0.235372
    60  C    0.011414
    61  C   -0.021340
    62  C   -0.030089
    63  C   -0.011979
    64  C   -0.266826
    65  C    0.012622
    66  C   -0.017269
    67  H    0.005293
    68  H    0.023168
    69  H   -0.012981
    70  H    0.052144
    71  H    0.043818
    72  H    0.062561
    73  H    0.051867
    74  H    0.043063
    75  H    0.039866
    76  H    0.081355
    77  H    0.060338
    78  H    0.081734
    79  H    0.042746
    80  H    0.028343
    81  H    0.066702
    82  H    0.055388
    83  H    0.060813
    84  H    0.059222
    85  H    0.060523
    86  H    0.040700
    87  H    0.054463
    88  H    0.038732
    89  H    0.059324
    90  H    0.038737
    91  H    0.043406
    92  H    0.051986
    93  H    0.042274
    94  H    0.036195
    95  H    0.043603
    96  H    0.063796
    97  H    0.054278
    98  H    0.087399
    99  H    0.062661
   100  H    0.055289
   101  H    0.061067
   102  H    0.046740
   103  H    0.047475
   104  H    0.033075
   105  H    0.044339
   106  H    0.028437
   107  H    0.061277
   108  H    0.056524
   109  H    0.035980
   110  H    0.045731
   111  H    0.030880
   112  H    0.027878
   113  H    0.034758
   114  H    0.031592
   115  H    0.014303
   116  H    0.030979
   117  H    0.036065
   118  H    0.017781
   119  H    0.036642
   120  H    0.042313
   121  H    0.032511
   122  H    0.035269
   123  H    0.028712
   124  H    0.044305
   125  H    0.038812
   126  H    0.029408
   127  H    0.042172
   128  H    0.027560
   129  H    0.030976
   130  H    0.027875
   131  H    0.026599
   132  H    0.020418
   133  H    0.014485
   134  H    0.040230
   135  H    0.033467
   136  H    0.040397
   137  H    0.017206
   138  H    0.025477
   139  H    0.032946
   140  H    0.040370
 Sum of Mulliken charges =  -0.00000

 Dipole moment (field-independent basis, Debye):
    X=              3.9148    Y=              3.3244    Z=             -1.3363  Tot=              5.3069
 Quadrupole moment (field-independent basis, Debye-Ang):
   XX=           -373.1853   YY=           -434.2042   ZZ=           -401.4982
   XY=            -26.0560   XZ=              2.3697   YZ=             -0.4842

 Normal termination of Gaussian 16 at Thu Apr 28 04:36:19 2022.
