 Gaussian 16, Revision A.03,
 Gaussian 16:  ES64L-G16RevA.03 25-Dec-2016

 --------------------------------
 #p wB97XD/Def2SVP td=(nstates=5)
 --------------------------------

 -----------------------------------------------------
 step_1451_chromophore_15 TDDFT with wB97XD functional
 -----------------------------------------------------
 Symbolic Z-matrix:
 Charge =  0 Multiplicity = 1

                         Standard orientation:
 ---------------------------------------------------------------------
 Center     Atomic      Atomic             Coordinates (Angstroms)
 Number     Number       Type             X           Y           Z
 ---------------------------------------------------------------------
      1         12           0       -4.717563    0.893655   -0.025106
      2          6           0       -4.137565   -2.587270    0.483392
      3          6           0       -1.194835    1.305350    0.075905
      4          6           0       -5.184300    4.089094    0.336850
      5          6           0       -8.086799    0.194142    0.600081
      6          7           0       -2.846005   -0.520760    0.293364
      7          6           0       -2.913153   -1.899074    0.267601
      8          6           0       -1.537784   -2.462046   -0.043309
      9          6           0       -0.562892   -1.312195    0.158296
     10          6           0       -1.551399   -0.091232    0.169961
     11          6           0        0.451050   -1.542854    1.333411
     12          6           0       -1.590358   -2.918922   -1.583711
     13          6           0       -0.375470   -3.420863   -2.296730
     14          6           0        0.941760   -3.695915   -1.616529
     15          8           0        1.111032   -4.343495   -0.583952
     16          8           0        2.084654   -3.068503   -2.308623
     17          7           0       -3.334837    2.546945    0.062281
     18          6           0       -1.964124    2.477642    0.101171
     19          6           0       -1.495298    3.828979   -0.120429
     20          6           0       -2.622216    4.737801   -0.058897
     21          6           0       -3.781526    3.811103    0.113116
     22          6           0       -0.108318    4.206601   -0.272673
     23          6           0       -2.688653    6.240748   -0.246476
     24          8           0       -3.751140    6.809980   -0.111904
     25          6           0       -1.459991    7.026463   -0.532660
     26          7           0       -6.472820    1.981887    0.385770
     27          6           0       -6.410524    3.294621    0.413952
     28          6           0       -7.815329    3.946662    0.422607
     29          6           0       -8.768765    2.708181    0.554706
     30          6           0       -7.727181    1.546691    0.510243
     31          6           0       -7.915835    5.082033    1.528889
     32          6           0       -9.844955    2.648189   -0.531769
     33          6           0      -11.135936    1.900499   -0.281452
     34          7           0       -5.920059   -0.753152    0.335243
     35          6           0       -7.288853   -0.888298    0.587828
     36          6           0       -7.631180   -2.244264    0.714819
     37          6           0       -6.431612   -2.905719    0.755297
     38          6           0       -5.432096   -1.978439    0.482699
     39          6           0       -9.038100   -2.854138    0.903621
     40          6           0       -5.823342   -4.184839    0.885956
     41          8           0       -6.279368   -5.286267    1.029353
     42          6           0       -4.294856   -3.898484    1.000618
     43          6           0       -3.556340   -5.100540    0.392130
     44          8           0       -3.698463   -5.458468   -0.763477
     45          8           0       -2.686442   -5.614377    1.355313
     46          6           0       -1.708766   -6.560488    0.768742
     47          6           0        3.365293   -3.313703   -1.626709
     48          6           0        4.560000   -2.743871   -2.316585
     49          6           0        5.798538   -2.525767   -1.857695
     50          6           0        6.325851   -3.221812   -0.646056
     51          6           0        6.775425   -1.772336   -2.669027
     52          6           0        6.306674   -0.583053   -3.686614
     53          6           0        7.349357    0.554175   -3.557742
     54          6           0        6.748740    1.729167   -2.661709
     55          6           0        5.635190    2.432908   -3.462978
     56          6           0        7.893405    2.650317   -2.231103
     57          6           0        8.399225    2.282829   -0.843620
     58          6           0        9.652893    1.400101   -0.999744
     59          6           0       10.646650    1.811851    0.174803
     60          6           0       11.721835    2.777970   -0.354937
     61          6           0       11.301214    0.507851    0.825753
     62          6           0       12.049620    0.853004    2.221673
     63          6           0       11.866837   -0.153822    3.364140
     64          6           0       11.151599    0.487101    4.574146
     65          6           0       11.407618   -0.380135    5.773832
     66          6           0        9.620821    0.465435    4.246850
     67          1           0       -0.117338    1.483231    0.074433
     68          1           0       -5.429962    5.151494    0.399792
     69          1           0       -9.101363   -0.171565    0.769456
     70          1           0       -1.409619   -3.297100    0.645240
     71          1           0        0.041511   -1.146228   -0.733157
     72          1           0        0.607085   -2.614517    1.456026
     73          1           0        0.050579   -1.130497    2.259769
     74          1           0        1.389757   -1.104698    0.994526
     75          1           0       -1.753091   -1.957019   -2.068399
     76          1           0       -2.402956   -3.627858   -1.743831
     77          1           0       -0.100717   -2.720416   -3.085932
     78          1           0       -0.631984   -4.369045   -2.770911
     79          1           0        0.036559    4.800373   -1.175535
     80          1           0        0.490426    3.321450   -0.483659
     81          1           0        0.315184    4.746880    0.573858
     82          1           0       -0.888313    6.610699   -1.362523
     83          1           0       -0.873256    6.905161    0.377237
     84          1           0       -1.721051    8.067127   -0.726197
     85          1           0       -7.952373    4.417403   -0.551441
     86          1           0       -9.226180    2.773485    1.541566
     87          1           0       -7.137267    4.879449    2.264814
     88          1           0       -8.899086    4.998169    1.991846
     89          1           0       -7.801004    6.106820    1.175566
     90          1           0       -9.423084    2.079762   -1.361777
     91          1           0      -10.097965    3.644483   -0.893900
     92          1           0      -11.191520    0.947186   -0.806738
     93          1           0      -11.899727    2.595663   -0.630454
     94          1           0      -11.196587    1.761488    0.797773
     95          1           0       -9.595603   -2.290806    1.652067
     96          1           0       -8.968347   -3.873159    1.284941
     97          1           0       -9.646900   -2.813899   -0.000124
     98          1           0       -4.027935   -3.943950    2.056285
     99          1           0       -2.150462   -7.533074    0.551026
    100          1           0       -0.987701   -6.746752    1.565173
    101          1           0       -1.194235   -6.159319   -0.103963
    102          1           0        3.534678   -4.385464   -1.525442
    103          1           0        3.350674   -2.945048   -0.600976
    104          1           0        4.269895   -2.278794   -3.258869
    105          1           0        5.566060   -3.228001    0.135410
    106          1           0        7.235098   -2.718815   -0.314854
    107          1           0        6.638844   -4.249676   -0.825843
    108          1           0        7.245017   -2.576557   -3.234610
    109          1           0        7.500920   -1.321014   -1.991810
    110          1           0        5.259448   -0.369939   -3.471311
    111          1           0        6.343344   -1.017261   -4.686219
    112          1           0        7.592823    0.851015   -4.578122
    113          1           0        8.285686    0.237184   -3.099011
    114          1           0        6.212357    1.190481   -1.879657
    115          1           0        5.722470    3.504762   -3.290663
    116          1           0        4.652925    2.203898   -3.050782
    117          1           0        5.632049    2.355414   -4.550378
    118          1           0        7.534659    3.674565   -2.133685
    119          1           0        8.571883    2.588207   -3.082264
    120          1           0        7.687174    1.778330   -0.190783
    121          1           0        8.690495    3.261894   -0.461717
    122          1           0       10.075895    1.488845   -2.000536
    123          1           0        9.283509    0.377156   -0.919111
    124          1           0       10.064243    2.274068    0.972966
    125          1           0       11.336587    3.761722   -0.086447
    126          1           0       11.752464    2.684445   -1.440444
    127          1           0       12.724509    2.563858    0.015951
    128          1           0       12.094825    0.255156    0.122361
    129          1           0       10.561907   -0.291370    0.869876
    130          1           0       11.845290    1.817071    2.686581
    131          1           0       13.100983    0.919025    1.942478
    132          1           0       12.782192   -0.695887    3.603743
    133          1           0       11.277591   -1.004965    3.023667
    134          1           0       11.520655    1.498062    4.746027
    135          1           0       12.071614    0.181324    6.431714
    136          1           0       11.784811   -1.379863    5.559164
    137          1           0       10.484060   -0.493578    6.341378
    138          1           0        9.092042    0.418464    5.198916
    139          1           0        9.302454   -0.435866    3.723189
    140          1           0        9.249582    1.352895    3.734649
 ---------------------------------------------------------------------

 SCF Done:  E(RwB97XD) =  -3007.85983312     A.U. after   20 cycles

 Excitation energies and oscillator strengths:

 Excited State   1:      Singlet-A      1.7075 eV  726.12 nm  f=0.3351  <S**2>=0.000
     245 -> 248        0.21999
     246 -> 247        0.67370
     245 <- 248        0.12236
 This state for optimization and/or second-order correction.
 Total Energy, E(TD-HF/TD-DFT) =  -3007.79708370
 Copying the excited state density for this state as the 1-particle RhoCI density.

 Excited State   2:      Singlet-A      2.1213 eV  584.47 nm  f=0.0815  <S**2>=0.000
     245 -> 247        0.62949
     246 -> 248       -0.31224

 Excited State   3:      Singlet-A      3.4111 eV  363.48 nm  f=0.2142  <S**2>=0.000
     242 -> 247        0.24753
     243 -> 247        0.48102
     245 -> 247        0.15896
     246 -> 248        0.40484

 Excited State   4:      Singlet-A      3.4888 eV  355.38 nm  f=0.3807  <S**2>=0.000
     242 -> 247       -0.14710
     242 -> 249       -0.10224
     243 -> 247        0.45534
     245 -> 247       -0.21072
     246 -> 248       -0.41144

 Excited State   5:      Singlet-A      3.6756 eV  337.32 nm  f=0.1047  <S**2>=0.000
     241 -> 247        0.46877
     241 -> 249        0.21107
     241 -> 251       -0.15773
     242 -> 247       -0.28826
     242 -> 249       -0.10576
     242 -> 251        0.10743
     246 -> 248        0.16495

 The electronic state is 1-A.
 Alpha  occ. eigenvalues --  -46.96435 -19.30592 -19.30266 -19.26793 -19.25260
 Alpha  occ. eigenvalues --  -19.23596 -19.23405 -14.46702 -14.46621 -14.44031
 Alpha  occ. eigenvalues --  -14.43462 -10.44887 -10.43202 -10.38846 -10.37694
 Alpha  occ. eigenvalues --  -10.35701 -10.35452 -10.35246 -10.34939 -10.34795
 Alpha  occ. eigenvalues --  -10.34763 -10.34649 -10.34084 -10.32652 -10.32288
 Alpha  occ. eigenvalues --  -10.32286 -10.32197 -10.32187 -10.31972 -10.31878
 Alpha  occ. eigenvalues --  -10.31776 -10.31565 -10.31521 -10.31436 -10.31352
 Alpha  occ. eigenvalues --  -10.31330 -10.30809 -10.30746 -10.30601 -10.30386
 Alpha  occ. eigenvalues --  -10.30120 -10.30058 -10.29974 -10.29887 -10.29828
 Alpha  occ. eigenvalues --  -10.29825 -10.29804 -10.29798 -10.29778 -10.29744
 Alpha  occ. eigenvalues --  -10.29706 -10.29670 -10.29268 -10.29214 -10.29096
 Alpha  occ. eigenvalues --  -10.28991 -10.28828 -10.28807 -10.28795 -10.28491
 Alpha  occ. eigenvalues --  -10.28437 -10.28369 -10.28235 -10.28133 -10.27935
 Alpha  occ. eigenvalues --  -10.27802  -3.22249  -1.95821  -1.95394  -1.95175
 Alpha  occ. eigenvalues --   -1.17607  -1.16956  -1.12745  -1.12703  -1.10179
 Alpha  occ. eigenvalues --   -1.09664  -1.07525  -1.06288  -1.05336  -1.04531
 Alpha  occ. eigenvalues --   -0.95582  -0.92675  -0.91917  -0.91616  -0.90962
 Alpha  occ. eigenvalues --   -0.90875  -0.90432  -0.89477  -0.89132  -0.88934
 Alpha  occ. eigenvalues --   -0.88216  -0.87785  -0.85897  -0.85830  -0.84918
 Alpha  occ. eigenvalues --   -0.84176  -0.83933  -0.83202  -0.82633  -0.82001
 Alpha  occ. eigenvalues --   -0.81700  -0.80052  -0.80019  -0.79066  -0.77871
 Alpha  occ. eigenvalues --   -0.77640  -0.77199  -0.77089  -0.76613  -0.75904
 Alpha  occ. eigenvalues --   -0.75229  -0.74699  -0.73816  -0.72178  -0.70877
 Alpha  occ. eigenvalues --   -0.70761  -0.70435  -0.68956  -0.68861  -0.67619
 Alpha  occ. eigenvalues --   -0.67226  -0.66869  -0.66715  -0.66411  -0.65839
 Alpha  occ. eigenvalues --   -0.65584  -0.64866  -0.64715  -0.63819  -0.62172
 Alpha  occ. eigenvalues --   -0.61672  -0.61277  -0.60938  -0.60450  -0.60030
 Alpha  occ. eigenvalues --   -0.59217  -0.58907  -0.58171  -0.57726  -0.57668
 Alpha  occ. eigenvalues --   -0.56980  -0.56613  -0.56292  -0.56098  -0.56073
 Alpha  occ. eigenvalues --   -0.55858  -0.55290  -0.55052  -0.54953  -0.54723
 Alpha  occ. eigenvalues --   -0.54575  -0.54491  -0.54404  -0.54252  -0.53727
 Alpha  occ. eigenvalues --   -0.53637  -0.53581  -0.53241  -0.53131  -0.52841
 Alpha  occ. eigenvalues --   -0.52486  -0.52262  -0.52178  -0.52074  -0.51697
 Alpha  occ. eigenvalues --   -0.51396  -0.51195  -0.51144  -0.50796  -0.50672
 Alpha  occ. eigenvalues --   -0.50535  -0.50233  -0.49900  -0.49840  -0.49470
 Alpha  occ. eigenvalues --   -0.49290  -0.49226  -0.48903  -0.48683  -0.48658
 Alpha  occ. eigenvalues --   -0.48476  -0.48376  -0.48091  -0.47788  -0.47760
 Alpha  occ. eigenvalues --   -0.47740  -0.47304  -0.47237  -0.47049  -0.46930
 Alpha  occ. eigenvalues --   -0.46860  -0.46692  -0.46591  -0.46337  -0.45895
 Alpha  occ. eigenvalues --   -0.45523  -0.45433  -0.45286  -0.45175  -0.44992
 Alpha  occ. eigenvalues --   -0.44672  -0.44573  -0.44371  -0.44038  -0.43916
 Alpha  occ. eigenvalues --   -0.43771  -0.43397  -0.43352  -0.43157  -0.43014
 Alpha  occ. eigenvalues --   -0.42814  -0.42661  -0.42456  -0.42207  -0.42019
 Alpha  occ. eigenvalues --   -0.41835  -0.41680  -0.41632  -0.41569  -0.41240
 Alpha  occ. eigenvalues --   -0.40890  -0.40786  -0.40640  -0.39558  -0.39413
 Alpha  occ. eigenvalues --   -0.39150  -0.39107  -0.38810  -0.38721  -0.38489
 Alpha  occ. eigenvalues --   -0.38212  -0.37825  -0.36972  -0.36895  -0.36500
 Alpha  occ. eigenvalues --   -0.36365  -0.35500  -0.34560  -0.33103  -0.33022
 Alpha  occ. eigenvalues --   -0.32438  -0.32119  -0.31417  -0.31052  -0.25290
 Alpha  occ. eigenvalues --   -0.22909
 Alpha virt. eigenvalues --   -0.06477  -0.00243   0.02735   0.04534   0.05153
 Alpha virt. eigenvalues --    0.05300   0.07193   0.07912   0.08186   0.09624
 Alpha virt. eigenvalues --    0.10453   0.10888   0.11134   0.11982   0.12711

 Mulliken charges:
               1
     1  Mg   0.956880
     2  C   -0.005896
     3  C   -0.098318
     4  C   -0.046453
     5  C   -0.097991
     6  N   -0.312350
     7  C   -0.008827
     8  C   -0.076403
     9  C   -0.086140
    10  C    0.029646
    11  C    0.034618
    12  C    0.014129
    13  C    0.038878
    14  C    0.213380
    15  O   -0.261324
    16  O   -0.422282
    17  N   -0.435458
    18  C    0.180392
    19  C   -0.174375
    20  C   -0.065754
    21  C    0.128231
    22  C    0.064834
    23  C    0.030730
    24  O   -0.225801
    25  C    0.006470
    26  N   -0.331099
    27  C    0.029110
    28  C   -0.123056
    29  C   -0.022499
    30  C    0.066980
    31  C    0.008364
    32  C   -0.045160
    33  C   -0.028480
    34  N   -0.437346
    35  C    0.096830
    36  C   -0.171024
    37  C   -0.033086
    38  C    0.147812
    39  C    0.072016
    40  C    0.121609
    41  O   -0.184475
    42  C   -0.112279
    43  C    0.253380
    44  O   -0.240170
    45  O   -0.375434
    46  C    0.141614
    47  C    0.263007
    48  C   -0.150991
    49  C   -0.215950
    50  C    0.026589
    51  C    0.015318
    52  C   -0.028451
    53  C   -0.013877
    54  C   -0.203717
    55  C    0.013334
    56  C    0.031147
    57  C   -0.026710
    58  C   -0.012182
    59  C   -0.202022
    60  C    0.020784
    61  C   -0.002997
    62  C   -0.015895
    63  C    0.001220
    64  C   -0.231878
    65  C    0.022116
    66  C   -0.006350
    67  H   -0.002284
    68  H    0.016117
    69  H   -0.022596
    70  H    0.034828
    71  H    0.030527
    72  H    0.056416
    73  H    0.047141
    74  H    0.038031
    75  H    0.028865
    76  H    0.072184
    77  H    0.055663
    78  H    0.077305
    79  H    0.036883
    80  H    0.024499
    81  H    0.063394
    82  H    0.049549
    83  H    0.054426
    84  H    0.059037
    85  H    0.050528
    86  H    0.029175
    87  H    0.047437
    88  H    0.032922
    89  H    0.054876
    90  H    0.029034
    91  H    0.035406
    92  H    0.046893
    93  H    0.037392
    94  H    0.029135
    95  H    0.037646
    96  H    0.060802
    97  H    0.049479
    98  H    0.080419
    99  H    0.058869
   100  H    0.052170
   101  H    0.054357
   102  H    0.040819
   103  H    0.039113
   104  H    0.028545
   105  H    0.038501
   106  H    0.023544
   107  H    0.056239
   108  H    0.048217
   109  H    0.018138
   110  H    0.033735
   111  H    0.024469
   112  H    0.019803
   113  H    0.017542
   114  H    0.016078
   115  H    0.007295
   116  H    0.025857
   117  H    0.030746
   118  H    0.009521
   119  H    0.026061
   120  H    0.035461
   121  H    0.022118
   122  H    0.024218
   123  H    0.014926
   124  H    0.028816
   125  H    0.033452
   126  H    0.023019
   127  H    0.036315
   128  H    0.017816
   129  H    0.021904
   130  H    0.016511
   131  H    0.019057
   132  H    0.013100
   133  H    0.002187
   134  H    0.030819
   135  H    0.028211
   136  H    0.034934
   137  H    0.010371
   138  H    0.018160
   139  H    0.026240
   140  H    0.034703
 Sum of Mulliken charges =  -0.00000

 Dipole moment (field-independent basis, Debye):
    X=              4.1874    Y=              3.6126    Z=             -1.3810  Tot=              5.7002
 Quadrupole moment (field-independent basis, Debye-Ang):
   XX=           -375.5033   YY=           -432.5973   ZZ=           -401.1905
   XY=            -26.1709   XZ=              2.7105   YZ=             -0.6954

 Normal termination of Gaussian 16 at Thu Apr 28 05:12:27 2022.
