 Gaussian 16, Revision A.03,
 Gaussian 16:  ES64L-G16RevA.03 25-Dec-2016

 --------------------
 #p ZINDO=(nstates=5)
 --------------------

 ------------------------------
 step_1451_chromophore_15 ZINDO
 ------------------------------
 Symbolic Z-matrix:
 Charge =  0 Multiplicity = 1

                         Standard orientation:
 ---------------------------------------------------------------------
 Center     Atomic      Atomic             Coordinates (Angstroms)
 Number     Number       Type             X           Y           Z
 ---------------------------------------------------------------------
      1         12           0       -4.717563    0.893655   -0.025106
      2          6           0       -4.137565   -2.587270    0.483392
      3          6           0       -1.194835    1.305350    0.075905
      4          6           0       -5.184300    4.089094    0.336850
      5          6           0       -8.086799    0.194142    0.600081
      6          7           0       -2.846005   -0.520760    0.293364
      7          6           0       -2.913153   -1.899074    0.267601
      8          6           0       -1.537784   -2.462046   -0.043309
      9          6           0       -0.562892   -1.312195    0.158296
     10          6           0       -1.551399   -0.091232    0.169961
     11          6           0        0.451050   -1.542854    1.333411
     12          6           0       -1.590358   -2.918922   -1.583711
     13          6           0       -0.375470   -3.420863   -2.296730
     14          6           0        0.941760   -3.695915   -1.616529
     15          8           0        1.111032   -4.343495   -0.583952
     16          8           0        2.084654   -3.068503   -2.308623
     17          7           0       -3.334837    2.546945    0.062281
     18          6           0       -1.964124    2.477642    0.101171
     19          6           0       -1.495298    3.828979   -0.120429
     20          6           0       -2.622216    4.737801   -0.058897
     21          6           0       -3.781526    3.811103    0.113116
     22          6           0       -0.108318    4.206601   -0.272673
     23          6           0       -2.688653    6.240748   -0.246476
     24          8           0       -3.751140    6.809980   -0.111904
     25          6           0       -1.459991    7.026463   -0.532660
     26          7           0       -6.472820    1.981887    0.385770
     27          6           0       -6.410524    3.294621    0.413952
     28          6           0       -7.815329    3.946662    0.422607
     29          6           0       -8.768765    2.708181    0.554706
     30          6           0       -7.727181    1.546691    0.510243
     31          6           0       -7.915835    5.082033    1.528889
     32          6           0       -9.844955    2.648189   -0.531769
     33          6           0      -11.135936    1.900499   -0.281452
     34          7           0       -5.920059   -0.753152    0.335243
     35          6           0       -7.288853   -0.888298    0.587828
     36          6           0       -7.631180   -2.244264    0.714819
     37          6           0       -6.431612   -2.905719    0.755297
     38          6           0       -5.432096   -1.978439    0.482699
     39          6           0       -9.038100   -2.854138    0.903621
     40          6           0       -5.823342   -4.184839    0.885956
     41          8           0       -6.279368   -5.286267    1.029353
     42          6           0       -4.294856   -3.898484    1.000618
     43          6           0       -3.556340   -5.100540    0.392130
     44          8           0       -3.698463   -5.458468   -0.763477
     45          8           0       -2.686442   -5.614377    1.355313
     46          6           0       -1.708766   -6.560488    0.768742
     47          6           0        3.365293   -3.313703   -1.626709
     48          6           0        4.560000   -2.743871   -2.316585
     49          6           0        5.798538   -2.525767   -1.857695
     50          6           0        6.325851   -3.221812   -0.646056
     51          6           0        6.775425   -1.772336   -2.669027
     52          6           0        6.306674   -0.583053   -3.686614
     53          6           0        7.349357    0.554175   -3.557742
     54          6           0        6.748740    1.729167   -2.661709
     55          6           0        5.635190    2.432908   -3.462978
     56          6           0        7.893405    2.650317   -2.231103
     57          6           0        8.399225    2.282829   -0.843620
     58          6           0        9.652893    1.400101   -0.999744
     59          6           0       10.646650    1.811851    0.174803
     60          6           0       11.721835    2.777970   -0.354937
     61          6           0       11.301214    0.507851    0.825753
     62          6           0       12.049620    0.853004    2.221673
     63          6           0       11.866837   -0.153822    3.364140
     64          6           0       11.151599    0.487101    4.574146
     65          6           0       11.407618   -0.380135    5.773832
     66          6           0        9.620821    0.465435    4.246850
     67          1           0       -0.117338    1.483231    0.074433
     68          1           0       -5.429962    5.151494    0.399792
     69          1           0       -9.101363   -0.171565    0.769456
     70          1           0       -1.409619   -3.297100    0.645240
     71          1           0        0.041511   -1.146228   -0.733157
     72          1           0        0.607085   -2.614517    1.456026
     73          1           0        0.050579   -1.130497    2.259769
     74          1           0        1.389757   -1.104698    0.994526
     75          1           0       -1.753091   -1.957019   -2.068399
     76          1           0       -2.402956   -3.627858   -1.743831
     77          1           0       -0.100717   -2.720416   -3.085932
     78          1           0       -0.631984   -4.369045   -2.770911
     79          1           0        0.036559    4.800373   -1.175535
     80          1           0        0.490426    3.321450   -0.483659
     81          1           0        0.315184    4.746880    0.573858
     82          1           0       -0.888313    6.610699   -1.362523
     83          1           0       -0.873256    6.905161    0.377237
     84          1           0       -1.721051    8.067127   -0.726197
     85          1           0       -7.952373    4.417403   -0.551441
     86          1           0       -9.226180    2.773485    1.541566
     87          1           0       -7.137267    4.879449    2.264814
     88          1           0       -8.899086    4.998169    1.991846
     89          1           0       -7.801004    6.106820    1.175566
     90          1           0       -9.423084    2.079762   -1.361777
     91          1           0      -10.097965    3.644483   -0.893900
     92          1           0      -11.191520    0.947186   -0.806738
     93          1           0      -11.899727    2.595663   -0.630454
     94          1           0      -11.196587    1.761488    0.797773
     95          1           0       -9.595603   -2.290806    1.652067
     96          1           0       -8.968347   -3.873159    1.284941
     97          1           0       -9.646900   -2.813899   -0.000124
     98          1           0       -4.027935   -3.943950    2.056285
     99          1           0       -2.150462   -7.533074    0.551026
    100          1           0       -0.987701   -6.746752    1.565173
    101          1           0       -1.194235   -6.159319   -0.103963
    102          1           0        3.534678   -4.385464   -1.525442
    103          1           0        3.350674   -2.945048   -0.600976
    104          1           0        4.269895   -2.278794   -3.258869
    105          1           0        5.566060   -3.228001    0.135410
    106          1           0        7.235098   -2.718815   -0.314854
    107          1           0        6.638844   -4.249676   -0.825843
    108          1           0        7.245017   -2.576557   -3.234610
    109          1           0        7.500920   -1.321014   -1.991810
    110          1           0        5.259448   -0.369939   -3.471311
    111          1           0        6.343344   -1.017261   -4.686219
    112          1           0        7.592823    0.851015   -4.578122
    113          1           0        8.285686    0.237184   -3.099011
    114          1           0        6.212357    1.190481   -1.879657
    115          1           0        5.722470    3.504762   -3.290663
    116          1           0        4.652925    2.203898   -3.050782
    117          1           0        5.632049    2.355414   -4.550378
    118          1           0        7.534659    3.674565   -2.133685
    119          1           0        8.571883    2.588207   -3.082264
    120          1           0        7.687174    1.778330   -0.190783
    121          1           0        8.690495    3.261894   -0.461717
    122          1           0       10.075895    1.488845   -2.000536
    123          1           0        9.283509    0.377156   -0.919111
    124          1           0       10.064243    2.274068    0.972966
    125          1           0       11.336587    3.761722   -0.086447
    126          1           0       11.752464    2.684445   -1.440444
    127          1           0       12.724509    2.563858    0.015951
    128          1           0       12.094825    0.255156    0.122361
    129          1           0       10.561907   -0.291370    0.869876
    130          1           0       11.845290    1.817071    2.686581
    131          1           0       13.100983    0.919025    1.942478
    132          1           0       12.782192   -0.695887    3.603743
    133          1           0       11.277591   -1.004965    3.023667
    134          1           0       11.520655    1.498062    4.746027
    135          1           0       12.071614    0.181324    6.431714
    136          1           0       11.784811   -1.379863    5.559164
    137          1           0       10.484060   -0.493578    6.341378
    138          1           0        9.092042    0.418464    5.198916
    139          1           0        9.302454   -0.435866    3.723189
    140          1           0        9.249582    1.352895    3.734649
 ---------------------------------------------------------------------

 SCF Done:  E(RZINDO/S) =  -474.365641304     A.U. after   20 cycles

 Excitation energies and oscillator strengths:

 Excited State   1:      Singlet-A      1.2715 eV  975.10 nm  f=0.5417  <S**2>=0.000
     175 ->178        -0.21715
     176 ->177         0.65617
 This state for optimization and/or second-order correction.
 Total Energy, E(CIS/TDA) =  -474.318914598
 Copying the excited state density for this state as the 1-particle RhoCI density.

 Excited State   2:      Singlet-A      1.8616 eV  666.00 nm  f=0.0274  <S**2>=0.000
     175 ->177         0.54107
     176 ->178         0.43357

 Excited State   3:      Singlet-A      2.9480 eV  420.56 nm  f=0.1731  <S**2>=0.000
     170 ->177         0.29960
     170 ->179         0.29312
     170 ->182         0.33551
     170 ->185         0.19530
     170 ->187        -0.12519
     174 ->177         0.13217
     175 ->177        -0.14587
     176 ->178         0.20050

 Excited State   4:      Singlet-A      3.0086 eV  412.10 nm  f=0.4516  <S**2>=0.000
     175 ->177         0.24582
     176 ->178        -0.31961
     176 ->179         0.22461
     176 ->180        -0.26963
     176 ->181         0.37963

 Excited State   5:      Singlet-A      3.0195 eV  410.61 nm  f=0.6776  <S**2>=0.000
     172 ->177        -0.14467
     175 ->177        -0.28328
     176 ->178         0.36088
     176 ->179         0.18367
     176 ->180        -0.23683
     176 ->181         0.34309

 The electronic state is 1-A.
 Alpha  occ. eigenvalues --   -1.87194  -1.81135  -1.79627  -1.72813  -1.71058
 Alpha  occ. eigenvalues --   -1.68318  -1.66186  -1.61375  -1.60583  -1.60085
 Alpha  occ. eigenvalues --   -1.56364  -1.51970  -1.48904  -1.48316  -1.47554
 Alpha  occ. eigenvalues --   -1.45547  -1.41923  -1.41683  -1.39171  -1.39120
 Alpha  occ. eigenvalues --   -1.35938  -1.33351  -1.32602  -1.31953  -1.29110
 Alpha  occ. eigenvalues --   -1.27075  -1.25234  -1.23035  -1.21069  -1.18780
 Alpha  occ. eigenvalues --   -1.16957  -1.15178  -1.14618  -1.14087  -1.12906
 Alpha  occ. eigenvalues --   -1.12296  -1.10725  -1.09876  -1.05196  -1.03789
 Alpha  occ. eigenvalues --   -1.01760  -1.01222  -1.00526  -0.98249  -0.95849
 Alpha  occ. eigenvalues --   -0.95296  -0.94977  -0.93359  -0.92880  -0.92325
 Alpha  occ. eigenvalues --   -0.92117  -0.90529  -0.89329  -0.88369  -0.86398
 Alpha  occ. eigenvalues --   -0.86185  -0.84796  -0.83472  -0.82054  -0.79996
 Alpha  occ. eigenvalues --   -0.79548  -0.78219  -0.77238  -0.76213  -0.75512
 Alpha  occ. eigenvalues --   -0.75061  -0.74748  -0.74336  -0.73930  -0.73247
 Alpha  occ. eigenvalues --   -0.72626  -0.72271  -0.72072  -0.71604  -0.71477
 Alpha  occ. eigenvalues --   -0.70558  -0.69082  -0.68856  -0.67715  -0.67579
 Alpha  occ. eigenvalues --   -0.67237  -0.66973  -0.66868  -0.66596  -0.65677
 Alpha  occ. eigenvalues --   -0.65391  -0.65042  -0.64768  -0.64471  -0.63413
 Alpha  occ. eigenvalues --   -0.63050  -0.62708  -0.62678  -0.61675  -0.61531
 Alpha  occ. eigenvalues --   -0.61164  -0.60976  -0.60869  -0.60548  -0.60320
 Alpha  occ. eigenvalues --   -0.60099  -0.59917  -0.59244  -0.58700  -0.58281
 Alpha  occ. eigenvalues --   -0.57858  -0.57723  -0.57371  -0.57161  -0.56528
 Alpha  occ. eigenvalues --   -0.55823  -0.55698  -0.55387  -0.54817  -0.54050
 Alpha  occ. eigenvalues --   -0.53874  -0.53633  -0.53131  -0.52959  -0.52843
 Alpha  occ. eigenvalues --   -0.52464  -0.51973  -0.51887  -0.51801  -0.50889
 Alpha  occ. eigenvalues --   -0.50812  -0.50693  -0.50357  -0.50187  -0.49763
 Alpha  occ. eigenvalues --   -0.49607  -0.49393  -0.49272  -0.49036  -0.48711
 Alpha  occ. eigenvalues --   -0.48529  -0.48435  -0.48282  -0.48096  -0.48029
 Alpha  occ. eigenvalues --   -0.47817  -0.47507  -0.47407  -0.47287  -0.46886
 Alpha  occ. eigenvalues --   -0.46640  -0.46287  -0.46176  -0.45997  -0.45603
 Alpha  occ. eigenvalues --   -0.45254  -0.45061  -0.44728  -0.44637  -0.44363
 Alpha  occ. eigenvalues --   -0.44108  -0.43835  -0.43112  -0.42658  -0.42234
 Alpha  occ. eigenvalues --   -0.41755  -0.41460  -0.40414  -0.39462  -0.39150
 Alpha  occ. eigenvalues --   -0.37780  -0.37114  -0.35380  -0.35143  -0.34164
 Alpha  occ. eigenvalues --   -0.33107  -0.32439  -0.31546  -0.31390  -0.25978
 Alpha  occ. eigenvalues --   -0.21617
 Alpha virt. eigenvalues --   -0.08038  -0.02273  -0.00160   0.01037   0.01095
 Alpha virt. eigenvalues --    0.01870   0.02765   0.03048   0.04939   0.04996
 Alpha virt. eigenvalues --    0.06380   0.07148   0.07475   0.08198   0.08360

 Mulliken charges:
               1
     1  Mg   0.438206
     2  C   -0.045410
     3  C   -0.081940
     4  C   -0.082646
     5  C   -0.053797
     6  N   -0.297564
     7  C    0.110078
     8  C    0.015639
     9  C    0.009160
    10  C    0.125579
    11  C   -0.048908
    12  C   -0.018479
    13  C    0.018196
    14  C    0.459663
    15  O   -0.510011
    16  O   -0.291837
    17  N   -0.322772
    18  C    0.112009
    19  C    0.023856
    20  C   -0.064005
    21  C    0.142981
    22  C   -0.039923
    23  C    0.335926
    24  O   -0.524180
    25  C   -0.026921
    26  N   -0.234590
    27  C    0.141314
    28  C   -0.001671
    29  C    0.005733
    30  C    0.102226
    31  C   -0.053848
    32  C   -0.028415
    33  C   -0.058214
    34  N   -0.332724
    35  C    0.087715
    36  C    0.026444
    37  C   -0.048612
    38  C    0.119209
    39  C   -0.042463
    40  C    0.333146
    41  O   -0.511371
    42  C    0.059961
    43  C    0.480237
    44  O   -0.510610
    45  O   -0.270711
    46  C    0.074132
    47  C    0.108199
    48  C   -0.092361
    49  C   -0.004451
    50  C   -0.042224
    51  C   -0.033293
    52  C   -0.043197
    53  C   -0.038414
    54  C   -0.015487
    55  C   -0.061913
    56  C   -0.031109
    57  C   -0.035823
    58  C   -0.042755
    59  C   -0.021213
    60  C   -0.056183
    61  C   -0.045596
    62  C   -0.046142
    63  C   -0.034761
    64  C   -0.004098
    65  C   -0.056236
    66  C   -0.058276
    67  H    0.019739
    68  H    0.035891
    69  H    0.024461
    70  H    0.039614
    71  H    0.025411
    72  H    0.032920
    73  H    0.028415
    74  H    0.022822
    75  H    0.023155
    76  H    0.045555
    77  H    0.029504
    78  H    0.050805
    79  H    0.026071
    80  H    0.017459
    81  H    0.036201
    82  H    0.035731
    83  H    0.040283
    84  H    0.040362
    85  H    0.034637
    86  H    0.031640
    87  H    0.026049
    88  H    0.015990
    89  H    0.031150
    90  H    0.015899
    91  H    0.020597
    92  H    0.027018
    93  H    0.020159
    94  H    0.019396
    95  H    0.019708
    96  H    0.034186
    97  H    0.032963
    98  H    0.055748
    99  H    0.046639
   100  H    0.026340
   101  H    0.050110
   102  H    0.045651
   103  H    0.044901
   104  H    0.022364
   105  H    0.026266
   106  H    0.016111
   107  H    0.031924
   108  H    0.030821
   109  H    0.021773
   110  H    0.034964
   111  H    0.015057
   112  H    0.016839
   113  H    0.021412
   114  H    0.025062
   115  H    0.005176
   116  H    0.014937
   117  H    0.025025
   118  H    0.008700
   119  H    0.030662
   120  H    0.031646
   121  H    0.014746
   122  H    0.027437
   123  H    0.014717
   124  H    0.022639
   125  H    0.019784
   126  H    0.018777
   127  H    0.026063
   128  H    0.017735
   129  H    0.028024
   130  H    0.024825
   131  H    0.011308
   132  H    0.014778
   133  H    0.012399
   134  H    0.030217
   135  H    0.012897
   136  H    0.025571
   137  H    0.012243
   138  H    0.009075
   139  H    0.023395
   140  H    0.016997
 Sum of Mulliken charges =  -0.00000

 Dipole moment (field-independent basis, Debye):
    X=              6.2427    Y=              5.1709    Z=             -1.5415  Tot=              8.2514
 N-N= 4.407011797219D+03 E-N= 0.000000000000D+00  KE=-9.488453929827D+03
 Leave Link  601 at Thu Apr 28 05:25:18 2022, MaxMem=  6710886400 cpu:               3.3 elap:               0.2
 (Enter /sw/apps/gaussian-16.0/g16/l9999.exe)
 1\1\GINC-BP1-COMPUTE134\SP\RZINDO CIS\STO-3G\C55H74Mg1N4O6\OF15641\28-
 Apr-2022\0\\#p ZINDO=(nstates=5)\\step_1451_chromophore_15 ZINDO\\0,1\
 Mg,0,46.746,34.337,27.908\C,0,44.935,32.651,30.475\C,0,46.919,37.113,3
 0.111\C,0,47.648,36.177,25.386\C,0,45.797,31.699,25.817\N,0,45.956,34.
 837,30.083\C,0,45.439,33.893,30.947\C,0,45.546,34.406,32.372\C,0,45.83
 9,35.894,32.257\C,0,46.276,35.989,30.751\C,0,44.698,36.808,32.827\C,0,
 46.783,33.617,33.029\C,0,47.279,33.937,34.403\C,0,46.585,34.889,35.344

 Normal termination of Gaussian 16 at Thu Apr 28 05:25:18 2022.
