 Gaussian 16, Revision A.03,
 Gaussian 16:  ES64L-G16RevA.03 25-Dec-2016

 ------------------------------
 #p blyp/Def2SVP td=(nstates=5)
 ------------------------------

 --------------------------------------------------
 step_601_chromophore_12 TDDFT with blyp functional
 --------------------------------------------------
 Symbolic Z-matrix:
 Charge =  0 Multiplicity = 1

                         Standard orientation:
 ---------------------------------------------------------------------
 Center     Atomic      Atomic             Coordinates (Angstroms)
 Number     Number       Type             X           Y           Z
 ---------------------------------------------------------------------
      1         12           0       -4.291477    0.452512   -0.375855
      2          6           0       -3.138598   -2.881118    0.616436
      3          6           0       -0.887112    1.363774   -0.214594
      4          6           0       -5.092787    3.478191   -1.106607
      5          6           0       -7.508439   -0.533904    0.365712
      6          7           0       -2.271089   -0.635535    0.337462
      7          6           0       -2.058619   -2.003815    0.450237
      8          6           0       -0.555626   -2.353137    0.522133
      9          6           0        0.042121   -0.924160    0.607794
     10          6           0       -1.076258    0.013300    0.154172
     11          6           0        0.659488   -0.582628    2.001041
     12          6           0        0.000189   -3.281773   -0.576764
     13          6           0        1.487691   -3.657787   -0.407849
     14          6           0        2.339215   -3.776270   -1.659548
     15          8           0        2.041247   -3.838887   -2.846932
     16          8           0        3.597200   -4.115171   -1.257984
     17          7           0       -3.119144    2.170887   -0.716120
     18          6           0       -1.768393    2.283630   -0.748646
     19          6           0       -1.493733    3.566905   -1.373787
     20          6           0       -2.710178    4.249206   -1.543884
     21          6           0       -3.704627    3.346392   -1.152902
     22          6           0       -0.079066    4.152582   -1.489125
     23          6           0       -2.935376    5.620581   -2.096126
     24          8           0       -4.056360    6.143708   -2.105078
     25          6           0       -1.745217    6.387590   -2.562178
     26          7           0       -6.083897    1.425344   -0.089538
     27          6           0       -6.145068    2.710820   -0.580328
     28          6           0       -7.619972    3.158079   -0.660498
     29          6           0       -8.328195    1.816087   -0.389285
     30          6           0       -7.277690    0.812421   -0.024054
     31          6           0       -8.095365    4.339628    0.197460
     32          6           0       -9.022766    1.252806   -1.661048
     33          6           0      -10.549514    1.649312   -1.962102
     34          7           0       -5.212822   -1.338702    0.357435
     35          6           0       -6.530503   -1.595051    0.482615
     36          6           0       -6.690012   -3.101327    0.634293
     37          6           0       -5.392767   -3.536580    0.745843
     38          6           0       -4.523051   -2.509509    0.553406
     39          6           0       -7.994985   -3.782689    0.887525
     40          6           0       -4.599062   -4.780262    1.090125
     41          8           0       -5.022160   -5.936105    1.377092
     42          6           0       -3.092191   -4.396133    0.836880
     43          6           0       -2.200582   -4.843541    1.935088
     44          8           0       -2.253339   -4.379086    3.060636
     45          8           0       -1.365719   -5.819120    1.545424
     46          6           0       -0.793930   -6.566859    2.663271
     47          6           0        4.704968   -4.078624   -2.265983
     48          6           0        6.052610   -3.765310   -1.586206
     49          6           0        7.213807   -3.866688   -2.216182
     50          6           0        7.432268   -4.291975   -3.630302
     51          6           0        8.512242   -3.434792   -1.472789
     52          6           0        8.612553   -1.973487   -0.915060
     53          6           0       10.111538   -1.507228   -0.666028
     54          6           0       10.264673   -0.011116   -0.886044
     55          6           0       11.653273    0.336966   -1.351437
     56          6           0        9.998664    0.754288    0.484968
     57          6           0        8.679332    1.573823    0.527988
     58          6           0        8.665174    2.888644    1.481713
     59          6           0        7.618038    3.994563    0.898085
     60          6           0        8.378194    5.077495    0.188199
     61          6           0        6.881823    4.562974    2.139907
     62          6           0        5.550738    3.824784    2.421542
     63          6           0        4.250767    4.731135    2.330569
     64          6           0        3.197534    4.156367    3.244313
     65          6           0        2.398445    2.953937    2.571887
     66          6           0        2.373642    5.292810    3.939328
     67          1           0        0.166813    1.648611   -0.263453
     68          1           0       -5.527985    4.416230   -1.458596
     69          1           0       -8.558150   -0.832212    0.397055
     70          1           0       -0.489451   -2.886925    1.470883
     71          1           0        0.938496   -0.791769    0.002139
     72          1           0        0.163144    0.304857    2.393802
     73          1           0        1.733886   -0.478289    1.851112
     74          1           0        0.559226   -1.345945    2.773063
     75          1           0       -0.282930   -2.988695   -1.587611
     76          1           0       -0.440132   -4.279025   -0.604836
     77          1           0        1.628141   -4.666136   -0.019945
     78          1           0        1.871848   -2.934123    0.311900
     79          1           0        0.068165    4.952383   -0.763840
     80          1           0        0.164356    4.418620   -2.518065
     81          1           0        0.711421    3.416907   -1.337355
     82          1           0       -2.157990    7.322832   -2.940763
     83          1           0       -1.190337    5.902479   -3.365821
     84          1           0       -1.042927    6.529344   -1.741349
     85          1           0       -7.817766    3.559203   -1.654270
     86          1           0       -9.082975    1.865062    0.394589
     87          1           0       -9.029588    4.007422    0.649601
     88          1           0       -8.351939    5.240444   -0.360743
     89          1           0       -7.479803    4.595724    1.060267
     90          1           0       -8.911084    0.168177   -1.660562
     91          1           0       -8.340773    1.495678   -2.476447
     92          1           0      -11.029031    2.273547   -1.207647
     93          1           0      -11.129557    0.744078   -2.143261
     94          1           0      -10.493687    2.097973   -2.953909
     95          1           0       -7.953330   -4.612728    0.183039
     96          1           0       -8.819088   -3.166205    0.527359
     97          1           0       -8.125963   -4.055665    1.934695
     98          1           0       -2.845416   -4.870180   -0.113059
     99          1           0       -0.500039   -7.501281    2.184650
    100          1           0       -1.485306   -6.674587    3.499335
    101          1           0        0.155889   -6.113064    2.948712
    102          1           0        4.570510   -3.275469   -2.990546
    103          1           0        4.823002   -4.999938   -2.834734
    104          1           0        6.169127   -3.569743   -0.520522
    105          1           0        8.389180   -4.772714   -3.833590
    106          1           0        7.329461   -3.434402   -4.294384
    107          1           0        6.627198   -4.982402   -3.885562
    108          1           0        9.469549   -3.652956   -1.946327
    109          1           0        8.520301   -4.174167   -0.672566
    110          1           0        8.165229   -2.036881    0.076654
    111          1           0        8.118310   -1.372872   -1.679003
    112          1           0       10.799343   -2.167674   -1.194248
    113          1           0       10.349124   -1.682899    0.382704
    114          1           0        9.527186    0.398601   -1.575450
    115          1           0       12.302067    0.722850   -0.565439
    116          1           0       11.535656    1.129437   -2.090908
    117          1           0       12.128108   -0.441715   -1.948839
    118          1           0       10.842755    1.412986    0.686039
    119          1           0        9.990758    0.101217    1.357707
    120          1           0        8.048549    0.857147    1.052571
    121          1           0        8.087366    1.725923   -0.373718
    122          1           0        9.645515    3.344219    1.337105
    123          1           0        8.478698    2.520745    2.491020
    124          1           0        6.839727    3.566886    0.266194
    125          1           0        9.232456    5.465951    0.743493
    126          1           0        7.673924    5.901361    0.074242
    127          1           0        8.597631    4.809095   -0.845294
    128          1           0        6.817083    5.651034    2.118216
    129          1           0        7.478958    4.185722    2.968805
    130          1           0        5.664048    3.376268    3.409112
    131          1           0        5.480901    2.912966    1.828149
    132          1           0        3.805696    4.696082    1.335180
    133          1           0        4.375185    5.808395    2.440286
    134          1           0        3.719009    3.687972    4.079088
    135          1           0        2.637581    2.021414    3.084279
    136          1           0        2.770444    2.770714    1.563429
    137          1           0        1.320773    3.110698    2.617790
    138          1           0        2.621020    6.297248    3.595100
    139          1           0        2.628515    5.113166    4.984141
    140          1           0        1.307494    5.106218    3.810457
 ---------------------------------------------------------------------

 SCF Done:  E(RB-LYP) =  -3007.35131094     A.U. after   22 cycles

 Excitation energies and oscillator strengths:

 Excited State   1:      Singlet-A      1.8051 eV  686.87 nm  f=0.3085  <S**2>=0.000
     245 -> 248       -0.17611
     246 -> 247        0.68853
     246 <- 247       -0.15147
 This state for optimization and/or second-order correction.
 Total Energy, E(TD-HF/TD-DFT) =  -3007.28497580
 Copying the excited state density for this state as the 1-particle RhoCI density.

 Excited State   2:      Singlet-A      1.9274 eV  643.27 nm  f=0.0544  <S**2>=0.000
     243 -> 247        0.14812
     244 -> 247        0.22798
     245 -> 247        0.61426
     246 -> 248        0.17931

 Excited State   3:      Singlet-A      2.0395 eV  607.91 nm  f=0.0088  <S**2>=0.000
     243 -> 247       -0.11301
     244 -> 247        0.66509
     245 -> 247       -0.18341

 Excited State   4:      Singlet-A      2.1602 eV  573.94 nm  f=0.0060  <S**2>=0.000
     243 -> 247        0.67868
     245 -> 247       -0.14192

 Excited State   5:      Singlet-A      2.3706 eV  523.00 nm  f=0.0000  <S**2>=0.000
     242 -> 247        0.70701

 The electronic state is 1-A.
 Alpha  occ. eigenvalues --  -46.27900 -18.82988 -18.81747 -18.76924 -18.76591
 Alpha  occ. eigenvalues --  -18.76560 -18.75580 -14.02883 -14.02826 -14.00720
 Alpha  occ. eigenvalues --  -14.00647 -10.04361 -10.03952 -10.00825  -9.99685
 Alpha  occ. eigenvalues --   -9.98786  -9.98133  -9.96638  -9.96509  -9.96454
 Alpha  occ. eigenvalues --   -9.96428  -9.95953  -9.95186  -9.95178  -9.94406
 Alpha  occ. eigenvalues --   -9.94358  -9.94252  -9.94225  -9.93914  -9.93845
 Alpha  occ. eigenvalues --   -9.93737  -9.93551  -9.93519  -9.93347  -9.93245
 Alpha  occ. eigenvalues --   -9.93074  -9.92957  -9.92737  -9.92732  -9.92696
 Alpha  occ. eigenvalues --   -9.92440  -9.92383  -9.92205  -9.92139  -9.92059
 Alpha  occ. eigenvalues --   -9.92028  -9.92009  -9.91918  -9.91911  -9.91906
 Alpha  occ. eigenvalues --   -9.91841  -9.91795  -9.91721  -9.91701  -9.91677
 Alpha  occ. eigenvalues --   -9.91437  -9.91344  -9.91334  -9.91245  -9.91178
 Alpha  occ. eigenvalues --   -9.91150  -9.91040  -9.90849  -9.90844  -9.90650
 Alpha  occ. eigenvalues --   -9.90489  -2.92384  -1.72776  -1.72296  -1.72090
 Alpha  occ. eigenvalues --   -0.99285  -0.97649  -0.90931  -0.90423  -0.89600
 Alpha  occ. eigenvalues --   -0.89112  -0.86541  -0.85810  -0.85644  -0.84582
 Alpha  occ. eigenvalues --   -0.75394  -0.73713  -0.72897  -0.72676  -0.72215
 Alpha  occ. eigenvalues --   -0.72103  -0.71674  -0.70827  -0.70753  -0.70322
 Alpha  occ. eigenvalues --   -0.69529  -0.69313  -0.67890  -0.67557  -0.66975
 Alpha  occ. eigenvalues --   -0.66077  -0.65698  -0.65409  -0.65099  -0.64695
 Alpha  occ. eigenvalues --   -0.64424  -0.62769  -0.62595  -0.62131  -0.61159
 Alpha  occ. eigenvalues --   -0.60773  -0.60352  -0.59954  -0.59639  -0.58775
 Alpha  occ. eigenvalues --   -0.58248  -0.57461  -0.56602  -0.55771  -0.54572
 Alpha  occ. eigenvalues --   -0.53899  -0.53351  -0.52886  -0.52439  -0.51505
 Alpha  occ. eigenvalues --   -0.51168  -0.51051  -0.50729  -0.50332  -0.50132
 Alpha  occ. eigenvalues --   -0.49444  -0.49191  -0.48987  -0.48871  -0.47018
 Alpha  occ. eigenvalues --   -0.46539  -0.45978  -0.45336  -0.45244  -0.45065
 Alpha  occ. eigenvalues --   -0.44316  -0.43469  -0.43136  -0.42987  -0.42799
 Alpha  occ. eigenvalues --   -0.42005  -0.41729  -0.41634  -0.41300  -0.40912
 Alpha  occ. eigenvalues --   -0.40809  -0.40419  -0.40269  -0.40137  -0.40129
 Alpha  occ. eigenvalues --   -0.39862  -0.39771  -0.39403  -0.39369  -0.39094
 Alpha  occ. eigenvalues --   -0.38999  -0.38796  -0.38647  -0.38395  -0.38210
 Alpha  occ. eigenvalues --   -0.37949  -0.37800  -0.37526  -0.37361  -0.37285
 Alpha  occ. eigenvalues --   -0.37102  -0.36961  -0.36918  -0.36576  -0.36405
 Alpha  occ. eigenvalues --   -0.36279  -0.36218  -0.35977  -0.35775  -0.35677
 Alpha  occ. eigenvalues --   -0.35581  -0.35528  -0.35133  -0.35011  -0.34328
 Alpha  occ. eigenvalues --   -0.34266  -0.34201  -0.34047  -0.33961  -0.33907
 Alpha  occ. eigenvalues --   -0.33844  -0.33536  -0.33432  -0.33220  -0.33140
 Alpha  occ. eigenvalues --   -0.32918  -0.32810  -0.32707  -0.32613  -0.32577
 Alpha  occ. eigenvalues --   -0.32360  -0.32052  -0.31914  -0.31631  -0.31330
 Alpha  occ. eigenvalues --   -0.31238  -0.30912  -0.30844  -0.30713  -0.30428
 Alpha  occ. eigenvalues --   -0.30372  -0.30192  -0.30104  -0.30051  -0.29861
 Alpha  occ. eigenvalues --   -0.29785  -0.29639  -0.29529  -0.29189  -0.28890
 Alpha  occ. eigenvalues --   -0.28751  -0.28590  -0.28034  -0.27866  -0.27582
 Alpha  occ. eigenvalues --   -0.27475  -0.27434  -0.26469  -0.26341  -0.26299
 Alpha  occ. eigenvalues --   -0.26061  -0.25887  -0.25549  -0.25355  -0.25196
 Alpha  occ. eigenvalues --   -0.25139  -0.24999  -0.24832  -0.23969  -0.23155
 Alpha  occ. eigenvalues --   -0.22922  -0.22210  -0.21940  -0.21830  -0.20895
 Alpha  occ. eigenvalues --   -0.20321  -0.20202  -0.19258  -0.18870  -0.17059
 Alpha  occ. eigenvalues --   -0.15731
 Alpha virt. eigenvalues --   -0.11490  -0.06998  -0.06329  -0.04993  -0.03577
 Alpha virt. eigenvalues --   -0.03008  -0.02917  -0.01716  -0.01445  -0.00288
 Alpha virt. eigenvalues --    0.00975   0.01388   0.02307   0.02391   0.02688

 Mulliken charges:
               1
     1  Mg   0.673773
     2  C   -0.015881
     3  C   -0.056080
     4  C   -0.028231
     5  C   -0.042815
     6  N   -0.189110
     7  C   -0.109114
     8  C    0.051612
     9  C   -0.014851
    10  C    0.031878
    11  C    0.105542
    12  C    0.128418
    13  C    0.084585
    14  C    0.083660
    15  O   -0.187015
    16  O   -0.287833
    17  N   -0.289076
    18  C    0.140829
    19  C   -0.153720
    20  C    0.094771
    21  C    0.117347
    22  C    0.163159
    23  C   -0.102529
    24  O   -0.169354
    25  C    0.150375
    26  N   -0.261094
    27  C    0.012187
    28  C    0.032550
    29  C    0.049483
    30  C    0.020173
    31  C    0.134174
    32  C    0.034279
    33  C    0.094776
    34  N   -0.231953
    35  C    0.076246
    36  C   -0.216078
    37  C    0.074296
    38  C    0.101953
    39  C    0.185130
    40  C    0.002697
    41  O   -0.167152
    42  C    0.107032
    43  C    0.090437
    44  O   -0.186115
    45  O   -0.251229
    46  C    0.217426
    47  C    0.322288
    48  C   -0.087856
    49  C   -0.175108
    50  C    0.163410
    51  C    0.086026
    52  C    0.085664
    53  C    0.105804
    54  C   -0.060210
    55  C    0.125383
    56  C    0.093187
    57  C    0.021599
    58  C    0.090359
    59  C   -0.098801
    60  C    0.128514
    61  C    0.128770
    62  C    0.053898
    63  C    0.112155
    64  C   -0.121070
    65  C    0.084957
    66  C    0.111964
    67  H   -0.067229
    68  H   -0.049130
    69  H   -0.058687
    70  H   -0.006334
    71  H   -0.037929
    72  H    0.005495
    73  H   -0.003548
    74  H   -0.005698
    75  H   -0.023203
    76  H   -0.023786
    77  H    0.017921
    78  H    0.002934
    79  H    0.021942
    80  H   -0.012233
    81  H   -0.027338
    82  H   -0.011029
    83  H    0.002392
    84  H    0.005723
    85  H   -0.019940
    86  H   -0.030426
    87  H   -0.029560
    88  H   -0.003521
    89  H   -0.006170
    90  H   -0.030552
    91  H   -0.034277
    92  H    0.006815
    93  H   -0.009024
    94  H   -0.006885
    95  H    0.003229
    96  H   -0.025284
    97  H    0.030115
    98  H    0.012467
    99  H    0.009515
   100  H    0.040442
   101  H    0.007820
   102  H    0.008464
   103  H    0.015205
   104  H   -0.042193
   105  H   -0.003034
   106  H    0.002729
   107  H   -0.023031
   108  H   -0.047176
   109  H   -0.026173
   110  H   -0.014770
   111  H   -0.012573
   112  H   -0.037038
   113  H   -0.041409
   114  H   -0.030984
   115  H   -0.006208
   116  H   -0.030384
   117  H   -0.027228
   118  H   -0.041046
   119  H   -0.034124
   120  H   -0.040774
   121  H   -0.022752
   122  H   -0.022100
   123  H   -0.011727
   124  H   -0.031734
   125  H   -0.007233
   126  H   -0.029963
   127  H   -0.022214
   128  H   -0.035222
   129  H   -0.043665
   130  H   -0.040653
   131  H   -0.037696
   132  H   -0.041115
   133  H   -0.033652
   134  H   -0.031403
   135  H   -0.015608
   136  H   -0.016243
   137  H    0.000068
   138  H   -0.007564
   139  H   -0.010275
   140  H   -0.023025
 Sum of Mulliken charges =  -0.00000

 Dipole moment (field-independent basis, Debye):
    X=              3.7323    Y=              0.8040    Z=             -1.4571  Tot=              4.0865
 Quadrupole moment (field-independent basis, Debye-Ang):
   XX=           -368.7773   YY=           -429.4778   ZZ=           -412.2592
   XY=            -15.4315   XZ=             10.1482   YZ=              3.2582

 Normal termination of Gaussian 16 at Thu May  5 05:13:45 2022.
