 Gaussian 16, Revision A.03,
 Gaussian 16:  ES64L-G16RevA.03 25-Dec-2016

 -----------------------------------
 #p cam-b3lyp/Def2SVP td=(nstates=5)
 -----------------------------------

 -------------------------------------------------------
 step_601_chromophore_12 TDDFT with cam-b3lyp functional
 -------------------------------------------------------
 Symbolic Z-matrix:
 Charge =  0 Multiplicity = 1

                         Standard orientation:
 ---------------------------------------------------------------------
 Center     Atomic      Atomic             Coordinates (Angstroms)
 Number     Number       Type             X           Y           Z
 ---------------------------------------------------------------------
      1         12           0       -4.291477    0.452512   -0.375855
      2          6           0       -3.138598   -2.881118    0.616436
      3          6           0       -0.887112    1.363774   -0.214594
      4          6           0       -5.092787    3.478191   -1.106607
      5          6           0       -7.508439   -0.533904    0.365712
      6          7           0       -2.271089   -0.635535    0.337462
      7          6           0       -2.058619   -2.003815    0.450237
      8          6           0       -0.555626   -2.353137    0.522133
      9          6           0        0.042121   -0.924160    0.607794
     10          6           0       -1.076258    0.013300    0.154172
     11          6           0        0.659488   -0.582628    2.001041
     12          6           0        0.000189   -3.281773   -0.576764
     13          6           0        1.487691   -3.657787   -0.407849
     14          6           0        2.339215   -3.776270   -1.659548
     15          8           0        2.041247   -3.838887   -2.846932
     16          8           0        3.597200   -4.115171   -1.257984
     17          7           0       -3.119144    2.170887   -0.716120
     18          6           0       -1.768393    2.283630   -0.748646
     19          6           0       -1.493733    3.566905   -1.373787
     20          6           0       -2.710178    4.249206   -1.543884
     21          6           0       -3.704627    3.346392   -1.152902
     22          6           0       -0.079066    4.152582   -1.489125
     23          6           0       -2.935376    5.620581   -2.096126
     24          8           0       -4.056360    6.143708   -2.105078
     25          6           0       -1.745217    6.387590   -2.562178
     26          7           0       -6.083897    1.425344   -0.089538
     27          6           0       -6.145068    2.710820   -0.580328
     28          6           0       -7.619972    3.158079   -0.660498
     29          6           0       -8.328195    1.816087   -0.389285
     30          6           0       -7.277690    0.812421   -0.024054
     31          6           0       -8.095365    4.339628    0.197460
     32          6           0       -9.022766    1.252806   -1.661048
     33          6           0      -10.549514    1.649312   -1.962102
     34          7           0       -5.212822   -1.338702    0.357435
     35          6           0       -6.530503   -1.595051    0.482615
     36          6           0       -6.690012   -3.101327    0.634293
     37          6           0       -5.392767   -3.536580    0.745843
     38          6           0       -4.523051   -2.509509    0.553406
     39          6           0       -7.994985   -3.782689    0.887525
     40          6           0       -4.599062   -4.780262    1.090125
     41          8           0       -5.022160   -5.936105    1.377092
     42          6           0       -3.092191   -4.396133    0.836880
     43          6           0       -2.200582   -4.843541    1.935088
     44          8           0       -2.253339   -4.379086    3.060636
     45          8           0       -1.365719   -5.819120    1.545424
     46          6           0       -0.793930   -6.566859    2.663271
     47          6           0        4.704968   -4.078624   -2.265983
     48          6           0        6.052610   -3.765310   -1.586206
     49          6           0        7.213807   -3.866688   -2.216182
     50          6           0        7.432268   -4.291975   -3.630302
     51          6           0        8.512242   -3.434792   -1.472789
     52          6           0        8.612553   -1.973487   -0.915060
     53          6           0       10.111538   -1.507228   -0.666028
     54          6           0       10.264673   -0.011116   -0.886044
     55          6           0       11.653273    0.336966   -1.351437
     56          6           0        9.998664    0.754288    0.484968
     57          6           0        8.679332    1.573823    0.527988
     58          6           0        8.665174    2.888644    1.481713
     59          6           0        7.618038    3.994563    0.898085
     60          6           0        8.378194    5.077495    0.188199
     61          6           0        6.881823    4.562974    2.139907
     62          6           0        5.550738    3.824784    2.421542
     63          6           0        4.250767    4.731135    2.330569
     64          6           0        3.197534    4.156367    3.244313
     65          6           0        2.398445    2.953937    2.571887
     66          6           0        2.373642    5.292810    3.939328
     67          1           0        0.166813    1.648611   -0.263453
     68          1           0       -5.527985    4.416230   -1.458596
     69          1           0       -8.558150   -0.832212    0.397055
     70          1           0       -0.489451   -2.886925    1.470883
     71          1           0        0.938496   -0.791769    0.002139
     72          1           0        0.163144    0.304857    2.393802
     73          1           0        1.733886   -0.478289    1.851112
     74          1           0        0.559226   -1.345945    2.773063
     75          1           0       -0.282930   -2.988695   -1.587611
     76          1           0       -0.440132   -4.279025   -0.604836
     77          1           0        1.628141   -4.666136   -0.019945
     78          1           0        1.871848   -2.934123    0.311900
     79          1           0        0.068165    4.952383   -0.763840
     80          1           0        0.164356    4.418620   -2.518065
     81          1           0        0.711421    3.416907   -1.337355
     82          1           0       -2.157990    7.322832   -2.940763
     83          1           0       -1.190337    5.902479   -3.365821
     84          1           0       -1.042927    6.529344   -1.741349
     85          1           0       -7.817766    3.559203   -1.654270
     86          1           0       -9.082975    1.865062    0.394589
     87          1           0       -9.029588    4.007422    0.649601
     88          1           0       -8.351939    5.240444   -0.360743
     89          1           0       -7.479803    4.595724    1.060267
     90          1           0       -8.911084    0.168177   -1.660562
     91          1           0       -8.340773    1.495678   -2.476447
     92          1           0      -11.029031    2.273547   -1.207647
     93          1           0      -11.129557    0.744078   -2.143261
     94          1           0      -10.493687    2.097973   -2.953909
     95          1           0       -7.953330   -4.612728    0.183039
     96          1           0       -8.819088   -3.166205    0.527359
     97          1           0       -8.125963   -4.055665    1.934695
     98          1           0       -2.845416   -4.870180   -0.113059
     99          1           0       -0.500039   -7.501281    2.184650
    100          1           0       -1.485306   -6.674587    3.499335
    101          1           0        0.155889   -6.113064    2.948712
    102          1           0        4.570510   -3.275469   -2.990546
    103          1           0        4.823002   -4.999938   -2.834734
    104          1           0        6.169127   -3.569743   -0.520522
    105          1           0        8.389180   -4.772714   -3.833590
    106          1           0        7.329461   -3.434402   -4.294384
    107          1           0        6.627198   -4.982402   -3.885562
    108          1           0        9.469549   -3.652956   -1.946327
    109          1           0        8.520301   -4.174167   -0.672566
    110          1           0        8.165229   -2.036881    0.076654
    111          1           0        8.118310   -1.372872   -1.679003
    112          1           0       10.799343   -2.167674   -1.194248
    113          1           0       10.349124   -1.682899    0.382704
    114          1           0        9.527186    0.398601   -1.575450
    115          1           0       12.302067    0.722850   -0.565439
    116          1           0       11.535656    1.129437   -2.090908
    117          1           0       12.128108   -0.441715   -1.948839
    118          1           0       10.842755    1.412986    0.686039
    119          1           0        9.990758    0.101217    1.357707
    120          1           0        8.048549    0.857147    1.052571
    121          1           0        8.087366    1.725923   -0.373718
    122          1           0        9.645515    3.344219    1.337105
    123          1           0        8.478698    2.520745    2.491020
    124          1           0        6.839727    3.566886    0.266194
    125          1           0        9.232456    5.465951    0.743493
    126          1           0        7.673924    5.901361    0.074242
    127          1           0        8.597631    4.809095   -0.845294
    128          1           0        6.817083    5.651034    2.118216
    129          1           0        7.478958    4.185722    2.968805
    130          1           0        5.664048    3.376268    3.409112
    131          1           0        5.480901    2.912966    1.828149
    132          1           0        3.805696    4.696082    1.335180
    133          1           0        4.375185    5.808395    2.440286
    134          1           0        3.719009    3.687972    4.079088
    135          1           0        2.637581    2.021414    3.084279
    136          1           0        2.770444    2.770714    1.563429
    137          1           0        1.320773    3.110698    2.617790
    138          1           0        2.621020    6.297248    3.595100
    139          1           0        2.628515    5.113166    4.984141
    140          1           0        1.307494    5.106218    3.810457
 ---------------------------------------------------------------------

 SCF Done:  E(RCAM-B3LYP) =  -3007.14039312     A.U. after   17 cycles

 Excitation energies and oscillator strengths:

 Excited State   1:      Singlet-A      1.6995 eV  729.52 nm  f=0.3865  <S**2>=0.000
     245 -> 248        0.18258
     246 -> 247        0.68324
     245 <- 248        0.10745
 This state for optimization and/or second-order correction.
 Total Energy, E(TD-HF/TD-DFT) =  -3007.07793684
 Copying the excited state density for this state as the 1-particle RhoCI density.

 Excited State   2:      Singlet-A      2.1871 eV  566.89 nm  f=0.1044  <S**2>=0.000
     245 -> 247        0.63990
     246 -> 248       -0.28472

 Excited State   3:      Singlet-A      3.4045 eV  364.17 nm  f=0.0060  <S**2>=0.000
     244 -> 247        0.68542

 Excited State   4:      Singlet-A      3.4570 eV  358.65 nm  f=0.4259  <S**2>=0.000
     241 -> 247        0.15403
     242 -> 247        0.26043
     245 -> 247        0.22192
     246 -> 248        0.56453

 Excited State   5:      Singlet-A      3.5712 eV  347.18 nm  f=0.0049  <S**2>=0.000
     239 -> 247        0.36921
     239 -> 249       -0.29216
     239 -> 251        0.15488
     240 -> 247        0.13000
     240 -> 249       -0.11970
     241 -> 247        0.22444
     241 -> 249       -0.18065
     242 -> 247       -0.29566

 The electronic state is 1-A.
 Alpha  occ. eigenvalues --  -46.89518 -19.26059 -19.24629 -19.19936 -19.19890
 Alpha  occ. eigenvalues --  -19.19810 -19.18803 -14.41843 -14.41565 -14.39141
 Alpha  occ. eigenvalues --  -14.39016 -10.39635 -10.39464 -10.36421 -10.34873
 Alpha  occ. eigenvalues --  -10.32930 -10.32202 -10.31065 -10.31046 -10.30869
 Alpha  occ. eigenvalues --  -10.30847 -10.30340 -10.29454 -10.29351 -10.28897
 Alpha  occ. eigenvalues --  -10.28677 -10.28335 -10.28317 -10.28277 -10.28269
 Alpha  occ. eigenvalues --  -10.28007 -10.27825 -10.27375 -10.27276 -10.27139
 Alpha  occ. eigenvalues --  -10.27006 -10.26892 -10.26883 -10.26864 -10.26439
 Alpha  occ. eigenvalues --  -10.26148 -10.26053 -10.26048 -10.25929 -10.25865
 Alpha  occ. eigenvalues --  -10.25839 -10.25804 -10.25787 -10.25759 -10.25742
 Alpha  occ. eigenvalues --  -10.25738 -10.25718 -10.25575 -10.25430 -10.25416
 Alpha  occ. eigenvalues --  -10.25275 -10.25166 -10.25072 -10.25046 -10.24918
 Alpha  occ. eigenvalues --  -10.24883 -10.24862 -10.24449 -10.24437 -10.24227
 Alpha  occ. eigenvalues --  -10.24174  -3.17896  -1.92765  -1.92372  -1.92181
 Alpha  occ. eigenvalues --   -1.17975  -1.16115  -1.09314  -1.08596  -1.08008
 Alpha  occ. eigenvalues --   -1.06922  -1.04235  -1.03431  -1.03229  -1.02164
 Alpha  occ. eigenvalues --   -0.92620  -0.90635  -0.89709  -0.89484  -0.88950
 Alpha  occ. eigenvalues --   -0.88717  -0.88268  -0.87437  -0.87412  -0.86953
 Alpha  occ. eigenvalues --   -0.86022  -0.85670  -0.84112  -0.83747  -0.83117
 Alpha  occ. eigenvalues --   -0.82095  -0.81685  -0.81444  -0.80967  -0.80588
 Alpha  occ. eigenvalues --   -0.80258  -0.78498  -0.78250  -0.77692  -0.76611
 Alpha  occ. eigenvalues --   -0.76184  -0.75743  -0.75197  -0.74961  -0.73955
 Alpha  occ. eigenvalues --   -0.73360  -0.72461  -0.71481  -0.70572  -0.69089
 Alpha  occ. eigenvalues --   -0.68543  -0.67887  -0.67418  -0.66845  -0.65530
 Alpha  occ. eigenvalues --   -0.65406  -0.65181  -0.64685  -0.64489  -0.64198
 Alpha  occ. eigenvalues --   -0.63201  -0.63146  -0.62961  -0.62686  -0.60650
 Alpha  occ. eigenvalues --   -0.60206  -0.59635  -0.58923  -0.58777  -0.58458
 Alpha  occ. eigenvalues --   -0.57729  -0.56784  -0.56390  -0.56299  -0.56007
 Alpha  occ. eigenvalues --   -0.55262  -0.54979  -0.54648  -0.54275  -0.53672
 Alpha  occ. eigenvalues --   -0.53611  -0.53245  -0.53002  -0.52966  -0.52925
 Alpha  occ. eigenvalues --   -0.52520  -0.52450  -0.51980  -0.51838  -0.51604
 Alpha  occ. eigenvalues --   -0.51590  -0.51441  -0.51241  -0.50693  -0.50525
 Alpha  occ. eigenvalues --   -0.50366  -0.50048  -0.50033  -0.49753  -0.49541
 Alpha  occ. eigenvalues --   -0.49332  -0.49181  -0.49125  -0.48990  -0.48676
 Alpha  occ. eigenvalues --   -0.48487  -0.48448  -0.48325  -0.48161  -0.47874
 Alpha  occ. eigenvalues --   -0.47691  -0.47534  -0.47434  -0.47095  -0.46291
 Alpha  occ. eigenvalues --   -0.46186  -0.46038  -0.46022  -0.45739  -0.45702
 Alpha  occ. eigenvalues --   -0.45606  -0.45447  -0.45020  -0.44981  -0.44806
 Alpha  occ. eigenvalues --   -0.44758  -0.44600  -0.44487  -0.44320  -0.44096
 Alpha  occ. eigenvalues --   -0.44020  -0.43709  -0.43503  -0.43382  -0.43110
 Alpha  occ. eigenvalues --   -0.42914  -0.42607  -0.42339  -0.42090  -0.41996
 Alpha  occ. eigenvalues --   -0.41740  -0.41598  -0.41375  -0.41314  -0.41159
 Alpha  occ. eigenvalues --   -0.41029  -0.40747  -0.40693  -0.40444  -0.40011
 Alpha  occ. eigenvalues --   -0.39766  -0.39721  -0.38934  -0.38748  -0.38597
 Alpha  occ. eigenvalues --   -0.38378  -0.38295  -0.37410  -0.37270  -0.37147
 Alpha  occ. eigenvalues --   -0.37099  -0.36844  -0.36766  -0.36483  -0.36131
 Alpha  occ. eigenvalues --   -0.36002  -0.35801  -0.35495  -0.34738  -0.34266
 Alpha  occ. eigenvalues --   -0.33830  -0.33423  -0.33279  -0.31591  -0.31258
 Alpha  occ. eigenvalues --   -0.31050  -0.30243  -0.29973  -0.29603  -0.23828
 Alpha  occ. eigenvalues --   -0.20991
 Alpha virt. eigenvalues --   -0.08585  -0.01734   0.00214   0.01369   0.01973
 Alpha virt. eigenvalues --    0.04724   0.04924   0.05545   0.06015   0.06933
 Alpha virt. eigenvalues --    0.07213   0.08188   0.08524   0.08640   0.08890

 Mulliken charges:
               1
     1  Mg   0.803086
     2  C   -0.040027
     3  C   -0.065181
     4  C   -0.050768
     5  C   -0.053265
     6  N   -0.249883
     7  C   -0.061698
     8  C   -0.005796
     9  C   -0.067888
    10  C    0.047965
    11  C    0.052971
    12  C    0.074363
    13  C    0.019737
    14  C    0.166168
    15  O   -0.229112
    16  O   -0.352736
    17  N   -0.377010
    18  C    0.146133
    19  C   -0.154371
    20  C    0.020974
    21  C    0.139234
    22  C    0.102319
    23  C   -0.016524
    24  O   -0.210992
    25  C    0.063063
    26  N   -0.336036
    27  C    0.038683
    28  C   -0.026604
    29  C   -0.012233
    30  C    0.040908
    31  C    0.076603
    32  C   -0.018818
    33  C    0.032794
    34  N   -0.318676
    35  C    0.084408
    36  C   -0.212467
    37  C   -0.004651
    38  C    0.135514
    39  C    0.133411
    40  C    0.109977
    41  O   -0.203895
    42  C    0.026034
    43  C    0.174150
    44  O   -0.222101
    45  O   -0.313033
    46  C    0.175769
    47  C    0.294065
    48  C   -0.111227
    49  C   -0.197907
    50  C    0.098967
    51  C    0.033721
    52  C    0.032028
    53  C    0.052669
    54  C   -0.121603
    55  C    0.065329
    56  C    0.046824
    57  C   -0.029444
    58  C    0.041965
    59  C   -0.151767
    60  C    0.067373
    61  C    0.069035
    62  C    0.004560
    63  C    0.056291
    64  C   -0.180266
    65  C    0.033595
    66  C    0.055193
    67  H   -0.034972
    68  H   -0.009187
    69  H   -0.024378
    70  H    0.026273
    71  H   -0.003341
    72  H    0.029937
    73  H    0.016607
    74  H    0.019783
    75  H    0.012994
    76  H    0.007081
    77  H    0.049164
    78  H    0.032615
    79  H    0.046418
    80  H    0.014769
    81  H    0.001154
    82  H    0.025586
    83  H    0.031280
    84  H    0.033392
    85  H    0.015607
    86  H    0.004797
    87  H   -0.005640
    88  H    0.021118
    89  H    0.020103
    90  H    0.000405
    91  H   -0.005713
    92  H    0.028036
    93  H    0.014807
    94  H    0.016399
    95  H    0.029516
    96  H   -0.000268
    97  H    0.055174
    98  H    0.055247
    99  H    0.034463
   100  H    0.064803
   101  H    0.030105
   102  H    0.037108
   103  H    0.040335
   104  H   -0.005414
   105  H    0.022922
   106  H    0.027660
   107  H    0.000749
   108  H   -0.016951
   109  H    0.003800
   110  H    0.009940
   111  H    0.013917
   112  H   -0.008727
   113  H   -0.012225
   114  H    0.000908
   115  H    0.017052
   116  H   -0.004307
   117  H   -0.001335
   118  H   -0.013611
   119  H   -0.006532
   120  H   -0.014073
   121  H    0.002830
   122  H    0.004023
   123  H    0.013593
   124  H   -0.001549
   125  H    0.016560
   126  H   -0.005074
   127  H    0.003917
   128  H   -0.005665
   129  H   -0.012670
   130  H   -0.012049
   131  H   -0.011296
   132  H   -0.013708
   133  H   -0.004574
   134  H    0.000470
   135  H    0.006442
   136  H    0.003271
   137  H    0.021019
   138  H    0.015162
   139  H    0.012987
   140  H    0.001062
 Sum of Mulliken charges =  -0.00000

 Dipole moment (field-independent basis, Debye):
    X=              4.1357    Y=              0.9010    Z=             -1.6303  Tot=              4.5359
 Quadrupole moment (field-independent basis, Debye-Ang):
   XX=           -367.4910   YY=           -426.4254   ZZ=           -412.1725
   XY=            -15.1860   XZ=             10.4701   YZ=              1.5229

 Normal termination of Gaussian 16 at Thu May  5 04:02:11 2022.
