 Gaussian 16, Revision A.03,
 Gaussian 16:  ES64L-G16RevA.03 25-Dec-2016

 ---------------------------------
 #p PBE1PBE/Def2SVP td=(nstates=5)
 ---------------------------------

 -----------------------------------------------------
 step_601_chromophore_12 TDDFT with PBE1PBE functional
 -----------------------------------------------------
 Symbolic Z-matrix:
 Charge =  0 Multiplicity = 1

                         Standard orientation:
 ---------------------------------------------------------------------
 Center     Atomic      Atomic             Coordinates (Angstroms)
 Number     Number       Type             X           Y           Z
 ---------------------------------------------------------------------
      1         12           0       -4.291477    0.452512   -0.375855
      2          6           0       -3.138598   -2.881118    0.616436
      3          6           0       -0.887112    1.363774   -0.214594
      4          6           0       -5.092787    3.478191   -1.106607
      5          6           0       -7.508439   -0.533904    0.365712
      6          7           0       -2.271089   -0.635535    0.337462
      7          6           0       -2.058619   -2.003815    0.450237
      8          6           0       -0.555626   -2.353137    0.522133
      9          6           0        0.042121   -0.924160    0.607794
     10          6           0       -1.076258    0.013300    0.154172
     11          6           0        0.659488   -0.582628    2.001041
     12          6           0        0.000189   -3.281773   -0.576764
     13          6           0        1.487691   -3.657787   -0.407849
     14          6           0        2.339215   -3.776270   -1.659548
     15          8           0        2.041247   -3.838887   -2.846932
     16          8           0        3.597200   -4.115171   -1.257984
     17          7           0       -3.119144    2.170887   -0.716120
     18          6           0       -1.768393    2.283630   -0.748646
     19          6           0       -1.493733    3.566905   -1.373787
     20          6           0       -2.710178    4.249206   -1.543884
     21          6           0       -3.704627    3.346392   -1.152902
     22          6           0       -0.079066    4.152582   -1.489125
     23          6           0       -2.935376    5.620581   -2.096126
     24          8           0       -4.056360    6.143708   -2.105078
     25          6           0       -1.745217    6.387590   -2.562178
     26          7           0       -6.083897    1.425344   -0.089538
     27          6           0       -6.145068    2.710820   -0.580328
     28          6           0       -7.619972    3.158079   -0.660498
     29          6           0       -8.328195    1.816087   -0.389285
     30          6           0       -7.277690    0.812421   -0.024054
     31          6           0       -8.095365    4.339628    0.197460
     32          6           0       -9.022766    1.252806   -1.661048
     33          6           0      -10.549514    1.649312   -1.962102
     34          7           0       -5.212822   -1.338702    0.357435
     35          6           0       -6.530503   -1.595051    0.482615
     36          6           0       -6.690012   -3.101327    0.634293
     37          6           0       -5.392767   -3.536580    0.745843
     38          6           0       -4.523051   -2.509509    0.553406
     39          6           0       -7.994985   -3.782689    0.887525
     40          6           0       -4.599062   -4.780262    1.090125
     41          8           0       -5.022160   -5.936105    1.377092
     42          6           0       -3.092191   -4.396133    0.836880
     43          6           0       -2.200582   -4.843541    1.935088
     44          8           0       -2.253339   -4.379086    3.060636
     45          8           0       -1.365719   -5.819120    1.545424
     46          6           0       -0.793930   -6.566859    2.663271
     47          6           0        4.704968   -4.078624   -2.265983
     48          6           0        6.052610   -3.765310   -1.586206
     49          6           0        7.213807   -3.866688   -2.216182
     50          6           0        7.432268   -4.291975   -3.630302
     51          6           0        8.512242   -3.434792   -1.472789
     52          6           0        8.612553   -1.973487   -0.915060
     53          6           0       10.111538   -1.507228   -0.666028
     54          6           0       10.264673   -0.011116   -0.886044
     55          6           0       11.653273    0.336966   -1.351437
     56          6           0        9.998664    0.754288    0.484968
     57          6           0        8.679332    1.573823    0.527988
     58          6           0        8.665174    2.888644    1.481713
     59          6           0        7.618038    3.994563    0.898085
     60          6           0        8.378194    5.077495    0.188199
     61          6           0        6.881823    4.562974    2.139907
     62          6           0        5.550738    3.824784    2.421542
     63          6           0        4.250767    4.731135    2.330569
     64          6           0        3.197534    4.156367    3.244313
     65          6           0        2.398445    2.953937    2.571887
     66          6           0        2.373642    5.292810    3.939328
     67          1           0        0.166813    1.648611   -0.263453
     68          1           0       -5.527985    4.416230   -1.458596
     69          1           0       -8.558150   -0.832212    0.397055
     70          1           0       -0.489451   -2.886925    1.470883
     71          1           0        0.938496   -0.791769    0.002139
     72          1           0        0.163144    0.304857    2.393802
     73          1           0        1.733886   -0.478289    1.851112
     74          1           0        0.559226   -1.345945    2.773063
     75          1           0       -0.282930   -2.988695   -1.587611
     76          1           0       -0.440132   -4.279025   -0.604836
     77          1           0        1.628141   -4.666136   -0.019945
     78          1           0        1.871848   -2.934123    0.311900
     79          1           0        0.068165    4.952383   -0.763840
     80          1           0        0.164356    4.418620   -2.518065
     81          1           0        0.711421    3.416907   -1.337355
     82          1           0       -2.157990    7.322832   -2.940763
     83          1           0       -1.190337    5.902479   -3.365821
     84          1           0       -1.042927    6.529344   -1.741349
     85          1           0       -7.817766    3.559203   -1.654270
     86          1           0       -9.082975    1.865062    0.394589
     87          1           0       -9.029588    4.007422    0.649601
     88          1           0       -8.351939    5.240444   -0.360743
     89          1           0       -7.479803    4.595724    1.060267
     90          1           0       -8.911084    0.168177   -1.660562
     91          1           0       -8.340773    1.495678   -2.476447
     92          1           0      -11.029031    2.273547   -1.207647
     93          1           0      -11.129557    0.744078   -2.143261
     94          1           0      -10.493687    2.097973   -2.953909
     95          1           0       -7.953330   -4.612728    0.183039
     96          1           0       -8.819088   -3.166205    0.527359
     97          1           0       -8.125963   -4.055665    1.934695
     98          1           0       -2.845416   -4.870180   -0.113059
     99          1           0       -0.500039   -7.501281    2.184650
    100          1           0       -1.485306   -6.674587    3.499335
    101          1           0        0.155889   -6.113064    2.948712
    102          1           0        4.570510   -3.275469   -2.990546
    103          1           0        4.823002   -4.999938   -2.834734
    104          1           0        6.169127   -3.569743   -0.520522
    105          1           0        8.389180   -4.772714   -3.833590
    106          1           0        7.329461   -3.434402   -4.294384
    107          1           0        6.627198   -4.982402   -3.885562
    108          1           0        9.469549   -3.652956   -1.946327
    109          1           0        8.520301   -4.174167   -0.672566
    110          1           0        8.165229   -2.036881    0.076654
    111          1           0        8.118310   -1.372872   -1.679003
    112          1           0       10.799343   -2.167674   -1.194248
    113          1           0       10.349124   -1.682899    0.382704
    114          1           0        9.527186    0.398601   -1.575450
    115          1           0       12.302067    0.722850   -0.565439
    116          1           0       11.535656    1.129437   -2.090908
    117          1           0       12.128108   -0.441715   -1.948839
    118          1           0       10.842755    1.412986    0.686039
    119          1           0        9.990758    0.101217    1.357707
    120          1           0        8.048549    0.857147    1.052571
    121          1           0        8.087366    1.725923   -0.373718
    122          1           0        9.645515    3.344219    1.337105
    123          1           0        8.478698    2.520745    2.491020
    124          1           0        6.839727    3.566886    0.266194
    125          1           0        9.232456    5.465951    0.743493
    126          1           0        7.673924    5.901361    0.074242
    127          1           0        8.597631    4.809095   -0.845294
    128          1           0        6.817083    5.651034    2.118216
    129          1           0        7.478958    4.185722    2.968805
    130          1           0        5.664048    3.376268    3.409112
    131          1           0        5.480901    2.912966    1.828149
    132          1           0        3.805696    4.696082    1.335180
    133          1           0        4.375185    5.808395    2.440286
    134          1           0        3.719009    3.687972    4.079088
    135          1           0        2.637581    2.021414    3.084279
    136          1           0        2.770444    2.770714    1.563429
    137          1           0        1.320773    3.110698    2.617790
    138          1           0        2.621020    6.297248    3.595100
    139          1           0        2.628515    5.113166    4.984141
    140          1           0        1.307494    5.106218    3.810457
 ---------------------------------------------------------------------

 SCF Done:  E(RPBE1PBE) =  -3005.32945455     A.U. after   15 cycles

 Excitation energies and oscillator strengths:

 Excited State   1:      Singlet-A      1.8572 eV  667.57 nm  f=0.3757  <S**2>=0.000
     245 -> 248       -0.17222
     246 -> 247        0.69087
     246 <- 247       -0.10860
 This state for optimization and/or second-order correction.
 Total Energy, E(TD-HF/TD-DFT) =  -3005.26120204
 Copying the excited state density for this state as the 1-particle RhoCI density.

 Excited State   2:      Singlet-A      2.1898 eV  566.20 nm  f=0.0998  <S**2>=0.000
     245 -> 247        0.65239
     246 -> 248        0.25211

 Excited State   3:      Singlet-A      3.0737 eV  403.37 nm  f=0.0004  <S**2>=0.000
     240 -> 247        0.11794
     243 -> 247        0.68119

 Excited State   4:      Singlet-A      3.1644 eV  391.81 nm  f=0.0367  <S**2>=0.000
     240 -> 247        0.57551
     240 -> 249       -0.18607
     242 -> 247       -0.13792
     243 -> 247       -0.13388
     246 -> 248       -0.24398

 Excited State   5:      Singlet-A      3.2046 eV  386.89 nm  f=0.0220  <S**2>=0.000
     241 -> 247        0.48196
     241 -> 248        0.10517
     241 -> 250        0.11378
     242 -> 247        0.40127
     246 -> 248       -0.21757

 The electronic state is 1-A.
 Alpha  occ. eigenvalues --  -46.92901 -19.26655 -19.25340 -19.20178 -19.20133
 Alpha  occ. eigenvalues --  -19.19999 -19.19032 -14.41315 -14.41127 -14.38790
 Alpha  occ. eigenvalues --  -14.38707 -10.36678 -10.36419 -10.33596 -10.31997
 Alpha  occ. eigenvalues --  -10.30364 -10.29397 -10.28803 -10.28772 -10.28643
 Alpha  occ. eigenvalues --  -10.28601 -10.28057 -10.27134 -10.27066 -10.26469
 Alpha  occ. eigenvalues --  -10.26357 -10.26115 -10.26098 -10.25986 -10.25778
 Alpha  occ. eigenvalues --  -10.25699 -10.25626 -10.25222 -10.25006 -10.24997
 Alpha  occ. eigenvalues --  -10.24512 -10.24495 -10.24472 -10.24462 -10.24146
 Alpha  occ. eigenvalues --  -10.23843 -10.23577 -10.23521 -10.23505 -10.23453
 Alpha  occ. eigenvalues --  -10.23429 -10.23375 -10.23351 -10.23334 -10.23324
 Alpha  occ. eigenvalues --  -10.23291 -10.23159 -10.23130 -10.23046 -10.22928
 Alpha  occ. eigenvalues --  -10.22921 -10.22741 -10.22674 -10.22640 -10.22467
 Alpha  occ. eigenvalues --  -10.22434 -10.22331 -10.21856 -10.21815 -10.21765
 Alpha  occ. eigenvalues --  -10.21628  -3.14865  -1.87672  -1.87258  -1.87071
 Alpha  occ. eigenvalues --   -1.12724  -1.10942  -1.04034  -1.03342  -1.02707
 Alpha  occ. eigenvalues --   -1.01805  -0.98874  -0.98112  -0.97896  -0.96782
 Alpha  occ. eigenvalues --   -0.86940  -0.84783  -0.83876  -0.83615  -0.83079
 Alpha  occ. eigenvalues --   -0.83046  -0.82627  -0.81732  -0.81548  -0.81246
 Alpha  occ. eigenvalues --   -0.80343  -0.79937  -0.78374  -0.77965  -0.77379
 Alpha  occ. eigenvalues --   -0.76273  -0.75905  -0.75687  -0.75257  -0.74818
 Alpha  occ. eigenvalues --   -0.74426  -0.72807  -0.72519  -0.71995  -0.70921
 Alpha  occ. eigenvalues --   -0.70357  -0.69836  -0.69597  -0.69106  -0.68198
 Alpha  occ. eigenvalues --   -0.67652  -0.66884  -0.65936  -0.64923  -0.63468
 Alpha  occ. eigenvalues --   -0.63017  -0.62138  -0.61869  -0.61077  -0.59935
 Alpha  occ. eigenvalues --   -0.59697  -0.59567  -0.59246  -0.59053  -0.58332
 Alpha  occ. eigenvalues --   -0.57696  -0.57358  -0.57250  -0.57147  -0.55212
 Alpha  occ. eigenvalues --   -0.54642  -0.54149  -0.53382  -0.53319  -0.52956
 Alpha  occ. eigenvalues --   -0.52337  -0.51172  -0.50952  -0.50798  -0.50509
 Alpha  occ. eigenvalues --   -0.49810  -0.49502  -0.49160  -0.48738  -0.48271
 Alpha  occ. eigenvalues --   -0.48087  -0.47781  -0.47544  -0.47491  -0.47342
 Alpha  occ. eigenvalues --   -0.47125  -0.47016  -0.46592  -0.46341  -0.46232
 Alpha  occ. eigenvalues --   -0.46078  -0.45930  -0.45786  -0.45226  -0.45149
 Alpha  occ. eigenvalues --   -0.44936  -0.44599  -0.44566  -0.44315  -0.44126
 Alpha  occ. eigenvalues --   -0.43928  -0.43837  -0.43746  -0.43585  -0.43307
 Alpha  occ. eigenvalues --   -0.43115  -0.42979  -0.42905  -0.42788  -0.42514
 Alpha  occ. eigenvalues --   -0.42340  -0.42185  -0.42073  -0.41758  -0.40962
 Alpha  occ. eigenvalues --   -0.40880  -0.40795  -0.40631  -0.40492  -0.40487
 Alpha  occ. eigenvalues --   -0.40256  -0.40206  -0.39781  -0.39738  -0.39506
 Alpha  occ. eigenvalues --   -0.39450  -0.39349  -0.39230  -0.39075  -0.38844
 Alpha  occ. eigenvalues --   -0.38800  -0.38515  -0.38194  -0.38153  -0.37955
 Alpha  occ. eigenvalues --   -0.37751  -0.37390  -0.37174  -0.36898  -0.36746
 Alpha  occ. eigenvalues --   -0.36599  -0.36438  -0.36267  -0.36095  -0.36002
 Alpha  occ. eigenvalues --   -0.35813  -0.35653  -0.35508  -0.35270  -0.34976
 Alpha  occ. eigenvalues --   -0.34627  -0.34551  -0.33771  -0.33579  -0.33479
 Alpha  occ. eigenvalues --   -0.33329  -0.33088  -0.32340  -0.32253  -0.32035
 Alpha  occ. eigenvalues --   -0.31963  -0.31872  -0.31652  -0.31459  -0.31163
 Alpha  occ. eigenvalues --   -0.30846  -0.30610  -0.30386  -0.29546  -0.29152
 Alpha  occ. eigenvalues --   -0.28944  -0.28766  -0.28476  -0.26980  -0.26230
 Alpha  occ. eigenvalues --   -0.25976  -0.25835  -0.25242  -0.25213  -0.20764
 Alpha  occ. eigenvalues --   -0.18645
 Alpha virt. eigenvalues --   -0.11060  -0.05267  -0.04039  -0.02457  -0.01334
 Alpha virt. eigenvalues --    0.00075   0.00329   0.01109   0.01554   0.02673
 Alpha virt. eigenvalues --    0.03960   0.04190   0.05050   0.05291   0.05534

 Mulliken charges:
               1
     1  Mg   0.942277
     2  C   -0.047518
     3  C   -0.059914
     4  C   -0.048823
     5  C   -0.047875
     6  N   -0.343230
     7  C    0.017299
     8  C   -0.084782
     9  C   -0.144248
    10  C    0.084223
    11  C    0.001105
    12  C    0.030360
    13  C   -0.058326
    14  C    0.234555
    15  O   -0.263274
    16  O   -0.383604
    17  N   -0.491545
    18  C    0.172309
    19  C   -0.179493
    20  C   -0.034549
    21  C    0.168916
    22  C    0.040209
    23  C    0.041629
    24  O   -0.249408
    25  C   -0.011971
    26  N   -0.441623
    27  C    0.079451
    28  C   -0.100707
    29  C   -0.095936
    30  C    0.076927
    31  C    0.020698
    32  C   -0.074509
    33  C   -0.039902
    34  N   -0.441112
    35  C    0.112321
    36  C   -0.234321
    37  C   -0.056768
    38  C    0.183090
    39  C    0.076435
    40  C    0.214194
    41  O   -0.247933
    42  C   -0.089113
    43  C    0.264925
    44  O   -0.257491
    45  O   -0.347703
    46  C    0.119920
    47  C    0.255271
    48  C   -0.124993
    49  C   -0.242303
    50  C    0.034961
    51  C   -0.020006
    52  C   -0.035479
    53  C    0.000527
    54  C   -0.214989
    55  C    0.007178
    56  C    0.001708
    57  C   -0.091271
    58  C   -0.011249
    59  C   -0.236621
    60  C    0.006449
    61  C    0.010917
    62  C   -0.052639
    63  C    0.001562
    64  C   -0.270464
    65  C   -0.025578
    66  C   -0.005668
    67  H   -0.001439
    68  H    0.024086
    69  H    0.007657
    70  H    0.067981
    71  H    0.034665
    72  H    0.057619
    73  H    0.041919
    74  H    0.046392
    75  H    0.043807
    76  H    0.042145
    77  H    0.080531
    78  H    0.065812
    79  H    0.073609
    80  H    0.043414
    81  H    0.028701
    82  H    0.053443
    83  H    0.058701
    84  H    0.060757
    85  H    0.052157
    86  H    0.041014
    87  H    0.022811
    88  H    0.047670
    89  H    0.047765
    90  H    0.035076
    91  H    0.027856
    92  H    0.054205
    93  H    0.042815
    94  H    0.044311
    95  H    0.058175
    96  H    0.027471
    97  H    0.081446
    98  H    0.091947
    99  H    0.056404
   100  H    0.085307
   101  H    0.052177
   102  H    0.063893
   103  H    0.065754
   104  H    0.024669
   105  H    0.049487
   106  H    0.055921
   107  H    0.028548
   108  H    0.013992
   109  H    0.037698
   110  H    0.042378
   111  H    0.046436
   112  H    0.021448
   113  H    0.021311
   114  H    0.038278
   115  H    0.043262
   116  H    0.024794
   117  H    0.026528
   118  H    0.018126
   119  H    0.024103
   120  H    0.021741
   121  H    0.032485
   122  H    0.036902
   123  H    0.043369
   124  H    0.034649
   125  H    0.043035
   126  H    0.024098
   127  H    0.033020
   128  H    0.024834
   129  H    0.023055
   130  H    0.019070
   131  H    0.019820
   132  H    0.020144
   133  H    0.026185
   134  H    0.039468
   135  H    0.033774
   136  H    0.029046
   137  H    0.047156
   138  H    0.041378
   139  H    0.040275
   140  H    0.028986
 Sum of Mulliken charges =  -0.00000

 Dipole moment (field-independent basis, Debye):
    X=              4.0459    Y=              1.0117    Z=             -1.6351  Tot=              4.4795
 Quadrupole moment (field-independent basis, Debye-Ang):
   XX=           -361.2154   YY=           -424.0095   ZZ=           -409.6942
   XY=            -16.1566   XZ=             10.8206   YZ=              1.6579

 Normal termination of Gaussian 16 at Thu May  5 04:28:26 2022.
