 Gaussian 16, Revision A.03,
 Gaussian 16:  ES64L-G16RevA.03 25-Dec-2016

 --------------------------------
 #p wB97XD/Def2SVP td=(nstates=5)
 --------------------------------

 ----------------------------------------------------
 step_601_chromophore_12 TDDFT with wB97XD functional
 ----------------------------------------------------
 Symbolic Z-matrix:
 Charge =  0 Multiplicity = 1

                         Standard orientation:
 ---------------------------------------------------------------------
 Center     Atomic      Atomic             Coordinates (Angstroms)
 Number     Number       Type             X           Y           Z
 ---------------------------------------------------------------------
      1         12           0       -4.291477    0.452512   -0.375855
      2          6           0       -3.138598   -2.881118    0.616436
      3          6           0       -0.887112    1.363774   -0.214594
      4          6           0       -5.092787    3.478191   -1.106607
      5          6           0       -7.508439   -0.533904    0.365712
      6          7           0       -2.271089   -0.635535    0.337462
      7          6           0       -2.058619   -2.003815    0.450237
      8          6           0       -0.555626   -2.353137    0.522133
      9          6           0        0.042121   -0.924160    0.607794
     10          6           0       -1.076258    0.013300    0.154172
     11          6           0        0.659488   -0.582628    2.001041
     12          6           0        0.000189   -3.281773   -0.576764
     13          6           0        1.487691   -3.657787   -0.407849
     14          6           0        2.339215   -3.776270   -1.659548
     15          8           0        2.041247   -3.838887   -2.846932
     16          8           0        3.597200   -4.115171   -1.257984
     17          7           0       -3.119144    2.170887   -0.716120
     18          6           0       -1.768393    2.283630   -0.748646
     19          6           0       -1.493733    3.566905   -1.373787
     20          6           0       -2.710178    4.249206   -1.543884
     21          6           0       -3.704627    3.346392   -1.152902
     22          6           0       -0.079066    4.152582   -1.489125
     23          6           0       -2.935376    5.620581   -2.096126
     24          8           0       -4.056360    6.143708   -2.105078
     25          6           0       -1.745217    6.387590   -2.562178
     26          7           0       -6.083897    1.425344   -0.089538
     27          6           0       -6.145068    2.710820   -0.580328
     28          6           0       -7.619972    3.158079   -0.660498
     29          6           0       -8.328195    1.816087   -0.389285
     30          6           0       -7.277690    0.812421   -0.024054
     31          6           0       -8.095365    4.339628    0.197460
     32          6           0       -9.022766    1.252806   -1.661048
     33          6           0      -10.549514    1.649312   -1.962102
     34          7           0       -5.212822   -1.338702    0.357435
     35          6           0       -6.530503   -1.595051    0.482615
     36          6           0       -6.690012   -3.101327    0.634293
     37          6           0       -5.392767   -3.536580    0.745843
     38          6           0       -4.523051   -2.509509    0.553406
     39          6           0       -7.994985   -3.782689    0.887525
     40          6           0       -4.599062   -4.780262    1.090125
     41          8           0       -5.022160   -5.936105    1.377092
     42          6           0       -3.092191   -4.396133    0.836880
     43          6           0       -2.200582   -4.843541    1.935088
     44          8           0       -2.253339   -4.379086    3.060636
     45          8           0       -1.365719   -5.819120    1.545424
     46          6           0       -0.793930   -6.566859    2.663271
     47          6           0        4.704968   -4.078624   -2.265983
     48          6           0        6.052610   -3.765310   -1.586206
     49          6           0        7.213807   -3.866688   -2.216182
     50          6           0        7.432268   -4.291975   -3.630302
     51          6           0        8.512242   -3.434792   -1.472789
     52          6           0        8.612553   -1.973487   -0.915060
     53          6           0       10.111538   -1.507228   -0.666028
     54          6           0       10.264673   -0.011116   -0.886044
     55          6           0       11.653273    0.336966   -1.351437
     56          6           0        9.998664    0.754288    0.484968
     57          6           0        8.679332    1.573823    0.527988
     58          6           0        8.665174    2.888644    1.481713
     59          6           0        7.618038    3.994563    0.898085
     60          6           0        8.378194    5.077495    0.188199
     61          6           0        6.881823    4.562974    2.139907
     62          6           0        5.550738    3.824784    2.421542
     63          6           0        4.250767    4.731135    2.330569
     64          6           0        3.197534    4.156367    3.244313
     65          6           0        2.398445    2.953937    2.571887
     66          6           0        2.373642    5.292810    3.939328
     67          1           0        0.166813    1.648611   -0.263453
     68          1           0       -5.527985    4.416230   -1.458596
     69          1           0       -8.558150   -0.832212    0.397055
     70          1           0       -0.489451   -2.886925    1.470883
     71          1           0        0.938496   -0.791769    0.002139
     72          1           0        0.163144    0.304857    2.393802
     73          1           0        1.733886   -0.478289    1.851112
     74          1           0        0.559226   -1.345945    2.773063
     75          1           0       -0.282930   -2.988695   -1.587611
     76          1           0       -0.440132   -4.279025   -0.604836
     77          1           0        1.628141   -4.666136   -0.019945
     78          1           0        1.871848   -2.934123    0.311900
     79          1           0        0.068165    4.952383   -0.763840
     80          1           0        0.164356    4.418620   -2.518065
     81          1           0        0.711421    3.416907   -1.337355
     82          1           0       -2.157990    7.322832   -2.940763
     83          1           0       -1.190337    5.902479   -3.365821
     84          1           0       -1.042927    6.529344   -1.741349
     85          1           0       -7.817766    3.559203   -1.654270
     86          1           0       -9.082975    1.865062    0.394589
     87          1           0       -9.029588    4.007422    0.649601
     88          1           0       -8.351939    5.240444   -0.360743
     89          1           0       -7.479803    4.595724    1.060267
     90          1           0       -8.911084    0.168177   -1.660562
     91          1           0       -8.340773    1.495678   -2.476447
     92          1           0      -11.029031    2.273547   -1.207647
     93          1           0      -11.129557    0.744078   -2.143261
     94          1           0      -10.493687    2.097973   -2.953909
     95          1           0       -7.953330   -4.612728    0.183039
     96          1           0       -8.819088   -3.166205    0.527359
     97          1           0       -8.125963   -4.055665    1.934695
     98          1           0       -2.845416   -4.870180   -0.113059
     99          1           0       -0.500039   -7.501281    2.184650
    100          1           0       -1.485306   -6.674587    3.499335
    101          1           0        0.155889   -6.113064    2.948712
    102          1           0        4.570510   -3.275469   -2.990546
    103          1           0        4.823002   -4.999938   -2.834734
    104          1           0        6.169127   -3.569743   -0.520522
    105          1           0        8.389180   -4.772714   -3.833590
    106          1           0        7.329461   -3.434402   -4.294384
    107          1           0        6.627198   -4.982402   -3.885562
    108          1           0        9.469549   -3.652956   -1.946327
    109          1           0        8.520301   -4.174167   -0.672566
    110          1           0        8.165229   -2.036881    0.076654
    111          1           0        8.118310   -1.372872   -1.679003
    112          1           0       10.799343   -2.167674   -1.194248
    113          1           0       10.349124   -1.682899    0.382704
    114          1           0        9.527186    0.398601   -1.575450
    115          1           0       12.302067    0.722850   -0.565439
    116          1           0       11.535656    1.129437   -2.090908
    117          1           0       12.128108   -0.441715   -1.948839
    118          1           0       10.842755    1.412986    0.686039
    119          1           0        9.990758    0.101217    1.357707
    120          1           0        8.048549    0.857147    1.052571
    121          1           0        8.087366    1.725923   -0.373718
    122          1           0        9.645515    3.344219    1.337105
    123          1           0        8.478698    2.520745    2.491020
    124          1           0        6.839727    3.566886    0.266194
    125          1           0        9.232456    5.465951    0.743493
    126          1           0        7.673924    5.901361    0.074242
    127          1           0        8.597631    4.809095   -0.845294
    128          1           0        6.817083    5.651034    2.118216
    129          1           0        7.478958    4.185722    2.968805
    130          1           0        5.664048    3.376268    3.409112
    131          1           0        5.480901    2.912966    1.828149
    132          1           0        3.805696    4.696082    1.335180
    133          1           0        4.375185    5.808395    2.440286
    134          1           0        3.719009    3.687972    4.079088
    135          1           0        2.637581    2.021414    3.084279
    136          1           0        2.770444    2.770714    1.563429
    137          1           0        1.320773    3.110698    2.617790
    138          1           0        2.621020    6.297248    3.595100
    139          1           0        2.628515    5.113166    4.984141
    140          1           0        1.307494    5.106218    3.810457
 ---------------------------------------------------------------------

 SCF Done:  E(RwB97XD) =  -3007.83709140     A.U. after   19 cycles

 Excitation energies and oscillator strengths:

 Excited State   1:      Singlet-A      1.6386 eV  756.65 nm  f=0.3843  <S**2>=0.000
     245 -> 248        0.18883
     246 -> 247        0.68085
     245 <- 248        0.11734
 This state for optimization and/or second-order correction.
 Total Energy, E(TD-HF/TD-DFT) =  -3007.77687387
 Copying the excited state density for this state as the 1-particle RhoCI density.

 Excited State   2:      Singlet-A      2.1284 eV  582.51 nm  f=0.1019  <S**2>=0.000
     245 -> 247        0.63812
     246 -> 248       -0.28744

 Excited State   3:      Singlet-A      3.4232 eV  362.18 nm  f=0.0014  <S**2>=0.000
     244 -> 247        0.68170

 Excited State   4:      Singlet-A      3.4685 eV  357.46 nm  f=0.4433  <S**2>=0.000
     240 -> 247        0.16570
     242 -> 247        0.27204
     245 -> 247        0.22317
     246 -> 248        0.56699
     245 <- 247       -0.10497

 Excited State   5:      Singlet-A      3.5921 eV  345.16 nm  f=0.0061  <S**2>=0.000
     239 -> 247        0.29914
     239 -> 249       -0.25541
     239 -> 250        0.13142
     240 -> 247        0.30451
     240 -> 249       -0.26987
     240 -> 250        0.12591
     241 -> 247       -0.12807
     241 -> 249        0.10039
     242 -> 247       -0.27464

 The electronic state is 1-A.
 Alpha  occ. eigenvalues --  -46.95865 -19.31289 -19.29905 -19.25058 -19.24844
 Alpha  occ. eigenvalues --  -19.24776 -19.23812 -14.46471 -14.46133 -14.43738
 Alpha  occ. eigenvalues --  -14.43603 -10.43450 -10.43328 -10.40523 -10.38811
 Alpha  occ. eigenvalues --  -10.36873 -10.35949 -10.35130 -10.35063 -10.34904
 Alpha  occ. eigenvalues --  -10.34870 -10.34409 -10.33458 -10.33345 -10.32972
 Alpha  occ. eigenvalues --  -10.32704 -10.32493 -10.32411 -10.32403 -10.32211
 Alpha  occ. eigenvalues --  -10.32160 -10.31875 -10.31407 -10.31342 -10.31173
 Alpha  occ. eigenvalues --  -10.30952 -10.30936 -10.30899 -10.30862 -10.30404
 Alpha  occ. eigenvalues --  -10.30187 -10.29896 -10.29886 -10.29881 -10.29810
 Alpha  occ. eigenvalues --  -10.29775 -10.29757 -10.29728 -10.29698 -10.29689
 Alpha  occ. eigenvalues --  -10.29687 -10.29614 -10.29533 -10.29385 -10.29343
 Alpha  occ. eigenvalues --  -10.29255 -10.29102 -10.29024 -10.29002 -10.28822
 Alpha  occ. eigenvalues --  -10.28787 -10.28741 -10.28260 -10.28256 -10.28109
 Alpha  occ. eigenvalues --  -10.28057  -3.21713  -1.95263  -1.94850  -1.94661
 Alpha  occ. eigenvalues --   -1.20175  -1.18318  -1.11500  -1.10815  -1.10279
 Alpha  occ. eigenvalues --   -1.09146  -1.06241  -1.05475  -1.05249  -1.04193
 Alpha  occ. eigenvalues --   -0.94626  -0.92465  -0.91538  -0.91280  -0.90738
 Alpha  occ. eigenvalues --   -0.90601  -0.90175  -0.89359  -0.89205  -0.88886
 Alpha  occ. eigenvalues --   -0.87976  -0.87571  -0.86032  -0.85631  -0.85012
 Alpha  occ. eigenvalues --   -0.83930  -0.83575  -0.83363  -0.82893  -0.82474
 Alpha  occ. eigenvalues --   -0.82099  -0.80450  -0.80172  -0.79628  -0.78539
 Alpha  occ. eigenvalues --   -0.78039  -0.77529  -0.77147  -0.76780  -0.75835
 Alpha  occ. eigenvalues --   -0.75275  -0.74449  -0.73459  -0.72521  -0.70997
 Alpha  occ. eigenvalues --   -0.70576  -0.69765  -0.69413  -0.68723  -0.67434
 Alpha  occ. eigenvalues --   -0.67262  -0.67139  -0.66693  -0.66517  -0.66016
 Alpha  occ. eigenvalues --   -0.65169  -0.64999  -0.64791  -0.64686  -0.62626
 Alpha  occ. eigenvalues --   -0.62150  -0.61613  -0.60892  -0.60755  -0.60415
 Alpha  occ. eigenvalues --   -0.59740  -0.58687  -0.58370  -0.58229  -0.57941
 Alpha  occ. eigenvalues --   -0.57230  -0.56942  -0.56575  -0.56191  -0.55584
 Alpha  occ. eigenvalues --   -0.55525  -0.55183  -0.54920  -0.54868  -0.54853
 Alpha  occ. eigenvalues --   -0.54413  -0.54391  -0.53897  -0.53717  -0.53542
 Alpha  occ. eigenvalues --   -0.53492  -0.53356  -0.53163  -0.52571  -0.52446
 Alpha  occ. eigenvalues --   -0.52263  -0.51962  -0.51905  -0.51698  -0.51455
 Alpha  occ. eigenvalues --   -0.51241  -0.51099  -0.51032  -0.50908  -0.50609
 Alpha  occ. eigenvalues --   -0.50426  -0.50308  -0.50246  -0.50074  -0.49844
 Alpha  occ. eigenvalues --   -0.49595  -0.49452  -0.49322  -0.49065  -0.48211
 Alpha  occ. eigenvalues --   -0.48109  -0.47979  -0.47884  -0.47662  -0.47616
 Alpha  occ. eigenvalues --   -0.47479  -0.47363  -0.46922  -0.46904  -0.46723
 Alpha  occ. eigenvalues --   -0.46640  -0.46507  -0.46380  -0.46234  -0.45987
 Alpha  occ. eigenvalues --   -0.45949  -0.45659  -0.45373  -0.45359  -0.45037
 Alpha  occ. eigenvalues --   -0.44848  -0.44532  -0.44332  -0.44046  -0.43868
 Alpha  occ. eigenvalues --   -0.43676  -0.43591  -0.43314  -0.43194  -0.43077
 Alpha  occ. eigenvalues --   -0.42898  -0.42660  -0.42573  -0.42303  -0.41917
 Alpha  occ. eigenvalues --   -0.41658  -0.41619  -0.40800  -0.40609  -0.40489
 Alpha  occ. eigenvalues --   -0.40267  -0.40157  -0.39388  -0.39220  -0.39081
 Alpha  occ. eigenvalues --   -0.39016  -0.38908  -0.38693  -0.38443  -0.38052
 Alpha  occ. eigenvalues --   -0.37852  -0.37643  -0.37345  -0.36700  -0.36193
 Alpha  occ. eigenvalues --   -0.35847  -0.35498  -0.35268  -0.33693  -0.33245
 Alpha  occ. eigenvalues --   -0.33103  -0.32432  -0.32015  -0.31803  -0.25749
 Alpha  occ. eigenvalues --   -0.22794
 Alpha virt. eigenvalues --   -0.06948   0.00178   0.02238   0.04015   0.04565
 Alpha virt. eigenvalues --    0.06807   0.07240   0.07879   0.08278   0.09396
 Alpha virt. eigenvalues --    0.10529   0.11038   0.11461   0.12077   0.12310

 Mulliken charges:
               1
     1  Mg   0.936444
     2  C   -0.050059
     3  C   -0.072537
     4  C   -0.062914
     5  C   -0.067321
     6  N   -0.311056
     7  C   -0.019074
     8  C   -0.048399
     9  C   -0.119059
    10  C    0.069334
    11  C    0.009209
    12  C    0.034897
    13  C   -0.038558
    14  C    0.223835
    15  O   -0.260484
    16  O   -0.382595
    17  N   -0.460307
    18  C    0.162433
    19  C   -0.171535
    20  C   -0.025296
    21  C    0.161335
    22  C    0.055209
    23  C    0.033613
    24  O   -0.243318
    25  C    0.002157
    26  N   -0.409668
    27  C    0.062004
    28  C   -0.076333
    29  C   -0.068958
    30  C    0.069681
    31  C    0.029705
    32  C   -0.058702
    33  C   -0.023704
    34  N   -0.404838
    35  C    0.101271
    36  C   -0.228616
    37  C   -0.048564
    38  C    0.167106
    39  C    0.090204
    40  C    0.189059
    41  O   -0.237630
    42  C   -0.047587
    43  C    0.239099
    44  O   -0.251000
    45  O   -0.344573
    46  C    0.134851
    47  C    0.269110
    48  C   -0.134998
    49  C   -0.227837
    50  C    0.049003
    51  C   -0.003118
    52  C   -0.016886
    53  C    0.016185
    54  C   -0.182357
    55  C    0.018506
    56  C    0.013240
    57  C   -0.072185
    58  C    0.003840
    59  C   -0.207556
    60  C    0.018193
    61  C    0.028788
    62  C   -0.036526
    63  C    0.016191
    64  C   -0.239106
    65  C   -0.012072
    66  C    0.007491
    67  H   -0.010564
    68  H    0.018399
    69  H    0.001804
    70  H    0.051220
    71  H    0.023295
    72  H    0.050743
    73  H    0.036435
    74  H    0.041753
    75  H    0.038921
    76  H    0.031816
    77  H    0.075456
    78  H    0.056677
    79  H    0.067963
    80  H    0.036868
    81  H    0.024075
    82  H    0.052013
    83  H    0.052647
    84  H    0.053899
    85  H    0.041778
    86  H    0.030647
    87  H    0.014835
    88  H    0.043318
    89  H    0.042788
    90  H    0.023783
    91  H    0.017878
    92  H    0.048860
    93  H    0.037075
    94  H    0.037979
    95  H    0.052809
    96  H    0.021489
    97  H    0.077736
    98  H    0.085499
    99  H    0.053271
   100  H    0.081859
   101  H    0.048136
   102  H    0.058600
   103  H    0.060026
   104  H    0.022525
   105  H    0.045433
   106  H    0.050329
   107  H    0.021197
   108  H    0.004958
   109  H    0.028719
   110  H    0.033304
   111  H    0.035953
   112  H    0.012360
   113  H    0.011367
   114  H    0.024896
   115  H    0.037243
   116  H    0.018869
   117  H    0.020797
   118  H    0.007116
   119  H    0.015862
   120  H    0.010300
   121  H    0.023134
   122  H    0.025489
   123  H    0.035844
   124  H    0.021842
   125  H    0.037274
   126  H    0.016697
   127  H    0.027599
   128  H    0.017462
   129  H    0.011077
   130  H    0.010367
   131  H    0.009716
   132  H    0.009324
   133  H    0.017776
   134  H    0.024867
   135  H    0.027120
   136  H    0.021031
   137  H    0.040886
   138  H    0.035591
   139  H    0.034632
   140  H    0.022596
 Sum of Mulliken charges =  -0.00000

 Dipole moment (field-independent basis, Debye):
    X=              4.1871    Y=              0.9083    Z=             -1.6716  Tot=              4.5991
 Quadrupole moment (field-independent basis, Debye-Ang):
   XX=           -362.1464   YY=           -422.4111   ZZ=           -409.3529
   XY=            -15.1302   XZ=             10.5793   YZ=              1.1173

 Normal termination of Gaussian 16 at Thu May  5 05:01:03 2022.
