 Gaussian 16, Revision A.03,
 Gaussian 16:  ES64L-G16RevA.03 25-Dec-2016

 --------------------
 #p ZINDO=(nstates=5)
 --------------------

 -----------------------------
 step_601_chromophore_12 ZINDO
 -----------------------------
 Symbolic Z-matrix:
 Charge =  0 Multiplicity = 1

                         Standard orientation:
 ---------------------------------------------------------------------
 Center     Atomic      Atomic             Coordinates (Angstroms)
 Number     Number       Type             X           Y           Z
 ---------------------------------------------------------------------
      1         12           0       -4.291477    0.452512   -0.375855
      2          6           0       -3.138598   -2.881118    0.616436
      3          6           0       -0.887112    1.363774   -0.214594
      4          6           0       -5.092787    3.478191   -1.106607
      5          6           0       -7.508439   -0.533904    0.365712
      6          7           0       -2.271089   -0.635535    0.337462
      7          6           0       -2.058619   -2.003815    0.450237
      8          6           0       -0.555626   -2.353137    0.522133
      9          6           0        0.042121   -0.924160    0.607794
     10          6           0       -1.076258    0.013300    0.154172
     11          6           0        0.659488   -0.582628    2.001041
     12          6           0        0.000189   -3.281773   -0.576764
     13          6           0        1.487691   -3.657787   -0.407849
     14          6           0        2.339215   -3.776270   -1.659548
     15          8           0        2.041247   -3.838887   -2.846932
     16          8           0        3.597200   -4.115171   -1.257984
     17          7           0       -3.119144    2.170887   -0.716120
     18          6           0       -1.768393    2.283630   -0.748646
     19          6           0       -1.493733    3.566905   -1.373787
     20          6           0       -2.710178    4.249206   -1.543884
     21          6           0       -3.704627    3.346392   -1.152902
     22          6           0       -0.079066    4.152582   -1.489125
     23          6           0       -2.935376    5.620581   -2.096126
     24          8           0       -4.056360    6.143708   -2.105078
     25          6           0       -1.745217    6.387590   -2.562178
     26          7           0       -6.083897    1.425344   -0.089538
     27          6           0       -6.145068    2.710820   -0.580328
     28          6           0       -7.619972    3.158079   -0.660498
     29          6           0       -8.328195    1.816087   -0.389285
     30          6           0       -7.277690    0.812421   -0.024054
     31          6           0       -8.095365    4.339628    0.197460
     32          6           0       -9.022766    1.252806   -1.661048
     33          6           0      -10.549514    1.649312   -1.962102
     34          7           0       -5.212822   -1.338702    0.357435
     35          6           0       -6.530503   -1.595051    0.482615
     36          6           0       -6.690012   -3.101327    0.634293
     37          6           0       -5.392767   -3.536580    0.745843
     38          6           0       -4.523051   -2.509509    0.553406
     39          6           0       -7.994985   -3.782689    0.887525
     40          6           0       -4.599062   -4.780262    1.090125
     41          8           0       -5.022160   -5.936105    1.377092
     42          6           0       -3.092191   -4.396133    0.836880
     43          6           0       -2.200582   -4.843541    1.935088
     44          8           0       -2.253339   -4.379086    3.060636
     45          8           0       -1.365719   -5.819120    1.545424
     46          6           0       -0.793930   -6.566859    2.663271
     47          6           0        4.704968   -4.078624   -2.265983
     48          6           0        6.052610   -3.765310   -1.586206
     49          6           0        7.213807   -3.866688   -2.216182
     50          6           0        7.432268   -4.291975   -3.630302
     51          6           0        8.512242   -3.434792   -1.472789
     52          6           0        8.612553   -1.973487   -0.915060
     53          6           0       10.111538   -1.507228   -0.666028
     54          6           0       10.264673   -0.011116   -0.886044
     55          6           0       11.653273    0.336966   -1.351437
     56          6           0        9.998664    0.754288    0.484968
     57          6           0        8.679332    1.573823    0.527988
     58          6           0        8.665174    2.888644    1.481713
     59          6           0        7.618038    3.994563    0.898085
     60          6           0        8.378194    5.077495    0.188199
     61          6           0        6.881823    4.562974    2.139907
     62          6           0        5.550738    3.824784    2.421542
     63          6           0        4.250767    4.731135    2.330569
     64          6           0        3.197534    4.156367    3.244313
     65          6           0        2.398445    2.953937    2.571887
     66          6           0        2.373642    5.292810    3.939328
     67          1           0        0.166813    1.648611   -0.263453
     68          1           0       -5.527985    4.416230   -1.458596
     69          1           0       -8.558150   -0.832212    0.397055
     70          1           0       -0.489451   -2.886925    1.470883
     71          1           0        0.938496   -0.791769    0.002139
     72          1           0        0.163144    0.304857    2.393802
     73          1           0        1.733886   -0.478289    1.851112
     74          1           0        0.559226   -1.345945    2.773063
     75          1           0       -0.282930   -2.988695   -1.587611
     76          1           0       -0.440132   -4.279025   -0.604836
     77          1           0        1.628141   -4.666136   -0.019945
     78          1           0        1.871848   -2.934123    0.311900
     79          1           0        0.068165    4.952383   -0.763840
     80          1           0        0.164356    4.418620   -2.518065
     81          1           0        0.711421    3.416907   -1.337355
     82          1           0       -2.157990    7.322832   -2.940763
     83          1           0       -1.190337    5.902479   -3.365821
     84          1           0       -1.042927    6.529344   -1.741349
     85          1           0       -7.817766    3.559203   -1.654270
     86          1           0       -9.082975    1.865062    0.394589
     87          1           0       -9.029588    4.007422    0.649601
     88          1           0       -8.351939    5.240444   -0.360743
     89          1           0       -7.479803    4.595724    1.060267
     90          1           0       -8.911084    0.168177   -1.660562
     91          1           0       -8.340773    1.495678   -2.476447
     92          1           0      -11.029031    2.273547   -1.207647
     93          1           0      -11.129557    0.744078   -2.143261
     94          1           0      -10.493687    2.097973   -2.953909
     95          1           0       -7.953330   -4.612728    0.183039
     96          1           0       -8.819088   -3.166205    0.527359
     97          1           0       -8.125963   -4.055665    1.934695
     98          1           0       -2.845416   -4.870180   -0.113059
     99          1           0       -0.500039   -7.501281    2.184650
    100          1           0       -1.485306   -6.674587    3.499335
    101          1           0        0.155889   -6.113064    2.948712
    102          1           0        4.570510   -3.275469   -2.990546
    103          1           0        4.823002   -4.999938   -2.834734
    104          1           0        6.169127   -3.569743   -0.520522
    105          1           0        8.389180   -4.772714   -3.833590
    106          1           0        7.329461   -3.434402   -4.294384
    107          1           0        6.627198   -4.982402   -3.885562
    108          1           0        9.469549   -3.652956   -1.946327
    109          1           0        8.520301   -4.174167   -0.672566
    110          1           0        8.165229   -2.036881    0.076654
    111          1           0        8.118310   -1.372872   -1.679003
    112          1           0       10.799343   -2.167674   -1.194248
    113          1           0       10.349124   -1.682899    0.382704
    114          1           0        9.527186    0.398601   -1.575450
    115          1           0       12.302067    0.722850   -0.565439
    116          1           0       11.535656    1.129437   -2.090908
    117          1           0       12.128108   -0.441715   -1.948839
    118          1           0       10.842755    1.412986    0.686039
    119          1           0        9.990758    0.101217    1.357707
    120          1           0        8.048549    0.857147    1.052571
    121          1           0        8.087366    1.725923   -0.373718
    122          1           0        9.645515    3.344219    1.337105
    123          1           0        8.478698    2.520745    2.491020
    124          1           0        6.839727    3.566886    0.266194
    125          1           0        9.232456    5.465951    0.743493
    126          1           0        7.673924    5.901361    0.074242
    127          1           0        8.597631    4.809095   -0.845294
    128          1           0        6.817083    5.651034    2.118216
    129          1           0        7.478958    4.185722    2.968805
    130          1           0        5.664048    3.376268    3.409112
    131          1           0        5.480901    2.912966    1.828149
    132          1           0        3.805696    4.696082    1.335180
    133          1           0        4.375185    5.808395    2.440286
    134          1           0        3.719009    3.687972    4.079088
    135          1           0        2.637581    2.021414    3.084279
    136          1           0        2.770444    2.770714    1.563429
    137          1           0        1.320773    3.110698    2.617790
    138          1           0        2.621020    6.297248    3.595100
    139          1           0        2.628515    5.113166    4.984141
    140          1           0        1.307494    5.106218    3.810457
 ---------------------------------------------------------------------

 SCF Done:  E(RZINDO/S) =  -474.174980642     A.U. after   20 cycles

 Excitation energies and oscillator strengths:

 Excited State   1:      Singlet-A      1.2259 eV 1011.36 nm  f=0.6124  <S**2>=0.000
     175 ->178        -0.19767
     176 ->177         0.66032
 This state for optimization and/or second-order correction.
 Total Energy, E(CIS/TDA) =  -474.129929104
 Copying the excited state density for this state as the 1-particle RhoCI density.

 Excited State   2:      Singlet-A      1.8755 eV  661.08 nm  f=0.0396  <S**2>=0.000
     175 ->177         0.55034
     176 ->178         0.41874

 Excited State   3:      Singlet-A      2.9719 eV  417.18 nm  f=0.8193  <S**2>=0.000
     167 ->179         0.10306
     168 ->177        -0.16068
     168 ->179         0.22858
     170 ->180        -0.10671
     175 ->177        -0.31918
     176 ->178         0.44454

 Excited State   4:      Singlet-A      3.0064 eV  412.41 nm  f=0.0135  <S**2>=0.000
     176 ->179         0.65785

 Excited State   5:      Singlet-A      3.0182 eV  410.79 nm  f=0.0673  <S**2>=0.000
     167 ->179         0.16904
     168 ->177        -0.19798
     168 ->179         0.24889
     168 ->180        -0.20658
     169 ->177         0.13167
     169 ->180         0.17646
     170 ->179         0.22998
     170 ->180         0.19995
     170 ->185        -0.13977
     176 ->178        -0.12869

 The electronic state is 1-A.
 Alpha  occ. eigenvalues --   -1.83986  -1.82296  -1.80078  -1.74767  -1.72814
 Alpha  occ. eigenvalues --   -1.71030  -1.63742  -1.60749  -1.58506  -1.57455
 Alpha  occ. eigenvalues --   -1.54627  -1.52569  -1.47938  -1.47446  -1.45294
 Alpha  occ. eigenvalues --   -1.44012  -1.43098  -1.40723  -1.38135  -1.37221
 Alpha  occ. eigenvalues --   -1.35581  -1.33634  -1.33096  -1.32429  -1.28591
 Alpha  occ. eigenvalues --   -1.28186  -1.25084  -1.22487  -1.20599  -1.18767
 Alpha  occ. eigenvalues --   -1.17234  -1.16560  -1.15927  -1.15056  -1.14329
 Alpha  occ. eigenvalues --   -1.13720  -1.11374  -1.09180  -1.05535  -1.04042
 Alpha  occ. eigenvalues --   -1.02818  -1.01118  -0.97696  -0.96940  -0.95858
 Alpha  occ. eigenvalues --   -0.94970  -0.94789  -0.93903  -0.92930  -0.92333
 Alpha  occ. eigenvalues --   -0.91467  -0.90972  -0.88870  -0.88095  -0.87493
 Alpha  occ. eigenvalues --   -0.86097  -0.84354  -0.83385  -0.82389  -0.81042
 Alpha  occ. eigenvalues --   -0.80140  -0.77939  -0.77612  -0.76250  -0.75734
 Alpha  occ. eigenvalues --   -0.75314  -0.74794  -0.74299  -0.73640  -0.73182
 Alpha  occ. eigenvalues --   -0.72241  -0.72068  -0.71202  -0.70719  -0.70373
 Alpha  occ. eigenvalues --   -0.70119  -0.69460  -0.69104  -0.68808  -0.68280
 Alpha  occ. eigenvalues --   -0.67687  -0.67296  -0.67116  -0.66273  -0.65581
 Alpha  occ. eigenvalues --   -0.65448  -0.65035  -0.64843  -0.64617  -0.63671
 Alpha  occ. eigenvalues --   -0.63455  -0.63147  -0.62845  -0.62678  -0.62023
 Alpha  occ. eigenvalues --   -0.61265  -0.61078  -0.60775  -0.60309  -0.60214
 Alpha  occ. eigenvalues --   -0.59927  -0.59296  -0.58821  -0.58719  -0.58174
 Alpha  occ. eigenvalues --   -0.58005  -0.57479  -0.57248  -0.56898  -0.56665
 Alpha  occ. eigenvalues --   -0.56395  -0.55983  -0.55546  -0.55111  -0.54923
 Alpha  occ. eigenvalues --   -0.54884  -0.53924  -0.53585  -0.53298  -0.52765
 Alpha  occ. eigenvalues --   -0.52491  -0.52160  -0.51597  -0.51500  -0.51405
 Alpha  occ. eigenvalues --   -0.51251  -0.51033  -0.50953  -0.50741  -0.50569
 Alpha  occ. eigenvalues --   -0.50034  -0.49533  -0.49391  -0.49063  -0.49011
 Alpha  occ. eigenvalues --   -0.48967  -0.48751  -0.48196  -0.48029  -0.47695
 Alpha  occ. eigenvalues --   -0.47634  -0.47351  -0.46943  -0.46558  -0.46438
 Alpha  occ. eigenvalues --   -0.46202  -0.45603  -0.45444  -0.45138  -0.45097
 Alpha  occ. eigenvalues --   -0.45044  -0.44646  -0.44299  -0.43832  -0.43764
 Alpha  occ. eigenvalues --   -0.43686  -0.43056  -0.42671  -0.42556  -0.42235
 Alpha  occ. eigenvalues --   -0.42118  -0.41783  -0.41345  -0.39270  -0.39046
 Alpha  occ. eigenvalues --   -0.38558  -0.36921  -0.36069  -0.35268  -0.35098
 Alpha  occ. eigenvalues --   -0.33399  -0.32612  -0.32401  -0.32400  -0.26535
 Alpha  occ. eigenvalues --   -0.21541
 Alpha virt. eigenvalues --   -0.08537  -0.02063  -0.00646   0.01074   0.01280
 Alpha virt. eigenvalues --    0.01581   0.02127   0.02754   0.04490   0.05078
 Alpha virt. eigenvalues --    0.06068   0.06683   0.07751   0.07871   0.08332

 Mulliken charges:
               1
     1  Mg   0.435486
     2  C   -0.047754
     3  C   -0.071196
     4  C   -0.055364
     5  C   -0.088386
     6  N   -0.301607
     7  C    0.124679
     8  C    0.011201
     9  C    0.009018
    10  C    0.126809
    11  C   -0.052890
    12  C   -0.028347
    13  C    0.009884
    14  C    0.468748
    15  O   -0.519177
    16  O   -0.284105
    17  N   -0.332770
    18  C    0.110917
    19  C   -0.010694
    20  C   -0.033255
    21  C    0.136178
    22  C   -0.051422
    23  C    0.330205
    24  O   -0.531871
    25  C   -0.032797
    26  N   -0.269549
    27  C    0.116240
    28  C    0.008818
    29  C    0.016472
    30  C    0.158934
    31  C   -0.050535
    32  C   -0.041730
    33  C   -0.062437
    34  N   -0.322867
    35  C    0.109612
    36  C    0.031484
    37  C   -0.026735
    38  C    0.116016
    39  C   -0.035633
    40  C    0.327275
    41  O   -0.517378
    42  C    0.061463
    43  C    0.497908
    44  O   -0.530136
    45  O   -0.264582
    46  C    0.077242
    47  C    0.105519
    48  C   -0.095066
    49  C   -0.005378
    50  C   -0.041694
    51  C   -0.042769
    52  C   -0.040881
    53  C   -0.036261
    54  C   -0.002956
    55  C   -0.056600
    56  C   -0.036584
    57  C   -0.061680
    58  C   -0.048603
    59  C   -0.014195
    60  C   -0.051655
    61  C   -0.048322
    62  C   -0.040385
    63  C   -0.031132
    64  C   -0.018808
    65  C   -0.059470
    66  C   -0.062309
    67  H    0.017972
    68  H    0.035868
    69  H    0.024986
    70  H    0.038428
    71  H    0.019054
    72  H    0.028805
    73  H    0.018147
    74  H    0.023155
    75  H    0.037302
    76  H    0.016964
    77  H    0.052340
    78  H    0.043634
    79  H    0.035798
    80  H    0.026239
    81  H    0.013512
    82  H    0.033401
    83  H    0.036579
    84  H    0.042763
    85  H    0.032086
    86  H    0.032385
    87  H    0.008853
    88  H    0.027234
    89  H    0.026464
    90  H    0.017582
    91  H    0.019737
    92  H    0.033520
    93  H    0.020178
    94  H    0.020749
    95  H    0.035147
    96  H    0.019512
    97  H    0.049644
    98  H    0.055176
    99  H    0.028614
   100  H    0.063772
   101  H    0.036910
   102  H    0.051726
   103  H    0.056404
   104  H    0.040878
   105  H    0.027362
   106  H    0.030751
   107  H    0.019028
   108  H    0.019017
   109  H    0.014409
   110  H    0.028431
   111  H    0.032540
   112  H    0.023021
   113  H    0.015653
   114  H    0.027226
   115  H    0.027125
   116  H    0.006214
   117  H    0.015554
   118  H    0.013882
   119  H    0.020817
   120  H    0.000737
   121  H    0.031381
   122  H    0.023966
   123  H    0.035522
   124  H    0.029430
   125  H    0.027664
   126  H    0.004859
   127  H    0.016225
   128  H    0.028660
   129  H    0.017436
   130  H    0.014215
   131  H    0.021399
   132  H    0.010520
   133  H    0.025138
   134  H    0.012963
   135  H    0.014202
   136  H    0.019291
   137  H    0.026118
   138  H    0.027570
   139  H    0.020006
   140  H    0.018004
 Sum of Mulliken charges =  -0.00000

 Dipole moment (field-independent basis, Debye):
    X=              4.7283    Y=              0.1705    Z=             -2.6251  Tot=              5.4108
 N-N= 4.479477695978D+03 E-N= 0.000000000000D+00  KE=-9.633012723243D+03
 Leave Link  601 at Thu May  5 05:13:56 2022, MaxMem=  6710886400 cpu:               0.8 elap:               0.1
 (Enter /sw/apps/gaussian-16.0/g16/l9999.exe)
 1\1\GINC-BP1-COMPUTE159\SP\RZINDO CIS\STO-3G\C55H74Mg1N4O6\OF15641\05-
 May-2022\0\\#p ZINDO=(nstates=5)\\step_601_chromophore_12 ZINDO\\0,1\M
 g,0,47.117,15.289,28.535\C,0,44.821,15.224,31.39\C,0,48.929,17.663,30.
 413\C,0,49.184,15.605,26.094\C,0,44.726,13.636,26.685\N,0,46.758,16.45
 2,30.607\C,0,45.91,16.07,31.639\C,0,46.239,16.8,32.96\C,0,47.313,17.79
 6,32.449\C,0,47.761,17.252,31.093\C,0,46.836,19.283,32.434\C,0,46.616,
 15.921,34.17\C,0,46.857,16.701,35.48\C,0,47.961,16.218,36.404\O,0,48.6

 Normal termination of Gaussian 16 at Thu May  5 05:13:56 2022.
