 Gaussian 16, Revision A.03,
 Gaussian 16:  ES64L-G16RevA.03 25-Dec-2016

 ------------------------------
 #p blyp/Def2SVP td=(nstates=5)
 ------------------------------

 -------------------------------------------------
 step_751_chromophore_2 TDDFT with blyp functional
 -------------------------------------------------
 Symbolic Z-matrix:
 Charge =  0 Multiplicity = 1

                         Standard orientation:
 ---------------------------------------------------------------------
 Center     Atomic      Atomic             Coordinates (Angstroms)
 Number     Number       Type             X           Y           Z
 ---------------------------------------------------------------------
      1         12           0       -4.819696    1.084594    0.705384
      2          6           0       -5.158314   -2.423685    0.431337
      3          6           0       -2.326897    0.581047    2.982344
      4          6           0       -4.036180    4.362817    0.439366
      5          6           0       -6.920400    1.378704   -2.189775
      6          7           0       -3.695747   -0.687488    1.442727
      7          6           0       -4.124362   -2.020627    1.283055
      8          6           0       -3.321290   -2.965130    2.112737
      9          6           0       -2.535863   -1.970341    3.042558
     10          6           0       -2.818006   -0.579582    2.417783
     11          6           0       -3.032957   -1.926942    4.507870
     12          6           0       -2.309581   -3.821214    1.220736
     13          6           0       -1.931277   -3.362058   -0.226410
     14          6           0       -0.527630   -3.960359   -0.761700
     15          8           0        0.041891   -4.977011   -0.491943
     16          8           0       -0.047574   -3.091518   -1.689484
     17          7           0       -3.476312    2.327216    1.729168
     18          6           0       -2.555788    1.937370    2.651941
     19          6           0       -1.870793    3.066724    3.127084
     20          6           0       -2.276292    4.260895    2.380903
     21          6           0       -3.322520    3.709382    1.495015
     22          6           0       -0.983396    2.891491    4.358448
     23          6           0       -1.760758    5.694422    2.543613
     24          8           0       -0.828921    5.902377    3.317327
     25          6           0       -2.315705    6.809671    1.757512
     26          7           0       -5.269216    2.595053   -0.783160
     27          6           0       -4.876940    3.911825   -0.579891
     28          6           0       -5.509458    4.873603   -1.621025
     29          6           0       -6.375339    3.881060   -2.542470
     30          6           0       -6.193103    2.520324   -1.808493
     31          6           0       -6.316786    6.031791   -0.844030
     32          6           0       -5.942451    3.863166   -4.057069
     33          6           0       -7.013030    4.317666   -5.031147
     34          7           0       -6.005828   -0.217285   -0.509113
     35          6           0       -6.792581    0.073300   -1.607459
     36          6           0       -7.371780   -1.154157   -2.079736
     37          6           0       -6.870649   -2.121699   -1.248684
     38          6           0       -5.924828   -1.547827   -0.394834
     39          6           0       -8.298854   -1.249152   -3.224334
     40          6           0       -6.870763   -3.533548   -0.974581
     41          8           0       -7.614636   -4.374550   -1.430215
     42          6           0       -5.776449   -3.807612    0.128944
     43          6           0       -6.420989   -4.539095    1.276421
     44          8           0       -6.715854   -5.733011    1.235652
     45          8           0       -6.728253   -3.625714    2.332527
     46          6           0       -7.487607   -4.271517    3.379995
     47          6           0        1.228492   -3.487718   -2.396729
     48          6           0        2.275605   -2.394088   -2.040257
     49          6           0        3.309064   -1.880955   -2.829049
     50          6           0        3.784563   -2.533190   -4.109295
     51          6           0        4.111512   -0.654210   -2.342345
     52          6           0        5.463770   -1.029046   -1.650844
     53          6           0        6.691450   -0.443727   -2.329119
     54          6           0        7.317011    0.776058   -1.500915
     55          6           0        7.140425    2.147723   -2.232984
     56          6           0        8.835488    0.547936   -1.185563
     57          6           0        9.037914   -0.311208    0.084206
     58          6           0        9.897196    0.409086    1.182171
     59          6           0       11.268686   -0.417005    1.437048
     60          6           0       11.688279   -0.450538    2.942185
     61          6           0       12.461899    0.086167    0.565067
     62          6           0       13.790071   -0.718452    0.364914
     63          6           0       15.069898    0.081301    0.751319
     64          6           0       16.136804   -0.024646   -0.458980
     65          6           0       17.546461    0.098629    0.186823
     66          6           0       15.765181    1.175621   -1.382360
     67          1           0       -1.625916    0.463014    3.811083
     68          1           0       -3.930341    5.448030    0.376295
     69          1           0       -7.657152    1.526871   -2.981945
     70          1           0       -4.033511   -3.630659    2.601511
     71          1           0       -1.480948   -2.233857    2.957751
     72          1           0       -3.686635   -1.086174    4.738620
     73          1           0       -2.190733   -2.053012    5.189236
     74          1           0       -3.628154   -2.803152    4.764093
     75          1           0       -2.785036   -4.774761    0.987163
     76          1           0       -1.417125   -4.068795    1.796836
     77          1           0       -1.994410   -2.275637   -0.287702
     78          1           0       -2.711156   -3.631118   -0.939133
     79          1           0       -0.030619    2.395251    4.176380
     80          1           0       -1.546598    2.486445    5.199664
     81          1           0       -0.653129    3.855557    4.745249
     82          1           0       -3.359688    6.944209    2.043033
     83          1           0       -2.143673    6.481611    0.732853
     84          1           0       -1.825166    7.772472    1.897582
     85          1           0       -4.691212    5.304888   -2.198356
     86          1           0       -7.413331    4.210763   -2.499590
     87          1           0       -5.746446    6.947538   -0.995755
     88          1           0       -6.442814    5.815096    0.217728
     89          1           0       -7.313097    6.147602   -1.271322
     90          1           0       -5.836489    2.815341   -4.338534
     91          1           0       -5.007892    4.401854   -4.218624
     92          1           0       -6.704409    5.273703   -5.455879
     93          1           0       -8.036386    4.475020   -4.689475
     94          1           0       -7.032075    3.613174   -5.862076
     95          1           0       -7.768426   -0.792943   -4.059784
     96          1           0       -9.213927   -0.775372   -2.867973
     97          1           0       -8.424424   -2.222699   -3.698062
     98          1           0       -5.057704   -4.482548   -0.334567
     99          1           0       -6.803161   -4.641424    4.142766
    100          1           0       -8.114974   -5.077650    2.999696
    101          1           0       -8.141714   -3.531765    3.842168
    102          1           0        0.979304   -3.469643   -3.457695
    103          1           0        1.615284   -4.486036   -2.188859
    104          1           0        1.887289   -1.874898   -1.163421
    105          1           0        3.122348   -2.036423   -4.818621
    106          1           0        3.512588   -3.589026   -4.105711
    107          1           0        4.842788   -2.412999   -4.339459
    108          1           0        3.383867   -0.173426   -1.689480
    109          1           0        4.297567    0.082021   -3.123716
    110          1           0        5.592347   -2.110553   -1.595022
    111          1           0        5.365540   -0.605930   -0.651245
    112          1           0        6.507134   -0.152762   -3.363308
    113          1           0        7.511227   -1.160571   -2.356322
    114          1           0        6.842280    0.917037   -0.529872
    115          1           0        7.924721    2.259192   -2.981172
    116          1           0        7.323366    2.977860   -1.551537
    117          1           0        6.147391    2.204801   -2.678950
    118          1           0        9.276101    1.544134   -1.166046
    119          1           0        9.273751   -0.093499   -1.950293
    120          1           0        9.642785   -1.178499   -0.180828
    121          1           0        8.134622   -0.647570    0.592357
    122          1           0        9.279442    0.588510    2.061391
    123          1           0       10.124650    1.432427    0.884305
    124          1           0       11.104160   -1.485197    1.293839
    125          1           0       12.673550   -0.010778    3.093449
    126          1           0       11.774031   -1.467632    3.325121
    127          1           0       11.016319    0.169417    3.536013
    128          1           0       12.688860    1.135899    0.746552
    129          1           0       12.060833    0.109803   -0.448580
    130          1           0       13.761030   -1.077677   -0.664167
    131          1           0       13.722169   -1.616362    0.978784
    132          1           0       15.406012   -0.313822    1.709894
    133          1           0       14.914193    1.161011    0.746299
    134          1           0       16.145891   -0.963911   -1.012615
    135          1           0       17.682121   -0.947452    0.458539
    136          1           0       17.521562    0.624988    1.141521
    137          1           0       18.302325    0.547714   -0.458188
    138          1           0       14.759741    1.594900   -1.348335
    139          1           0       16.118657    0.958862   -2.391030
    140          1           0       16.422551    1.996330   -1.095282
 ---------------------------------------------------------------------

 SCF Done:  E(RB-LYP) =  -3007.38152060     A.U. after   21 cycles

 Excitation energies and oscillator strengths:

 Excited State   1:      Singlet-A      1.7998 eV  688.87 nm  f=0.0514  <S**2>=0.000
     244 -> 247        0.64661
     246 -> 247        0.27730
 This state for optimization and/or second-order correction.
 Total Energy, E(TD-HF/TD-DFT) =  -3007.31537833
 Copying the excited state density for this state as the 1-particle RhoCI density.

 Excited State   2:      Singlet-A      1.8197 eV  681.34 nm  f=0.2477  <S**2>=0.000
     243 -> 247        0.10140
     244 -> 247       -0.28029
     245 -> 248        0.16925
     246 -> 247        0.62630
     246 <- 247       -0.14168

 Excited State   3:      Singlet-A      1.8866 eV  657.20 nm  f=0.0252  <S**2>=0.000
     243 -> 247        0.60486
     245 -> 247       -0.33673

 Excited State   4:      Singlet-A      1.9561 eV  633.84 nm  f=0.0006  <S**2>=0.000
     242 -> 247        0.70601

 Excited State   5:      Singlet-A      2.0143 eV  615.53 nm  f=0.0649  <S**2>=0.000
     240 -> 247        0.10636
     243 -> 247        0.34604
     245 -> 247        0.55910
     246 -> 248       -0.20383

 The electronic state is 1-A.
 Alpha  occ. eigenvalues --  -46.27976 -18.82454 -18.81758 -18.77521 -18.76986
 Alpha  occ. eigenvalues --  -18.75886 -18.75389 -14.03630 -14.03615 -14.01165
 Alpha  occ. eigenvalues --  -14.00936 -10.04430 -10.04303 -10.00144  -9.99693
 Alpha  occ. eigenvalues --   -9.98092  -9.97302  -9.97062  -9.97040  -9.96889
 Alpha  occ. eigenvalues --   -9.96772  -9.96557  -9.95660  -9.95074  -9.94958
 Alpha  occ. eigenvalues --   -9.94844  -9.94560  -9.94441  -9.94195  -9.94192
 Alpha  occ. eigenvalues --   -9.94179  -9.93994  -9.93703  -9.93512  -9.93502
 Alpha  occ. eigenvalues --   -9.93481  -9.93377  -9.93266  -9.93173  -9.93147
 Alpha  occ. eigenvalues --   -9.93142  -9.92680  -9.92538  -9.92488  -9.92465
 Alpha  occ. eigenvalues --   -9.92408  -9.92383  -9.92179  -9.92100  -9.92008
 Alpha  occ. eigenvalues --   -9.91935  -9.91853  -9.91551  -9.91496  -9.91472
 Alpha  occ. eigenvalues --   -9.91310  -9.91237  -9.91198  -9.90896  -9.90877
 Alpha  occ. eigenvalues --   -9.90781  -9.90769  -9.90757  -9.90726  -9.90558
 Alpha  occ. eigenvalues --   -9.90104  -2.92442  -1.72850  -1.72346  -1.72146
 Alpha  occ. eigenvalues --   -0.98094  -0.96791  -0.92076  -0.91250  -0.89994
 Alpha  occ. eigenvalues --   -0.89979  -0.86946  -0.86260  -0.85072  -0.84383
 Alpha  occ. eigenvalues --   -0.75604  -0.72799  -0.72271  -0.72102  -0.71877
 Alpha  occ. eigenvalues --   -0.71643  -0.71278  -0.70998  -0.70597  -0.69942
 Alpha  occ. eigenvalues --   -0.68953  -0.68755  -0.67932  -0.67672  -0.67244
 Alpha  occ. eigenvalues --   -0.66356  -0.65957  -0.65514  -0.64745  -0.64578
 Alpha  occ. eigenvalues --   -0.63736  -0.62625  -0.62054  -0.61526  -0.60929
 Alpha  occ. eigenvalues --   -0.60569  -0.60148  -0.59791  -0.58875  -0.58435
 Alpha  occ. eigenvalues --   -0.58149  -0.57252  -0.56853  -0.55256  -0.54554
 Alpha  occ. eigenvalues --   -0.54149  -0.53053  -0.52864  -0.52053  -0.51569
 Alpha  occ. eigenvalues --   -0.51478  -0.50984  -0.50915  -0.50510  -0.49430
 Alpha  occ. eigenvalues --   -0.49282  -0.49124  -0.48916  -0.48711  -0.46442
 Alpha  occ. eigenvalues --   -0.46327  -0.45995  -0.45425  -0.44878  -0.44560
 Alpha  occ. eigenvalues --   -0.44204  -0.43422  -0.42986  -0.42758  -0.42354
 Alpha  occ. eigenvalues --   -0.41820  -0.41656  -0.41304  -0.41121  -0.40747
 Alpha  occ. eigenvalues --   -0.40675  -0.40585  -0.40470  -0.40260  -0.40174
 Alpha  occ. eigenvalues --   -0.40030  -0.39804  -0.39670  -0.39159  -0.39004
 Alpha  occ. eigenvalues --   -0.38776  -0.38590  -0.38474  -0.38274  -0.38073
 Alpha  occ. eigenvalues --   -0.37935  -0.37843  -0.37707  -0.37638  -0.37445
 Alpha  occ. eigenvalues --   -0.37256  -0.36952  -0.36833  -0.36684  -0.36548
 Alpha  occ. eigenvalues --   -0.36291  -0.36093  -0.35863  -0.35634  -0.35364
 Alpha  occ. eigenvalues --   -0.35268  -0.35225  -0.35171  -0.35052  -0.34639
 Alpha  occ. eigenvalues --   -0.34546  -0.34221  -0.34172  -0.33850  -0.33766
 Alpha  occ. eigenvalues --   -0.33646  -0.33580  -0.33368  -0.33243  -0.33184
 Alpha  occ. eigenvalues --   -0.33127  -0.33040  -0.32935  -0.32534  -0.32327
 Alpha  occ. eigenvalues --   -0.32242  -0.31864  -0.31795  -0.31444  -0.31379
 Alpha  occ. eigenvalues --   -0.31331  -0.31063  -0.30847  -0.30721  -0.30601
 Alpha  occ. eigenvalues --   -0.30548  -0.30384  -0.30325  -0.30274  -0.29806
 Alpha  occ. eigenvalues --   -0.29615  -0.29402  -0.29318  -0.29063  -0.28827
 Alpha  occ. eigenvalues --   -0.28543  -0.28302  -0.27886  -0.27792  -0.27584
 Alpha  occ. eigenvalues --   -0.27533  -0.27392  -0.27213  -0.26637  -0.26537
 Alpha  occ. eigenvalues --   -0.26349  -0.26213  -0.25775  -0.25581  -0.25206
 Alpha  occ. eigenvalues --   -0.25155  -0.24817  -0.24244  -0.23972  -0.23781
 Alpha  occ. eigenvalues --   -0.23286  -0.22986  -0.22428  -0.22073  -0.20798
 Alpha  occ. eigenvalues --   -0.20215  -0.19225  -0.18970  -0.18592  -0.17602
 Alpha  occ. eigenvalues --   -0.16257
 Alpha virt. eigenvalues --   -0.12037  -0.07136  -0.06214  -0.04843  -0.03421
 Alpha virt. eigenvalues --   -0.03042  -0.02330  -0.01605  -0.01409   0.00045
 Alpha virt. eigenvalues --    0.00922   0.01703   0.02031   0.02870   0.03073

 Mulliken charges:
               1
     1  Mg   0.689224
     2  C    0.085935
     3  C   -0.044783
     4  C   -0.022978
     5  C   -0.074121
     6  N   -0.202308
     7  C   -0.125147
     8  C    0.064012
     9  C    0.022245
    10  C    0.022998
    11  C    0.130004
    12  C    0.061070
    13  C    0.065419
    14  C    0.096590
    15  O   -0.154351
    16  O   -0.275528
    17  N   -0.304363
    18  C    0.121859
    19  C   -0.127190
    20  C    0.017287
    21  C    0.124030
    22  C    0.162121
    23  C   -0.088356
    24  O   -0.158318
    25  C    0.161138
    26  N   -0.235853
    27  C   -0.022245
    28  C   -0.000330
    29  C    0.036942
    30  C    0.029610
    31  C    0.105570
    32  C    0.100604
    33  C    0.045682
    34  N   -0.234135
    35  C    0.105129
    36  C   -0.205765
    37  C    0.156002
    38  C    0.005170
    39  C    0.188612
    40  C   -0.100242
    41  O   -0.102493
    42  C    0.050949
    43  C    0.134657
    44  O   -0.162537
    45  O   -0.299880
    46  C    0.213164
    47  C    0.272368
    48  C   -0.092654
    49  C   -0.179322
    50  C    0.144345
    51  C    0.123882
    52  C    0.099886
    53  C    0.114000
    54  C   -0.105237
    55  C    0.093797
    56  C    0.104437
    57  C    0.066149
    58  C    0.082445
    59  C   -0.058829
    60  C    0.094660
    61  C    0.062879
    62  C    0.102084
    63  C    0.077808
    64  C   -0.124929
    65  C    0.108171
    66  C    0.103859
    67  H   -0.062709
    68  H   -0.088012
    69  H   -0.055708
    70  H   -0.022204
    71  H   -0.023929
    72  H    0.005448
    73  H   -0.005574
    74  H   -0.021586
    75  H   -0.008992
    76  H   -0.003731
    77  H    0.005666
    78  H    0.005170
    79  H   -0.000756
    80  H   -0.001047
    81  H   -0.014693
    82  H    0.018359
    83  H    0.020470
    84  H   -0.012168
    85  H   -0.013358
    86  H   -0.026151
    87  H    0.002103
    88  H    0.007673
    89  H   -0.007478
    90  H   -0.017616
    91  H   -0.012580
    92  H   -0.014643
    93  H   -0.004771
    94  H   -0.009535
    95  H   -0.009671
    96  H    0.019801
    97  H   -0.006041
    98  H    0.006517
    99  H    0.005750
   100  H    0.025669
   101  H    0.005447
   102  H   -0.002618
   103  H    0.025114
   104  H   -0.025240
   105  H    0.007403
   106  H   -0.008752
   107  H    0.006908
   108  H   -0.033883
   109  H   -0.029682
   110  H   -0.017799
   111  H   -0.016670
   112  H   -0.029427
   113  H   -0.043177
   114  H   -0.031530
   115  H   -0.019649
   116  H   -0.017650
   117  H   -0.013587
   118  H   -0.027194
   119  H   -0.030649
   120  H   -0.028445
   121  H   -0.018922
   122  H   -0.037215
   123  H   -0.036275
   124  H   -0.033928
   125  H   -0.028789
   126  H   -0.015308
   127  H   -0.021212
   128  H   -0.033088
   129  H   -0.046844
   130  H   -0.025793
   131  H   -0.038112
   132  H   -0.020063
   133  H   -0.019751
   134  H   -0.021713
   135  H   -0.016514
   136  H   -0.017162
   137  H   -0.010990
   138  H    0.000200
   139  H   -0.021554
   140  H   -0.030461
 Sum of Mulliken charges =  -0.00000

 Dipole moment (field-independent basis, Debye):
    X=             -0.4598    Y=              5.2602    Z=             -1.4267  Tot=              5.4696
 Quadrupole moment (field-independent basis, Debye-Ang):
   XX=           -394.5238   YY=           -440.1285   ZZ=           -387.0256
   XY=            -55.4719   XZ=            -15.6656   YZ=            -25.1323

 Normal termination of Gaussian 16 at Thu May  5 08:55:00 2022.
