 Gaussian 16, Revision A.03,
 Gaussian 16:  ES64L-G16RevA.03 25-Dec-2016

 -----------------------------------
 #p cam-b3lyp/Def2SVP td=(nstates=5)
 -----------------------------------

 ------------------------------------------------------
 step_751_chromophore_2 TDDFT with cam-b3lyp functional
 ------------------------------------------------------
 Symbolic Z-matrix:
 Charge =  0 Multiplicity = 1

                         Standard orientation:
 ---------------------------------------------------------------------
 Center     Atomic      Atomic             Coordinates (Angstroms)
 Number     Number       Type             X           Y           Z
 ---------------------------------------------------------------------
      1         12           0       -4.819696    1.084594    0.705384
      2          6           0       -5.158314   -2.423685    0.431337
      3          6           0       -2.326897    0.581047    2.982344
      4          6           0       -4.036180    4.362817    0.439366
      5          6           0       -6.920400    1.378704   -2.189775
      6          7           0       -3.695747   -0.687488    1.442727
      7          6           0       -4.124362   -2.020627    1.283055
      8          6           0       -3.321290   -2.965130    2.112737
      9          6           0       -2.535863   -1.970341    3.042558
     10          6           0       -2.818006   -0.579582    2.417783
     11          6           0       -3.032957   -1.926942    4.507870
     12          6           0       -2.309581   -3.821214    1.220736
     13          6           0       -1.931277   -3.362058   -0.226410
     14          6           0       -0.527630   -3.960359   -0.761700
     15          8           0        0.041891   -4.977011   -0.491943
     16          8           0       -0.047574   -3.091518   -1.689484
     17          7           0       -3.476312    2.327216    1.729168
     18          6           0       -2.555788    1.937370    2.651941
     19          6           0       -1.870793    3.066724    3.127084
     20          6           0       -2.276292    4.260895    2.380903
     21          6           0       -3.322520    3.709382    1.495015
     22          6           0       -0.983396    2.891491    4.358448
     23          6           0       -1.760758    5.694422    2.543613
     24          8           0       -0.828921    5.902377    3.317327
     25          6           0       -2.315705    6.809671    1.757512
     26          7           0       -5.269216    2.595053   -0.783160
     27          6           0       -4.876940    3.911825   -0.579891
     28          6           0       -5.509458    4.873603   -1.621025
     29          6           0       -6.375339    3.881060   -2.542470
     30          6           0       -6.193103    2.520324   -1.808493
     31          6           0       -6.316786    6.031791   -0.844030
     32          6           0       -5.942451    3.863166   -4.057069
     33          6           0       -7.013030    4.317666   -5.031147
     34          7           0       -6.005828   -0.217285   -0.509113
     35          6           0       -6.792581    0.073300   -1.607459
     36          6           0       -7.371780   -1.154157   -2.079736
     37          6           0       -6.870649   -2.121699   -1.248684
     38          6           0       -5.924828   -1.547827   -0.394834
     39          6           0       -8.298854   -1.249152   -3.224334
     40          6           0       -6.870763   -3.533548   -0.974581
     41          8           0       -7.614636   -4.374550   -1.430215
     42          6           0       -5.776449   -3.807612    0.128944
     43          6           0       -6.420989   -4.539095    1.276421
     44          8           0       -6.715854   -5.733011    1.235652
     45          8           0       -6.728253   -3.625714    2.332527
     46          6           0       -7.487607   -4.271517    3.379995
     47          6           0        1.228492   -3.487718   -2.396729
     48          6           0        2.275605   -2.394088   -2.040257
     49          6           0        3.309064   -1.880955   -2.829049
     50          6           0        3.784563   -2.533190   -4.109295
     51          6           0        4.111512   -0.654210   -2.342345
     52          6           0        5.463770   -1.029046   -1.650844
     53          6           0        6.691450   -0.443727   -2.329119
     54          6           0        7.317011    0.776058   -1.500915
     55          6           0        7.140425    2.147723   -2.232984
     56          6           0        8.835488    0.547936   -1.185563
     57          6           0        9.037914   -0.311208    0.084206
     58          6           0        9.897196    0.409086    1.182171
     59          6           0       11.268686   -0.417005    1.437048
     60          6           0       11.688279   -0.450538    2.942185
     61          6           0       12.461899    0.086167    0.565067
     62          6           0       13.790071   -0.718452    0.364914
     63          6           0       15.069898    0.081301    0.751319
     64          6           0       16.136804   -0.024646   -0.458980
     65          6           0       17.546461    0.098629    0.186823
     66          6           0       15.765181    1.175621   -1.382360
     67          1           0       -1.625916    0.463014    3.811083
     68          1           0       -3.930341    5.448030    0.376295
     69          1           0       -7.657152    1.526871   -2.981945
     70          1           0       -4.033511   -3.630659    2.601511
     71          1           0       -1.480948   -2.233857    2.957751
     72          1           0       -3.686635   -1.086174    4.738620
     73          1           0       -2.190733   -2.053012    5.189236
     74          1           0       -3.628154   -2.803152    4.764093
     75          1           0       -2.785036   -4.774761    0.987163
     76          1           0       -1.417125   -4.068795    1.796836
     77          1           0       -1.994410   -2.275637   -0.287702
     78          1           0       -2.711156   -3.631118   -0.939133
     79          1           0       -0.030619    2.395251    4.176380
     80          1           0       -1.546598    2.486445    5.199664
     81          1           0       -0.653129    3.855557    4.745249
     82          1           0       -3.359688    6.944209    2.043033
     83          1           0       -2.143673    6.481611    0.732853
     84          1           0       -1.825166    7.772472    1.897582
     85          1           0       -4.691212    5.304888   -2.198356
     86          1           0       -7.413331    4.210763   -2.499590
     87          1           0       -5.746446    6.947538   -0.995755
     88          1           0       -6.442814    5.815096    0.217728
     89          1           0       -7.313097    6.147602   -1.271322
     90          1           0       -5.836489    2.815341   -4.338534
     91          1           0       -5.007892    4.401854   -4.218624
     92          1           0       -6.704409    5.273703   -5.455879
     93          1           0       -8.036386    4.475020   -4.689475
     94          1           0       -7.032075    3.613174   -5.862076
     95          1           0       -7.768426   -0.792943   -4.059784
     96          1           0       -9.213927   -0.775372   -2.867973
     97          1           0       -8.424424   -2.222699   -3.698062
     98          1           0       -5.057704   -4.482548   -0.334567
     99          1           0       -6.803161   -4.641424    4.142766
    100          1           0       -8.114974   -5.077650    2.999696
    101          1           0       -8.141714   -3.531765    3.842168
    102          1           0        0.979304   -3.469643   -3.457695
    103          1           0        1.615284   -4.486036   -2.188859
    104          1           0        1.887289   -1.874898   -1.163421
    105          1           0        3.122348   -2.036423   -4.818621
    106          1           0        3.512588   -3.589026   -4.105711
    107          1           0        4.842788   -2.412999   -4.339459
    108          1           0        3.383867   -0.173426   -1.689480
    109          1           0        4.297567    0.082021   -3.123716
    110          1           0        5.592347   -2.110553   -1.595022
    111          1           0        5.365540   -0.605930   -0.651245
    112          1           0        6.507134   -0.152762   -3.363308
    113          1           0        7.511227   -1.160571   -2.356322
    114          1           0        6.842280    0.917037   -0.529872
    115          1           0        7.924721    2.259192   -2.981172
    116          1           0        7.323366    2.977860   -1.551537
    117          1           0        6.147391    2.204801   -2.678950
    118          1           0        9.276101    1.544134   -1.166046
    119          1           0        9.273751   -0.093499   -1.950293
    120          1           0        9.642785   -1.178499   -0.180828
    121          1           0        8.134622   -0.647570    0.592357
    122          1           0        9.279442    0.588510    2.061391
    123          1           0       10.124650    1.432427    0.884305
    124          1           0       11.104160   -1.485197    1.293839
    125          1           0       12.673550   -0.010778    3.093449
    126          1           0       11.774031   -1.467632    3.325121
    127          1           0       11.016319    0.169417    3.536013
    128          1           0       12.688860    1.135899    0.746552
    129          1           0       12.060833    0.109803   -0.448580
    130          1           0       13.761030   -1.077677   -0.664167
    131          1           0       13.722169   -1.616362    0.978784
    132          1           0       15.406012   -0.313822    1.709894
    133          1           0       14.914193    1.161011    0.746299
    134          1           0       16.145891   -0.963911   -1.012615
    135          1           0       17.682121   -0.947452    0.458539
    136          1           0       17.521562    0.624988    1.141521
    137          1           0       18.302325    0.547714   -0.458188
    138          1           0       14.759741    1.594900   -1.348335
    139          1           0       16.118657    0.958862   -2.391030
    140          1           0       16.422551    1.996330   -1.095282
 ---------------------------------------------------------------------

 SCF Done:  E(RCAM-B3LYP) =  -3007.15942569     A.U. after   18 cycles

 Excitation energies and oscillator strengths:

 Excited State   1:      Singlet-A      1.6915 eV  732.99 nm  f=0.3813  <S**2>=0.000
     245 -> 248        0.17416
     246 -> 247        0.68674
     245 <- 248        0.10686
 This state for optimization and/or second-order correction.
 Total Energy, E(TD-HF/TD-DFT) =  -3007.09726513
 Copying the excited state density for this state as the 1-particle RhoCI density.

 Excited State   2:      Singlet-A      2.1995 eV  563.71 nm  f=0.1213  <S**2>=0.000
     245 -> 247        0.64559
     246 -> 248       -0.26794

 Excited State   3:      Singlet-A      3.1683 eV  391.33 nm  f=0.0018  <S**2>=0.000
     243 -> 247        0.68527
     246 -> 248       -0.10882

 Excited State   4:      Singlet-A      3.3545 eV  369.61 nm  f=0.0029  <S**2>=0.000
     242 -> 247        0.64335
     246 -> 248        0.20407

 Excited State   5:      Singlet-A      3.5498 eV  349.27 nm  f=0.0054  <S**2>=0.000
     240 -> 247        0.53582
     240 -> 248       -0.17948
     240 -> 249        0.26211
     240 -> 251        0.23106
     241 -> 247        0.13449

 The electronic state is 1-A.
 Alpha  occ. eigenvalues --  -46.89600 -19.25451 -19.24509 -19.20783 -19.19878
 Alpha  occ. eigenvalues --  -19.18914 -19.18722 -14.42545 -14.42542 -14.39721
 Alpha  occ. eigenvalues --  -14.39266 -10.40150 -10.39518 -10.35417 -10.34888
 Alpha  occ. eigenvalues --  -10.32171 -10.31698 -10.31526 -10.31420 -10.31358
 Alpha  occ. eigenvalues --  -10.31245 -10.31099 -10.29700 -10.29522 -10.29259
 Alpha  occ. eigenvalues --  -10.29048 -10.28590 -10.28561 -10.28532 -10.28493
 Alpha  occ. eigenvalues --  -10.28237 -10.28224 -10.28131 -10.28032 -10.27728
 Alpha  occ. eigenvalues --  -10.27551 -10.27356 -10.27337 -10.27195 -10.27189
 Alpha  occ. eigenvalues --  -10.26856 -10.26841 -10.26589 -10.26259 -10.26159
 Alpha  occ. eigenvalues --  -10.26071 -10.26020 -10.25989 -10.25965 -10.25700
 Alpha  occ. eigenvalues --  -10.25665 -10.25633 -10.25430 -10.25205 -10.25177
 Alpha  occ. eigenvalues --  -10.24987 -10.24981 -10.24884 -10.24569 -10.24560
 Alpha  occ. eigenvalues --  -10.24450 -10.24403 -10.24385 -10.24376 -10.24314
 Alpha  occ. eigenvalues --  -10.23704  -3.17959  -1.92847  -1.92426  -1.92247
 Alpha  occ. eigenvalues --   -1.16518  -1.15366  -1.10367  -1.09758  -1.08004
 Alpha  occ. eigenvalues --   -1.07746  -1.04657  -1.03839  -1.02763  -1.01958
 Alpha  occ. eigenvalues --   -0.92712  -0.89610  -0.89029  -0.88813  -0.88619
 Alpha  occ. eigenvalues --   -0.88264  -0.87941  -0.87558  -0.87057  -0.86474
 Alpha  occ. eigenvalues --   -0.85668  -0.85157  -0.84196  -0.83831  -0.83476
 Alpha  occ. eigenvalues --   -0.82559  -0.81967  -0.81509  -0.80498  -0.80347
 Alpha  occ. eigenvalues --   -0.79530  -0.78244  -0.77575  -0.77138  -0.76364
 Alpha  occ. eigenvalues --   -0.75948  -0.75500  -0.75085  -0.74147  -0.73642
 Alpha  occ. eigenvalues --   -0.73205  -0.72203  -0.71771  -0.70038  -0.69122
 Alpha  occ. eigenvalues --   -0.68759  -0.67574  -0.67405  -0.66388  -0.65732
 Alpha  occ. eigenvalues --   -0.65597  -0.65183  -0.64923  -0.64519  -0.63287
 Alpha  occ. eigenvalues --   -0.63203  -0.63095  -0.62631  -0.62562  -0.60066
 Alpha  occ. eigenvalues --   -0.59823  -0.59584  -0.58837  -0.58303  -0.57997
 Alpha  occ. eigenvalues --   -0.57736  -0.56896  -0.56145  -0.56038  -0.55684
 Alpha  occ. eigenvalues --   -0.54751  -0.54595  -0.54290  -0.53810  -0.53794
 Alpha  occ. eigenvalues --   -0.53660  -0.53318  -0.53180  -0.53079  -0.52978
 Alpha  occ. eigenvalues --   -0.52738  -0.52658  -0.52376  -0.51907  -0.51692
 Alpha  occ. eigenvalues --   -0.51167  -0.50960  -0.50773  -0.50709  -0.50570
 Alpha  occ. eigenvalues --   -0.50368  -0.50230  -0.49998  -0.49957  -0.49842
 Alpha  occ. eigenvalues --   -0.49619  -0.49432  -0.49233  -0.48890  -0.48735
 Alpha  occ. eigenvalues --   -0.48722  -0.48510  -0.48016  -0.47670  -0.47530
 Alpha  occ. eigenvalues --   -0.47273  -0.47188  -0.46997  -0.46916  -0.46637
 Alpha  occ. eigenvalues --   -0.46537  -0.46305  -0.46112  -0.45936  -0.45526
 Alpha  occ. eigenvalues --   -0.45319  -0.45190  -0.45092  -0.45016  -0.44873
 Alpha  occ. eigenvalues --   -0.44845  -0.44677  -0.44607  -0.44349  -0.43884
 Alpha  occ. eigenvalues --   -0.43779  -0.43566  -0.43263  -0.43165  -0.43116
 Alpha  occ. eigenvalues --   -0.42838  -0.42656  -0.42530  -0.42302  -0.42106
 Alpha  occ. eigenvalues --   -0.41991  -0.41862  -0.41593  -0.41519  -0.41284
 Alpha  occ. eigenvalues --   -0.40751  -0.40742  -0.40552  -0.40137  -0.39871
 Alpha  occ. eigenvalues --   -0.39715  -0.39252  -0.38849  -0.38729  -0.38489
 Alpha  occ. eigenvalues --   -0.38468  -0.38261  -0.38023  -0.37687  -0.37397
 Alpha  occ. eigenvalues --   -0.37077  -0.37023  -0.36925  -0.36797  -0.36682
 Alpha  occ. eigenvalues --   -0.35884  -0.35542  -0.35153  -0.34690  -0.34609
 Alpha  occ. eigenvalues --   -0.34361  -0.33579  -0.33144  -0.31689  -0.31120
 Alpha  occ. eigenvalues --   -0.30866  -0.29988  -0.29656  -0.28726  -0.24453
 Alpha  occ. eigenvalues --   -0.21580
 Alpha virt. eigenvalues --   -0.09297  -0.01940   0.00279   0.01701   0.02152
 Alpha virt. eigenvalues --    0.04444   0.05226   0.05423   0.06565   0.07041
 Alpha virt. eigenvalues --    0.07625   0.08209   0.08634   0.09143   0.09278

 Mulliken charges:
               1
     1  Mg   0.818315
     2  C    0.057049
     3  C   -0.064029
     4  C   -0.055082
     5  C   -0.080080
     6  N   -0.270597
     7  C   -0.080882
     8  C    0.013679
     9  C   -0.033785
    10  C    0.045947
    11  C    0.067919
    12  C    0.013392
    13  C    0.003818
    14  C    0.176909
    15  O   -0.198113
    16  O   -0.340514
    17  N   -0.392786
    18  C    0.131681
    19  C   -0.130674
    20  C   -0.048339
    21  C    0.157585
    22  C    0.099460
    23  C   -0.007474
    24  O   -0.198912
    25  C    0.072618
    26  N   -0.306503
    27  C    0.006263
    28  C   -0.050776
    29  C   -0.013941
    30  C    0.045511
    31  C    0.046447
    32  C    0.043772
    33  C   -0.016926
    34  N   -0.321919
    35  C    0.109629
    36  C   -0.202725
    37  C    0.075939
    38  C    0.040474
    39  C    0.130357
    40  C   -0.001474
    41  O   -0.142384
    42  C   -0.018132
    43  C    0.220444
    44  O   -0.199666
    45  O   -0.361306
    46  C    0.172176
    47  C    0.241047
    48  C   -0.113308
    49  C   -0.198044
    50  C    0.079414
    51  C    0.071278
    52  C    0.040337
    53  C    0.056255
    54  C   -0.154223
    55  C    0.039095
    56  C    0.049125
    57  C    0.011263
    58  C    0.032729
    59  C   -0.116334
    60  C    0.038003
    61  C    0.015601
    62  C    0.046771
    63  C    0.022107
    64  C   -0.177305
    65  C    0.047647
    66  C    0.039767
    67  H   -0.023746
    68  H   -0.051101
    69  H   -0.019403
    70  H    0.012917
    71  H    0.012006
    72  H    0.031543
    73  H    0.019283
    74  H    0.004027
    75  H    0.018809
    76  H    0.026474
    77  H    0.037600
    78  H    0.033690
    79  H    0.027380
    80  H    0.025919
    81  H    0.019424
    82  H    0.045146
    83  H    0.045911
    84  H    0.025366
    85  H    0.020124
    86  H    0.007479
    87  H    0.024331
    88  H    0.032455
    89  H    0.017462
    90  H    0.012920
    91  H    0.015238
    92  H    0.009122
    93  H    0.018111
    94  H    0.014620
    95  H    0.015151
    96  H    0.043987
    97  H    0.023740
    98  H    0.045624
    99  H    0.026030
   100  H    0.051325
   101  H    0.029163
   102  H    0.024759
   103  H    0.056082
   104  H    0.006987
   105  H    0.032058
   106  H    0.015081
   107  H    0.029952
   108  H   -0.002601
   109  H   -0.001790
   110  H    0.011955
   111  H    0.011280
   112  H   -0.001804
   113  H   -0.012745
   114  H   -0.001903
   115  H    0.003672
   116  H    0.006454
   117  H    0.008619
   118  H    0.000760
   119  H   -0.002830
   120  H   -0.000051
   121  H    0.008169
   122  H   -0.007106
   123  H   -0.008681
   124  H   -0.002576
   125  H   -0.005528
   126  H    0.008219
   127  H    0.002957
   128  H   -0.006645
   129  H   -0.019978
   130  H    0.003226
   131  H   -0.009333
   132  H    0.007825
   133  H    0.007267
   134  H    0.007566
   135  H    0.007747
   136  H    0.006629
   137  H    0.013378
   138  H    0.022257
   139  H    0.004100
   140  H   -0.005146
 Sum of Mulliken charges =  -0.00000

 Dipole moment (field-independent basis, Debye):
    X=             -0.3225    Y=              5.8602    Z=             -1.1034  Tot=              5.9719
 Quadrupole moment (field-independent basis, Debye-Ang):
   XX=           -396.0717   YY=           -437.1048   ZZ=           -384.7235
   XY=            -57.6888   XZ=            -16.5985   YZ=            -25.8946

 Normal termination of Gaussian 16 at Thu May  5 07:32:30 2022.
