 Gaussian 16, Revision A.03,
 Gaussian 16:  ES64L-G16RevA.03 25-Dec-2016

 ---------------------------------
 #p PBE1PBE/Def2SVP td=(nstates=5)
 ---------------------------------

 ----------------------------------------------------
 step_751_chromophore_2 TDDFT with PBE1PBE functional
 ----------------------------------------------------
 Symbolic Z-matrix:
 Charge =  0 Multiplicity = 1

                         Standard orientation:
 ---------------------------------------------------------------------
 Center     Atomic      Atomic             Coordinates (Angstroms)
 Number     Number       Type             X           Y           Z
 ---------------------------------------------------------------------
      1         12           0       -4.819696    1.084594    0.705384
      2          6           0       -5.158314   -2.423685    0.431337
      3          6           0       -2.326897    0.581047    2.982344
      4          6           0       -4.036180    4.362817    0.439366
      5          6           0       -6.920400    1.378704   -2.189775
      6          7           0       -3.695747   -0.687488    1.442727
      7          6           0       -4.124362   -2.020627    1.283055
      8          6           0       -3.321290   -2.965130    2.112737
      9          6           0       -2.535863   -1.970341    3.042558
     10          6           0       -2.818006   -0.579582    2.417783
     11          6           0       -3.032957   -1.926942    4.507870
     12          6           0       -2.309581   -3.821214    1.220736
     13          6           0       -1.931277   -3.362058   -0.226410
     14          6           0       -0.527630   -3.960359   -0.761700
     15          8           0        0.041891   -4.977011   -0.491943
     16          8           0       -0.047574   -3.091518   -1.689484
     17          7           0       -3.476312    2.327216    1.729168
     18          6           0       -2.555788    1.937370    2.651941
     19          6           0       -1.870793    3.066724    3.127084
     20          6           0       -2.276292    4.260895    2.380903
     21          6           0       -3.322520    3.709382    1.495015
     22          6           0       -0.983396    2.891491    4.358448
     23          6           0       -1.760758    5.694422    2.543613
     24          8           0       -0.828921    5.902377    3.317327
     25          6           0       -2.315705    6.809671    1.757512
     26          7           0       -5.269216    2.595053   -0.783160
     27          6           0       -4.876940    3.911825   -0.579891
     28          6           0       -5.509458    4.873603   -1.621025
     29          6           0       -6.375339    3.881060   -2.542470
     30          6           0       -6.193103    2.520324   -1.808493
     31          6           0       -6.316786    6.031791   -0.844030
     32          6           0       -5.942451    3.863166   -4.057069
     33          6           0       -7.013030    4.317666   -5.031147
     34          7           0       -6.005828   -0.217285   -0.509113
     35          6           0       -6.792581    0.073300   -1.607459
     36          6           0       -7.371780   -1.154157   -2.079736
     37          6           0       -6.870649   -2.121699   -1.248684
     38          6           0       -5.924828   -1.547827   -0.394834
     39          6           0       -8.298854   -1.249152   -3.224334
     40          6           0       -6.870763   -3.533548   -0.974581
     41          8           0       -7.614636   -4.374550   -1.430215
     42          6           0       -5.776449   -3.807612    0.128944
     43          6           0       -6.420989   -4.539095    1.276421
     44          8           0       -6.715854   -5.733011    1.235652
     45          8           0       -6.728253   -3.625714    2.332527
     46          6           0       -7.487607   -4.271517    3.379995
     47          6           0        1.228492   -3.487718   -2.396729
     48          6           0        2.275605   -2.394088   -2.040257
     49          6           0        3.309064   -1.880955   -2.829049
     50          6           0        3.784563   -2.533190   -4.109295
     51          6           0        4.111512   -0.654210   -2.342345
     52          6           0        5.463770   -1.029046   -1.650844
     53          6           0        6.691450   -0.443727   -2.329119
     54          6           0        7.317011    0.776058   -1.500915
     55          6           0        7.140425    2.147723   -2.232984
     56          6           0        8.835488    0.547936   -1.185563
     57          6           0        9.037914   -0.311208    0.084206
     58          6           0        9.897196    0.409086    1.182171
     59          6           0       11.268686   -0.417005    1.437048
     60          6           0       11.688279   -0.450538    2.942185
     61          6           0       12.461899    0.086167    0.565067
     62          6           0       13.790071   -0.718452    0.364914
     63          6           0       15.069898    0.081301    0.751319
     64          6           0       16.136804   -0.024646   -0.458980
     65          6           0       17.546461    0.098629    0.186823
     66          6           0       15.765181    1.175621   -1.382360
     67          1           0       -1.625916    0.463014    3.811083
     68          1           0       -3.930341    5.448030    0.376295
     69          1           0       -7.657152    1.526871   -2.981945
     70          1           0       -4.033511   -3.630659    2.601511
     71          1           0       -1.480948   -2.233857    2.957751
     72          1           0       -3.686635   -1.086174    4.738620
     73          1           0       -2.190733   -2.053012    5.189236
     74          1           0       -3.628154   -2.803152    4.764093
     75          1           0       -2.785036   -4.774761    0.987163
     76          1           0       -1.417125   -4.068795    1.796836
     77          1           0       -1.994410   -2.275637   -0.287702
     78          1           0       -2.711156   -3.631118   -0.939133
     79          1           0       -0.030619    2.395251    4.176380
     80          1           0       -1.546598    2.486445    5.199664
     81          1           0       -0.653129    3.855557    4.745249
     82          1           0       -3.359688    6.944209    2.043033
     83          1           0       -2.143673    6.481611    0.732853
     84          1           0       -1.825166    7.772472    1.897582
     85          1           0       -4.691212    5.304888   -2.198356
     86          1           0       -7.413331    4.210763   -2.499590
     87          1           0       -5.746446    6.947538   -0.995755
     88          1           0       -6.442814    5.815096    0.217728
     89          1           0       -7.313097    6.147602   -1.271322
     90          1           0       -5.836489    2.815341   -4.338534
     91          1           0       -5.007892    4.401854   -4.218624
     92          1           0       -6.704409    5.273703   -5.455879
     93          1           0       -8.036386    4.475020   -4.689475
     94          1           0       -7.032075    3.613174   -5.862076
     95          1           0       -7.768426   -0.792943   -4.059784
     96          1           0       -9.213927   -0.775372   -2.867973
     97          1           0       -8.424424   -2.222699   -3.698062
     98          1           0       -5.057704   -4.482548   -0.334567
     99          1           0       -6.803161   -4.641424    4.142766
    100          1           0       -8.114974   -5.077650    2.999696
    101          1           0       -8.141714   -3.531765    3.842168
    102          1           0        0.979304   -3.469643   -3.457695
    103          1           0        1.615284   -4.486036   -2.188859
    104          1           0        1.887289   -1.874898   -1.163421
    105          1           0        3.122348   -2.036423   -4.818621
    106          1           0        3.512588   -3.589026   -4.105711
    107          1           0        4.842788   -2.412999   -4.339459
    108          1           0        3.383867   -0.173426   -1.689480
    109          1           0        4.297567    0.082021   -3.123716
    110          1           0        5.592347   -2.110553   -1.595022
    111          1           0        5.365540   -0.605930   -0.651245
    112          1           0        6.507134   -0.152762   -3.363308
    113          1           0        7.511227   -1.160571   -2.356322
    114          1           0        6.842280    0.917037   -0.529872
    115          1           0        7.924721    2.259192   -2.981172
    116          1           0        7.323366    2.977860   -1.551537
    117          1           0        6.147391    2.204801   -2.678950
    118          1           0        9.276101    1.544134   -1.166046
    119          1           0        9.273751   -0.093499   -1.950293
    120          1           0        9.642785   -1.178499   -0.180828
    121          1           0        8.134622   -0.647570    0.592357
    122          1           0        9.279442    0.588510    2.061391
    123          1           0       10.124650    1.432427    0.884305
    124          1           0       11.104160   -1.485197    1.293839
    125          1           0       12.673550   -0.010778    3.093449
    126          1           0       11.774031   -1.467632    3.325121
    127          1           0       11.016319    0.169417    3.536013
    128          1           0       12.688860    1.135899    0.746552
    129          1           0       12.060833    0.109803   -0.448580
    130          1           0       13.761030   -1.077677   -0.664167
    131          1           0       13.722169   -1.616362    0.978784
    132          1           0       15.406012   -0.313822    1.709894
    133          1           0       14.914193    1.161011    0.746299
    134          1           0       16.145891   -0.963911   -1.012615
    135          1           0       17.682121   -0.947452    0.458539
    136          1           0       17.521562    0.624988    1.141521
    137          1           0       18.302325    0.547714   -0.458188
    138          1           0       14.759741    1.594900   -1.348335
    139          1           0       16.118657    0.958862   -2.391030
    140          1           0       16.422551    1.996330   -1.095282
 ---------------------------------------------------------------------

 SCF Done:  E(RPBE1PBE) =  -3005.34818127     A.U. after   15 cycles

 Excitation energies and oscillator strengths:

 Excited State   1:      Singlet-A      1.8557 eV  668.13 nm  f=0.3680  <S**2>=0.000
     245 -> 248        0.16799
     246 -> 247        0.69405
     246 <- 247       -0.11334
 This state for optimization and/or second-order correction.
 Total Energy, E(TD-HF/TD-DFT) =  -3005.27998546
 Copying the excited state density for this state as the 1-particle RhoCI density.

 Excited State   2:      Singlet-A      2.2096 eV  561.12 nm  f=0.1117  <S**2>=0.000
     245 -> 247        0.65459
     246 -> 248       -0.24224

 Excited State   3:      Singlet-A      2.8612 eV  433.33 nm  f=0.0034  <S**2>=0.000
     242 -> 247       -0.10681
     243 -> 247        0.68737

 Excited State   4:      Singlet-A      2.9312 eV  422.98 nm  f=0.0043  <S**2>=0.000
     240 -> 247        0.17891
     242 -> 247        0.64960

 Excited State   5:      Singlet-A      2.9611 eV  418.71 nm  f=0.0000  <S**2>=0.000
     244 -> 247        0.70674

 The electronic state is 1-A.
 Alpha  occ. eigenvalues --  -46.92977 -19.26114 -19.25255 -19.21030 -19.20174
 Alpha  occ. eigenvalues --  -19.19239 -19.18851 -14.42067 -14.42019 -14.39328
 Alpha  occ. eigenvalues --  -14.38972 -10.37179 -10.36583 -10.32472 -10.32114
 Alpha  occ. eigenvalues --  -10.29610 -10.29347 -10.29259 -10.29181 -10.29087
 Alpha  occ. eigenvalues --  -10.28689 -10.28464 -10.27586 -10.27042 -10.26920
 Alpha  occ. eigenvalues --  -10.26880 -10.26440 -10.26391 -10.26354 -10.26057
 Alpha  occ. eigenvalues --  -10.26026 -10.26012 -10.25762 -10.25543 -10.25384
 Alpha  occ. eigenvalues --  -10.25237 -10.25140 -10.24974 -10.24864 -10.24683
 Alpha  occ. eigenvalues --  -10.24499 -10.24432 -10.23860 -10.23829 -10.23726
 Alpha  occ. eigenvalues --  -10.23703 -10.23600 -10.23477 -10.23418 -10.23353
 Alpha  occ. eigenvalues --  -10.23198 -10.23151 -10.22799 -10.22795 -10.22704
 Alpha  occ. eigenvalues --  -10.22566 -10.22539 -10.22411 -10.22229 -10.22131
 Alpha  occ. eigenvalues --  -10.22112 -10.21998 -10.21772 -10.21766 -10.21708
 Alpha  occ. eigenvalues --  -10.21072  -3.14922  -1.87748  -1.87307  -1.87131
 Alpha  occ. eigenvalues --   -1.11365  -1.10106  -1.05209  -1.04405  -1.02841
 Alpha  occ. eigenvalues --   -1.02663  -0.99305  -0.98544  -0.97318  -0.96549
 Alpha  occ. eigenvalues --   -0.87087  -0.83683  -0.83293  -0.83079  -0.82682
 Alpha  occ. eigenvalues --   -0.82534  -0.82023  -0.81920  -0.81428  -0.80555
 Alpha  occ. eigenvalues --   -0.79856  -0.79352  -0.78372  -0.78153  -0.77621
 Alpha  occ. eigenvalues --   -0.76776  -0.76173  -0.75760  -0.74785  -0.74655
 Alpha  occ. eigenvalues --   -0.73658  -0.72581  -0.71865  -0.71381  -0.70652
 Alpha  occ. eigenvalues --   -0.70066  -0.69579  -0.69425  -0.68263  -0.67797
 Alpha  occ. eigenvalues --   -0.67638  -0.66511  -0.66202  -0.64320  -0.63491
 Alpha  occ. eigenvalues --   -0.63263  -0.61918  -0.61711  -0.60615  -0.60148
 Alpha  occ. eigenvalues --   -0.60016  -0.59515  -0.59341  -0.59093  -0.57744
 Alpha  occ. eigenvalues --   -0.57405  -0.57215  -0.57133  -0.56828  -0.54606
 Alpha  occ. eigenvalues --   -0.54231  -0.54114  -0.53443  -0.52908  -0.52627
 Alpha  occ. eigenvalues --   -0.52101  -0.51343  -0.50734  -0.50488  -0.50217
 Alpha  occ. eigenvalues --   -0.49250  -0.49064  -0.48871  -0.48428  -0.48253
 Alpha  occ. eigenvalues --   -0.48157  -0.47735  -0.47710  -0.47523  -0.47488
 Alpha  occ. eigenvalues --   -0.47316  -0.47271  -0.46922  -0.46448  -0.46167
 Alpha  occ. eigenvalues --   -0.45687  -0.45424  -0.45392  -0.45249  -0.45138
 Alpha  occ. eigenvalues --   -0.44966  -0.44771  -0.44568  -0.44534  -0.44368
 Alpha  occ. eigenvalues --   -0.44202  -0.44006  -0.43827  -0.43522  -0.43381
 Alpha  occ. eigenvalues --   -0.43265  -0.43186  -0.42619  -0.42341  -0.42164
 Alpha  occ. eigenvalues --   -0.41929  -0.41841  -0.41593  -0.41504  -0.41341
 Alpha  occ. eigenvalues --   -0.41235  -0.40978  -0.40902  -0.40576  -0.40281
 Alpha  occ. eigenvalues --   -0.39938  -0.39898  -0.39828  -0.39683  -0.39665
 Alpha  occ. eigenvalues --   -0.39523  -0.39402  -0.39244  -0.39090  -0.38699
 Alpha  occ. eigenvalues --   -0.38410  -0.38358  -0.38042  -0.37890  -0.37836
 Alpha  occ. eigenvalues --   -0.37650  -0.37450  -0.37354  -0.37122  -0.36888
 Alpha  occ. eigenvalues --   -0.36783  -0.36765  -0.36504  -0.36277  -0.36176
 Alpha  occ. eigenvalues --   -0.35562  -0.35493  -0.35352  -0.35097  -0.34663
 Alpha  occ. eigenvalues --   -0.34588  -0.34055  -0.33823  -0.33524  -0.33364
 Alpha  occ. eigenvalues --   -0.33199  -0.33033  -0.32839  -0.32673  -0.32152
 Alpha  occ. eigenvalues --   -0.32146  -0.31963  -0.31832  -0.31732  -0.31586
 Alpha  occ. eigenvalues --   -0.30746  -0.30406  -0.30104  -0.29772  -0.29634
 Alpha  occ. eigenvalues --   -0.29243  -0.28771  -0.28593  -0.27345  -0.26000
 Alpha  occ. eigenvalues --   -0.25772  -0.25535  -0.25170  -0.24027  -0.21365
 Alpha  occ. eigenvalues --   -0.19219
 Alpha virt. eigenvalues --   -0.11704  -0.05461  -0.03911  -0.02276  -0.01111
 Alpha virt. eigenvalues --   -0.00129   0.00745   0.01183   0.01996   0.03070
 Alpha virt. eigenvalues --    0.03758   0.04564   0.04815   0.05840   0.06035

 Mulliken charges:
               1
     1  Mg   0.957491
     2  C    0.047437
     3  C   -0.058338
     4  C   -0.061410
     5  C   -0.069350
     6  N   -0.375786
     7  C   -0.013451
     8  C   -0.056709
     9  C   -0.114873
    10  C    0.089535
    11  C    0.011377
    12  C   -0.028998
    13  C   -0.076437
    14  C    0.246444
    15  O   -0.233230
    16  O   -0.369272
    17  N   -0.504981
    18  C    0.158583
    19  C   -0.154624
    20  C   -0.092152
    21  C    0.186534
    22  C    0.038643
    23  C    0.041650
    24  O   -0.236007
    25  C   -0.004653
    26  N   -0.405835
    27  C    0.043481
    28  C   -0.121582
    29  C   -0.083192
    30  C    0.080208
    31  C   -0.014119
    32  C   -0.017075
    33  C   -0.086716
    34  N   -0.448521
    35  C    0.138403
    36  C   -0.232394
    37  C    0.024348
    38  C    0.094961
    39  C    0.076797
    40  C    0.101263
    41  O   -0.187524
    42  C   -0.121215
    43  C    0.300285
    44  O   -0.233592
    45  O   -0.389475
    46  C    0.117741
    47  C    0.198911
    48  C   -0.123437
    49  C   -0.245272
    50  C    0.014968
    51  C    0.012157
    52  C   -0.022787
    53  C    0.001952
    54  C   -0.234313
    55  C   -0.025230
    56  C   -0.008197
    57  C   -0.051981
    58  C   -0.013721
    59  C   -0.207701
    60  C   -0.018980
    61  C   -0.038050
    62  C   -0.010519
    63  C   -0.038331
    64  C   -0.265995
    65  C   -0.014471
    66  C   -0.023697
    67  H    0.007616
    68  H   -0.015760
    69  H    0.011737
    70  H    0.053405
    71  H    0.047591
    72  H    0.059025
    73  H    0.046712
    74  H    0.031937
    75  H    0.052378
    76  H    0.057564
    77  H    0.072210
    78  H    0.067576
    79  H    0.054745
    80  H    0.052959
    81  H    0.048366
    82  H    0.071475
    83  H    0.071820
    84  H    0.053344
    85  H    0.056112
    86  H    0.044443
    87  H    0.051252
    88  H    0.059924
    89  H    0.044971
    90  H    0.046541
    91  H    0.046459
    92  H    0.037779
    93  H    0.043920
    94  H    0.042012
    95  H    0.042823
    96  H    0.071564
    97  H    0.051533
    98  H    0.082951
    99  H    0.048223
   100  H    0.072324
   101  H    0.051748
   102  H    0.052045
   103  H    0.081539
   104  H    0.036843
   105  H    0.060668
   106  H    0.042693
   107  H    0.056622
   108  H    0.029674
   109  H    0.030577
   110  H    0.044070
   111  H    0.043246
   112  H    0.028917
   113  H    0.020796
   114  H    0.035977
   115  H    0.032085
   116  H    0.034786
   117  H    0.037826
   118  H    0.031681
   119  H    0.029731
   120  H    0.032834
   121  H    0.039842
   122  H    0.024005
   123  H    0.022849
   124  H    0.034918
   125  H    0.023504
   126  H    0.034642
   127  H    0.030252
   128  H    0.024918
   129  H    0.015717
   130  H    0.034562
   131  H    0.024302
   132  H    0.038917
   133  H    0.039703
   134  H    0.042525
   135  H    0.037049
   136  H    0.034389
   137  H    0.040609
   138  H    0.049659
   139  H    0.033119
   140  H    0.023658
 Sum of Mulliken charges =  -0.00000

 Dipole moment (field-independent basis, Debye):
    X=             -0.4827    Y=              5.7908    Z=             -1.2827  Tot=              5.9507
 Quadrupole moment (field-independent basis, Debye-Ang):
   XX=           -390.6547   YY=           -434.1986   ZZ=           -380.8979
   XY=            -57.9381   XZ=            -15.0760   YZ=            -26.8513

 Normal termination of Gaussian 16 at Thu May  5 07:56:00 2022.
