 Gaussian 16, Revision A.03,
 Gaussian 16:  ES64L-G16RevA.03 25-Dec-2016

 --------------------------------
 #p wB97XD/Def2SVP td=(nstates=5)
 --------------------------------

 ---------------------------------------------------
 step_751_chromophore_2 TDDFT with wB97XD functional
 ---------------------------------------------------
 Symbolic Z-matrix:
 Charge =  0 Multiplicity = 1

                         Standard orientation:
 ---------------------------------------------------------------------
 Center     Atomic      Atomic             Coordinates (Angstroms)
 Number     Number       Type             X           Y           Z
 ---------------------------------------------------------------------
      1         12           0       -4.819696    1.084594    0.705384
      2          6           0       -5.158314   -2.423685    0.431337
      3          6           0       -2.326897    0.581047    2.982344
      4          6           0       -4.036180    4.362817    0.439366
      5          6           0       -6.920400    1.378704   -2.189775
      6          7           0       -3.695747   -0.687488    1.442727
      7          6           0       -4.124362   -2.020627    1.283055
      8          6           0       -3.321290   -2.965130    2.112737
      9          6           0       -2.535863   -1.970341    3.042558
     10          6           0       -2.818006   -0.579582    2.417783
     11          6           0       -3.032957   -1.926942    4.507870
     12          6           0       -2.309581   -3.821214    1.220736
     13          6           0       -1.931277   -3.362058   -0.226410
     14          6           0       -0.527630   -3.960359   -0.761700
     15          8           0        0.041891   -4.977011   -0.491943
     16          8           0       -0.047574   -3.091518   -1.689484
     17          7           0       -3.476312    2.327216    1.729168
     18          6           0       -2.555788    1.937370    2.651941
     19          6           0       -1.870793    3.066724    3.127084
     20          6           0       -2.276292    4.260895    2.380903
     21          6           0       -3.322520    3.709382    1.495015
     22          6           0       -0.983396    2.891491    4.358448
     23          6           0       -1.760758    5.694422    2.543613
     24          8           0       -0.828921    5.902377    3.317327
     25          6           0       -2.315705    6.809671    1.757512
     26          7           0       -5.269216    2.595053   -0.783160
     27          6           0       -4.876940    3.911825   -0.579891
     28          6           0       -5.509458    4.873603   -1.621025
     29          6           0       -6.375339    3.881060   -2.542470
     30          6           0       -6.193103    2.520324   -1.808493
     31          6           0       -6.316786    6.031791   -0.844030
     32          6           0       -5.942451    3.863166   -4.057069
     33          6           0       -7.013030    4.317666   -5.031147
     34          7           0       -6.005828   -0.217285   -0.509113
     35          6           0       -6.792581    0.073300   -1.607459
     36          6           0       -7.371780   -1.154157   -2.079736
     37          6           0       -6.870649   -2.121699   -1.248684
     38          6           0       -5.924828   -1.547827   -0.394834
     39          6           0       -8.298854   -1.249152   -3.224334
     40          6           0       -6.870763   -3.533548   -0.974581
     41          8           0       -7.614636   -4.374550   -1.430215
     42          6           0       -5.776449   -3.807612    0.128944
     43          6           0       -6.420989   -4.539095    1.276421
     44          8           0       -6.715854   -5.733011    1.235652
     45          8           0       -6.728253   -3.625714    2.332527
     46          6           0       -7.487607   -4.271517    3.379995
     47          6           0        1.228492   -3.487718   -2.396729
     48          6           0        2.275605   -2.394088   -2.040257
     49          6           0        3.309064   -1.880955   -2.829049
     50          6           0        3.784563   -2.533190   -4.109295
     51          6           0        4.111512   -0.654210   -2.342345
     52          6           0        5.463770   -1.029046   -1.650844
     53          6           0        6.691450   -0.443727   -2.329119
     54          6           0        7.317011    0.776058   -1.500915
     55          6           0        7.140425    2.147723   -2.232984
     56          6           0        8.835488    0.547936   -1.185563
     57          6           0        9.037914   -0.311208    0.084206
     58          6           0        9.897196    0.409086    1.182171
     59          6           0       11.268686   -0.417005    1.437048
     60          6           0       11.688279   -0.450538    2.942185
     61          6           0       12.461899    0.086167    0.565067
     62          6           0       13.790071   -0.718452    0.364914
     63          6           0       15.069898    0.081301    0.751319
     64          6           0       16.136804   -0.024646   -0.458980
     65          6           0       17.546461    0.098629    0.186823
     66          6           0       15.765181    1.175621   -1.382360
     67          1           0       -1.625916    0.463014    3.811083
     68          1           0       -3.930341    5.448030    0.376295
     69          1           0       -7.657152    1.526871   -2.981945
     70          1           0       -4.033511   -3.630659    2.601511
     71          1           0       -1.480948   -2.233857    2.957751
     72          1           0       -3.686635   -1.086174    4.738620
     73          1           0       -2.190733   -2.053012    5.189236
     74          1           0       -3.628154   -2.803152    4.764093
     75          1           0       -2.785036   -4.774761    0.987163
     76          1           0       -1.417125   -4.068795    1.796836
     77          1           0       -1.994410   -2.275637   -0.287702
     78          1           0       -2.711156   -3.631118   -0.939133
     79          1           0       -0.030619    2.395251    4.176380
     80          1           0       -1.546598    2.486445    5.199664
     81          1           0       -0.653129    3.855557    4.745249
     82          1           0       -3.359688    6.944209    2.043033
     83          1           0       -2.143673    6.481611    0.732853
     84          1           0       -1.825166    7.772472    1.897582
     85          1           0       -4.691212    5.304888   -2.198356
     86          1           0       -7.413331    4.210763   -2.499590
     87          1           0       -5.746446    6.947538   -0.995755
     88          1           0       -6.442814    5.815096    0.217728
     89          1           0       -7.313097    6.147602   -1.271322
     90          1           0       -5.836489    2.815341   -4.338534
     91          1           0       -5.007892    4.401854   -4.218624
     92          1           0       -6.704409    5.273703   -5.455879
     93          1           0       -8.036386    4.475020   -4.689475
     94          1           0       -7.032075    3.613174   -5.862076
     95          1           0       -7.768426   -0.792943   -4.059784
     96          1           0       -9.213927   -0.775372   -2.867973
     97          1           0       -8.424424   -2.222699   -3.698062
     98          1           0       -5.057704   -4.482548   -0.334567
     99          1           0       -6.803161   -4.641424    4.142766
    100          1           0       -8.114974   -5.077650    2.999696
    101          1           0       -8.141714   -3.531765    3.842168
    102          1           0        0.979304   -3.469643   -3.457695
    103          1           0        1.615284   -4.486036   -2.188859
    104          1           0        1.887289   -1.874898   -1.163421
    105          1           0        3.122348   -2.036423   -4.818621
    106          1           0        3.512588   -3.589026   -4.105711
    107          1           0        4.842788   -2.412999   -4.339459
    108          1           0        3.383867   -0.173426   -1.689480
    109          1           0        4.297567    0.082021   -3.123716
    110          1           0        5.592347   -2.110553   -1.595022
    111          1           0        5.365540   -0.605930   -0.651245
    112          1           0        6.507134   -0.152762   -3.363308
    113          1           0        7.511227   -1.160571   -2.356322
    114          1           0        6.842280    0.917037   -0.529872
    115          1           0        7.924721    2.259192   -2.981172
    116          1           0        7.323366    2.977860   -1.551537
    117          1           0        6.147391    2.204801   -2.678950
    118          1           0        9.276101    1.544134   -1.166046
    119          1           0        9.273751   -0.093499   -1.950293
    120          1           0        9.642785   -1.178499   -0.180828
    121          1           0        8.134622   -0.647570    0.592357
    122          1           0        9.279442    0.588510    2.061391
    123          1           0       10.124650    1.432427    0.884305
    124          1           0       11.104160   -1.485197    1.293839
    125          1           0       12.673550   -0.010778    3.093449
    126          1           0       11.774031   -1.467632    3.325121
    127          1           0       11.016319    0.169417    3.536013
    128          1           0       12.688860    1.135899    0.746552
    129          1           0       12.060833    0.109803   -0.448580
    130          1           0       13.761030   -1.077677   -0.664167
    131          1           0       13.722169   -1.616362    0.978784
    132          1           0       15.406012   -0.313822    1.709894
    133          1           0       14.914193    1.161011    0.746299
    134          1           0       16.145891   -0.963911   -1.012615
    135          1           0       17.682121   -0.947452    0.458539
    136          1           0       17.521562    0.624988    1.141521
    137          1           0       18.302325    0.547714   -0.458188
    138          1           0       14.759741    1.594900   -1.348335
    139          1           0       16.118657    0.958862   -2.391030
    140          1           0       16.422551    1.996330   -1.095282
 ---------------------------------------------------------------------

 SCF Done:  E(RwB97XD) =  -3007.85757653     A.U. after   19 cycles

 Excitation energies and oscillator strengths:

 Excited State   1:      Singlet-A      1.6336 eV  758.96 nm  f=0.3806  <S**2>=0.000
     245 -> 248        0.17943
     246 -> 247        0.68453
     245 <- 248        0.11592
 This state for optimization and/or second-order correction.
 Total Energy, E(TD-HF/TD-DFT) =  -3007.79754271
 Copying the excited state density for this state as the 1-particle RhoCI density.

 Excited State   2:      Singlet-A      2.1430 eV  578.56 nm  f=0.1183  <S**2>=0.000
     245 -> 247        0.64336
     246 -> 248       -0.27041

 Excited State   3:      Singlet-A      3.1860 eV  389.15 nm  f=0.0015  <S**2>=0.000
     242 -> 247       -0.13442
     243 -> 247        0.66768
     246 -> 248       -0.11985

 Excited State   4:      Singlet-A      3.3796 eV  366.86 nm  f=0.0074  <S**2>=0.000
     242 -> 247        0.61481
     243 -> 247        0.16110
     246 -> 248        0.22967

 Excited State   5:      Singlet-A      3.5650 eV  347.79 nm  f=0.0086  <S**2>=0.000
     240 -> 247        0.52730
     240 -> 248       -0.18414
     240 -> 249        0.29592
     240 -> 250        0.24166

 The electronic state is 1-A.
 Alpha  occ. eigenvalues --  -46.95937 -19.30672 -19.29761 -19.25735 -19.24810
 Alpha  occ. eigenvalues --  -19.23931 -19.23774 -14.47157 -14.47148 -14.44357
 Alpha  occ. eigenvalues --  -14.43832 -10.44019 -10.43333 -10.39404 -10.38870
 Alpha  occ. eigenvalues --  -10.36076 -10.35764 -10.35649 -10.35413 -10.35380
 Alpha  occ. eigenvalues --  -10.35128 -10.34960 -10.33681 -10.33589 -10.33301
 Alpha  occ. eigenvalues --  -10.33116 -10.32702 -10.32664 -10.32618 -10.32537
 Alpha  occ. eigenvalues --  -10.32300 -10.32299 -10.32292 -10.31949 -10.31740
 Alpha  occ. eigenvalues --  -10.31577 -10.31444 -10.31387 -10.31181 -10.31086
 Alpha  occ. eigenvalues --  -10.30938 -10.30761 -10.30474 -10.30147 -10.30121
 Alpha  occ. eigenvalues --  -10.29986 -10.29983 -10.29872 -10.29807 -10.29627
 Alpha  occ. eigenvalues --  -10.29589 -10.29503 -10.29402 -10.29145 -10.29087
 Alpha  occ. eigenvalues --  -10.28920 -10.28913 -10.28794 -10.28496 -10.28484
 Alpha  occ. eigenvalues --  -10.28391 -10.28378 -10.28212 -10.28192 -10.28129
 Alpha  occ. eigenvalues --  -10.27508  -3.21763  -1.95334  -1.94892  -1.94716
 Alpha  occ. eigenvalues --   -1.18695  -1.17518  -1.12576  -1.11997  -1.10211
 Alpha  occ. eigenvalues --   -1.09961  -1.06655  -1.05854  -1.04803  -1.04000
 Alpha  occ. eigenvalues --   -0.94663  -0.91381  -0.90930  -0.90703  -0.90374
 Alpha  occ. eigenvalues --   -0.90136  -0.89708  -0.89478  -0.88983  -0.88240
 Alpha  occ. eigenvalues --   -0.87674  -0.87047  -0.86070  -0.85732  -0.85322
 Alpha  occ. eigenvalues --   -0.84497  -0.83833  -0.83401  -0.82407  -0.82282
 Alpha  occ. eigenvalues --   -0.81338  -0.80179  -0.79491  -0.79081  -0.78280
 Alpha  occ. eigenvalues --   -0.77768  -0.77278  -0.77037  -0.75957  -0.75472
 Alpha  occ. eigenvalues --   -0.75183  -0.74129  -0.73757  -0.71960  -0.71041
 Alpha  occ. eigenvalues --   -0.70746  -0.69518  -0.69350  -0.68256  -0.67694
 Alpha  occ. eigenvalues --   -0.67531  -0.67036  -0.66918  -0.66524  -0.65179
 Alpha  occ. eigenvalues --   -0.65090  -0.64903  -0.64554  -0.64463  -0.62055
 Alpha  occ. eigenvalues --   -0.61725  -0.61581  -0.60824  -0.60300  -0.60003
 Alpha  occ. eigenvalues --   -0.59623  -0.58796  -0.58118  -0.57952  -0.57674
 Alpha  occ. eigenvalues --   -0.56656  -0.56499  -0.56228  -0.55758  -0.55641
 Alpha  occ. eigenvalues --   -0.55592  -0.55257  -0.55054  -0.54958  -0.54906
 Alpha  occ. eigenvalues --   -0.54644  -0.54600  -0.54282  -0.53883  -0.53565
 Alpha  occ. eigenvalues --   -0.53053  -0.52809  -0.52643  -0.52617  -0.52514
 Alpha  occ. eigenvalues --   -0.52311  -0.52169  -0.51963  -0.51858  -0.51712
 Alpha  occ. eigenvalues --   -0.51533  -0.51316  -0.51146  -0.50810  -0.50639
 Alpha  occ. eigenvalues --   -0.50592  -0.50417  -0.49910  -0.49577  -0.49432
 Alpha  occ. eigenvalues --   -0.49197  -0.49099  -0.48850  -0.48777  -0.48591
 Alpha  occ. eigenvalues --   -0.48470  -0.48239  -0.48041  -0.47900  -0.47452
 Alpha  occ. eigenvalues --   -0.47180  -0.47043  -0.47004  -0.46879  -0.46801
 Alpha  occ. eigenvalues --   -0.46731  -0.46583  -0.46464  -0.46273  -0.45836
 Alpha  occ. eigenvalues --   -0.45615  -0.45520  -0.45188  -0.45065  -0.45033
 Alpha  occ. eigenvalues --   -0.44749  -0.44602  -0.44466  -0.44302  -0.44086
 Alpha  occ. eigenvalues --   -0.43873  -0.43808  -0.43536  -0.43374  -0.43217
 Alpha  occ. eigenvalues --   -0.42613  -0.42591  -0.42424  -0.42023  -0.41722
 Alpha  occ. eigenvalues --   -0.41628  -0.41110  -0.40757  -0.40592  -0.40381
 Alpha  occ. eigenvalues --   -0.40294  -0.40092  -0.39851  -0.39612  -0.39231
 Alpha  occ. eigenvalues --   -0.39224  -0.38927  -0.38835  -0.38804  -0.38617
 Alpha  occ. eigenvalues --   -0.37730  -0.37398  -0.37131  -0.36602  -0.36530
 Alpha  occ. eigenvalues --   -0.36289  -0.35411  -0.35407  -0.33912  -0.33077
 Alpha  occ. eigenvalues --   -0.32840  -0.32113  -0.31869  -0.30751  -0.26376
 Alpha  occ. eigenvalues --   -0.23383
 Alpha virt. eigenvalues --   -0.07660  -0.00028   0.02390   0.04252   0.04840
 Alpha virt. eigenvalues --    0.06634   0.07439   0.07860   0.08911   0.09719
 Alpha virt. eigenvalues --    0.10319   0.11237   0.11472   0.12529   0.12825

 Mulliken charges:
               1
     1  Mg   0.950608
     2  C    0.044031
     3  C   -0.075941
     4  C   -0.070512
     5  C   -0.087575
     6  N   -0.339314
     7  C   -0.040129
     8  C   -0.033180
     9  C   -0.089298
    10  C    0.075171
    11  C    0.020771
    12  C   -0.022649
    13  C   -0.052286
    14  C    0.235747
    15  O   -0.231014
    16  O   -0.368759
    17  N   -0.475410
    18  C    0.150702
    19  C   -0.147803
    20  C   -0.088351
    21  C    0.183435
    22  C    0.050782
    23  C    0.039450
    24  O   -0.230561
    25  C    0.008481
    26  N   -0.375497
    27  C    0.034754
    28  C   -0.099947
    29  C   -0.059842
    30  C    0.068782
    31  C   -0.001490
    32  C   -0.001778
    33  C   -0.072549
    34  N   -0.410187
    35  C    0.124891
    36  C   -0.220460
    37  C    0.028291
    38  C    0.074738
    39  C    0.084815
    40  C    0.078835
    41  O   -0.178833
    42  C   -0.084789
    43  C    0.282467
    44  O   -0.229883
    45  O   -0.389458
    46  C    0.132954
    47  C    0.212151
    48  C   -0.133612
    49  C   -0.226847
    50  C    0.026165
    51  C    0.029209
    52  C   -0.006852
    53  C    0.014442
    54  C   -0.206827
    55  C   -0.009963
    56  C    0.010026
    57  C   -0.035340
    58  C   -0.003528
    59  C   -0.175669
    60  C   -0.007506
    61  C   -0.020754
    62  C    0.001104
    63  C   -0.019427
    64  C   -0.238023
    65  C   -0.002630
    66  C   -0.011377
    67  H    0.002023
    68  H   -0.030264
    69  H    0.007081
    70  H    0.040046
    71  H    0.039145
    72  H    0.052364
    73  H    0.041728
    74  H    0.026455
    75  H    0.043924
    76  H    0.050526
    77  H    0.061242
    78  H    0.058777
    79  H    0.051106
    80  H    0.048332
    81  H    0.044364
    82  H    0.066379
    83  H    0.065607
    84  H    0.053101
    85  H    0.046277
    86  H    0.031452
    87  H    0.045728
    88  H    0.052939
    89  H    0.039974
    90  H    0.036645
    91  H    0.039748
    92  H    0.031272
    93  H    0.038277
    94  H    0.036642
    95  H    0.036081
    96  H    0.066592
    97  H    0.048505
    98  H    0.075406
    99  H    0.043770
   100  H    0.068028
   101  H    0.047991
   102  H    0.047414
   103  H    0.077946
   104  H    0.032425
   105  H    0.054395
   106  H    0.037360
   107  H    0.052163
   108  H    0.022462
   109  H    0.021366
   110  H    0.036559
   111  H    0.034411
   112  H    0.019988
   113  H    0.011639
   114  H    0.021767
   115  H    0.024854
   116  H    0.028889
   117  H    0.030986
   118  H    0.021981
   119  H    0.020211
   120  H    0.022303
   121  H    0.031574
   122  H    0.017445
   123  H    0.013043
   124  H    0.022479
   125  H    0.015359
   126  H    0.029810
   127  H    0.024119
   128  H    0.014254
   129  H    0.003558
   130  H    0.026785
   131  H    0.016189
   132  H    0.031878
   133  H    0.026875
   134  H    0.033052
   135  H    0.030134
   136  H    0.027522
   137  H    0.036107
   138  H    0.042535
   139  H    0.027704
   140  H    0.016236
 Sum of Mulliken charges =  -0.00000

 Dipole moment (field-independent basis, Debye):
    X=             -0.2896    Y=              6.0388    Z=             -1.0200  Tot=              6.1311
 Quadrupole moment (field-independent basis, Debye-Ang):
   XX=           -392.1267   YY=           -433.3186   ZZ=           -380.3042
   XY=            -58.3933   XZ=            -16.5121   YZ=            -26.1490

 Normal termination of Gaussian 16 at Thu May  5 08:36:15 2022.
