 Gaussian 16, Revision A.03,
 Gaussian 16:  ES64L-G16RevA.03 25-Dec-2016

 --------------------
 #p ZINDO=(nstates=5)
 --------------------

 ----------------------------
 step_751_chromophore_2 ZINDO
 ----------------------------
 Symbolic Z-matrix:
 Charge =  0 Multiplicity = 1

                         Standard orientation:
 ---------------------------------------------------------------------
 Center     Atomic      Atomic             Coordinates (Angstroms)
 Number     Number       Type             X           Y           Z
 ---------------------------------------------------------------------
      1         12           0       -4.819696    1.084594    0.705384
      2          6           0       -5.158314   -2.423685    0.431337
      3          6           0       -2.326897    0.581047    2.982344
      4          6           0       -4.036180    4.362817    0.439366
      5          6           0       -6.920400    1.378704   -2.189775
      6          7           0       -3.695747   -0.687488    1.442727
      7          6           0       -4.124362   -2.020627    1.283055
      8          6           0       -3.321290   -2.965130    2.112737
      9          6           0       -2.535863   -1.970341    3.042558
     10          6           0       -2.818006   -0.579582    2.417783
     11          6           0       -3.032957   -1.926942    4.507870
     12          6           0       -2.309581   -3.821214    1.220736
     13          6           0       -1.931277   -3.362058   -0.226410
     14          6           0       -0.527630   -3.960359   -0.761700
     15          8           0        0.041891   -4.977011   -0.491943
     16          8           0       -0.047574   -3.091518   -1.689484
     17          7           0       -3.476312    2.327216    1.729168
     18          6           0       -2.555788    1.937370    2.651941
     19          6           0       -1.870793    3.066724    3.127084
     20          6           0       -2.276292    4.260895    2.380903
     21          6           0       -3.322520    3.709382    1.495015
     22          6           0       -0.983396    2.891491    4.358448
     23          6           0       -1.760758    5.694422    2.543613
     24          8           0       -0.828921    5.902377    3.317327
     25          6           0       -2.315705    6.809671    1.757512
     26          7           0       -5.269216    2.595053   -0.783160
     27          6           0       -4.876940    3.911825   -0.579891
     28          6           0       -5.509458    4.873603   -1.621025
     29          6           0       -6.375339    3.881060   -2.542470
     30          6           0       -6.193103    2.520324   -1.808493
     31          6           0       -6.316786    6.031791   -0.844030
     32          6           0       -5.942451    3.863166   -4.057069
     33          6           0       -7.013030    4.317666   -5.031147
     34          7           0       -6.005828   -0.217285   -0.509113
     35          6           0       -6.792581    0.073300   -1.607459
     36          6           0       -7.371780   -1.154157   -2.079736
     37          6           0       -6.870649   -2.121699   -1.248684
     38          6           0       -5.924828   -1.547827   -0.394834
     39          6           0       -8.298854   -1.249152   -3.224334
     40          6           0       -6.870763   -3.533548   -0.974581
     41          8           0       -7.614636   -4.374550   -1.430215
     42          6           0       -5.776449   -3.807612    0.128944
     43          6           0       -6.420989   -4.539095    1.276421
     44          8           0       -6.715854   -5.733011    1.235652
     45          8           0       -6.728253   -3.625714    2.332527
     46          6           0       -7.487607   -4.271517    3.379995
     47          6           0        1.228492   -3.487718   -2.396729
     48          6           0        2.275605   -2.394088   -2.040257
     49          6           0        3.309064   -1.880955   -2.829049
     50          6           0        3.784563   -2.533190   -4.109295
     51          6           0        4.111512   -0.654210   -2.342345
     52          6           0        5.463770   -1.029046   -1.650844
     53          6           0        6.691450   -0.443727   -2.329119
     54          6           0        7.317011    0.776058   -1.500915
     55          6           0        7.140425    2.147723   -2.232984
     56          6           0        8.835488    0.547936   -1.185563
     57          6           0        9.037914   -0.311208    0.084206
     58          6           0        9.897196    0.409086    1.182171
     59          6           0       11.268686   -0.417005    1.437048
     60          6           0       11.688279   -0.450538    2.942185
     61          6           0       12.461899    0.086167    0.565067
     62          6           0       13.790071   -0.718452    0.364914
     63          6           0       15.069898    0.081301    0.751319
     64          6           0       16.136804   -0.024646   -0.458980
     65          6           0       17.546461    0.098629    0.186823
     66          6           0       15.765181    1.175621   -1.382360
     67          1           0       -1.625916    0.463014    3.811083
     68          1           0       -3.930341    5.448030    0.376295
     69          1           0       -7.657152    1.526871   -2.981945
     70          1           0       -4.033511   -3.630659    2.601511
     71          1           0       -1.480948   -2.233857    2.957751
     72          1           0       -3.686635   -1.086174    4.738620
     73          1           0       -2.190733   -2.053012    5.189236
     74          1           0       -3.628154   -2.803152    4.764093
     75          1           0       -2.785036   -4.774761    0.987163
     76          1           0       -1.417125   -4.068795    1.796836
     77          1           0       -1.994410   -2.275637   -0.287702
     78          1           0       -2.711156   -3.631118   -0.939133
     79          1           0       -0.030619    2.395251    4.176380
     80          1           0       -1.546598    2.486445    5.199664
     81          1           0       -0.653129    3.855557    4.745249
     82          1           0       -3.359688    6.944209    2.043033
     83          1           0       -2.143673    6.481611    0.732853
     84          1           0       -1.825166    7.772472    1.897582
     85          1           0       -4.691212    5.304888   -2.198356
     86          1           0       -7.413331    4.210763   -2.499590
     87          1           0       -5.746446    6.947538   -0.995755
     88          1           0       -6.442814    5.815096    0.217728
     89          1           0       -7.313097    6.147602   -1.271322
     90          1           0       -5.836489    2.815341   -4.338534
     91          1           0       -5.007892    4.401854   -4.218624
     92          1           0       -6.704409    5.273703   -5.455879
     93          1           0       -8.036386    4.475020   -4.689475
     94          1           0       -7.032075    3.613174   -5.862076
     95          1           0       -7.768426   -0.792943   -4.059784
     96          1           0       -9.213927   -0.775372   -2.867973
     97          1           0       -8.424424   -2.222699   -3.698062
     98          1           0       -5.057704   -4.482548   -0.334567
     99          1           0       -6.803161   -4.641424    4.142766
    100          1           0       -8.114974   -5.077650    2.999696
    101          1           0       -8.141714   -3.531765    3.842168
    102          1           0        0.979304   -3.469643   -3.457695
    103          1           0        1.615284   -4.486036   -2.188859
    104          1           0        1.887289   -1.874898   -1.163421
    105          1           0        3.122348   -2.036423   -4.818621
    106          1           0        3.512588   -3.589026   -4.105711
    107          1           0        4.842788   -2.412999   -4.339459
    108          1           0        3.383867   -0.173426   -1.689480
    109          1           0        4.297567    0.082021   -3.123716
    110          1           0        5.592347   -2.110553   -1.595022
    111          1           0        5.365540   -0.605930   -0.651245
    112          1           0        6.507134   -0.152762   -3.363308
    113          1           0        7.511227   -1.160571   -2.356322
    114          1           0        6.842280    0.917037   -0.529872
    115          1           0        7.924721    2.259192   -2.981172
    116          1           0        7.323366    2.977860   -1.551537
    117          1           0        6.147391    2.204801   -2.678950
    118          1           0        9.276101    1.544134   -1.166046
    119          1           0        9.273751   -0.093499   -1.950293
    120          1           0        9.642785   -1.178499   -0.180828
    121          1           0        8.134622   -0.647570    0.592357
    122          1           0        9.279442    0.588510    2.061391
    123          1           0       10.124650    1.432427    0.884305
    124          1           0       11.104160   -1.485197    1.293839
    125          1           0       12.673550   -0.010778    3.093449
    126          1           0       11.774031   -1.467632    3.325121
    127          1           0       11.016319    0.169417    3.536013
    128          1           0       12.688860    1.135899    0.746552
    129          1           0       12.060833    0.109803   -0.448580
    130          1           0       13.761030   -1.077677   -0.664167
    131          1           0       13.722169   -1.616362    0.978784
    132          1           0       15.406012   -0.313822    1.709894
    133          1           0       14.914193    1.161011    0.746299
    134          1           0       16.145891   -0.963911   -1.012615
    135          1           0       17.682121   -0.947452    0.458539
    136          1           0       17.521562    0.624988    1.141521
    137          1           0       18.302325    0.547714   -0.458188
    138          1           0       14.759741    1.594900   -1.348335
    139          1           0       16.118657    0.958862   -2.391030
    140          1           0       16.422551    1.996330   -1.095282
 ---------------------------------------------------------------------

 SCF Done:  E(RZINDO/S) =  -473.840178943     A.U. after   20 cycles

 Excitation energies and oscillator strengths:

 Excited State   1:      Singlet-A      1.2199 eV 1016.31 nm  f=0.6151  <S**2>=0.000
     175 ->178         0.18660
     176 ->177         0.66397
 This state for optimization and/or second-order correction.
 Total Energy, E(CIS/TDA) =  -473.795346677
 Copying the excited state density for this state as the 1-particle RhoCI density.

 Excited State   2:      Singlet-A      1.8995 eV  652.70 nm  f=0.0531  <S**2>=0.000
     175 ->177         0.55715
     176 ->178        -0.40686

 Excited State   3:      Singlet-A      2.9613 eV  418.68 nm  f=0.2335  <S**2>=0.000
     170 ->177         0.23476
     170 ->179         0.30279
     170 ->180         0.19851
     170 ->182        -0.12528
     170 ->186        -0.15549
     170 ->187         0.12454
     170 ->201        -0.10741
     171 ->177        -0.12604
     172 ->177         0.20511
     175 ->177        -0.17972
     176 ->178        -0.28690

 Excited State   4:      Singlet-A      2.9929 eV  414.27 nm  f=0.0011  <S**2>=0.000
     168 ->177         0.29060
     168 ->178        -0.20398
     168 ->179        -0.32674
     168 ->180         0.28157
     168 ->181         0.12331
     168 ->182        -0.13511
     168 ->183         0.13519
     168 ->186         0.23916
     168 ->187         0.11671

 Excited State   5:      Singlet-A      3.0045 eV  412.66 nm  f=0.6259  <S**2>=0.000
     170 ->177         0.17770
     170 ->179         0.20368
     170 ->180         0.13883
     170 ->186        -0.10877
     171 ->177         0.20101
     172 ->177        -0.12706
     173 ->177         0.12667
     175 ->177         0.26954
     176 ->178         0.41140

 The electronic state is 1-A.
 Alpha  occ. eigenvalues --   -1.85197  -1.81177  -1.77826  -1.71771  -1.71088
 Alpha  occ. eigenvalues --   -1.70099  -1.62802  -1.59388  -1.59250  -1.58734
 Alpha  occ. eigenvalues --   -1.53550  -1.49460  -1.48041  -1.47106  -1.46161
 Alpha  occ. eigenvalues --   -1.45606  -1.43011  -1.40026  -1.38566  -1.37115
 Alpha  occ. eigenvalues --   -1.35572  -1.35008  -1.31809  -1.30687  -1.28144
 Alpha  occ. eigenvalues --   -1.27297  -1.26704  -1.23199  -1.20371  -1.18514
 Alpha  occ. eigenvalues --   -1.16178  -1.15675  -1.15526  -1.13389  -1.12588
 Alpha  occ. eigenvalues --   -1.11799  -1.09839  -1.09070  -1.05023  -1.04277
 Alpha  occ. eigenvalues --   -1.02258  -1.01290  -0.98346  -0.97514  -0.95992
 Alpha  occ. eigenvalues --   -0.95371  -0.94351  -0.93331  -0.92604  -0.92095
 Alpha  occ. eigenvalues --   -0.90710  -0.90263  -0.90017  -0.89197  -0.86608
 Alpha  occ. eigenvalues --   -0.85732  -0.84241  -0.83479  -0.82728  -0.80672
 Alpha  occ. eigenvalues --   -0.80335  -0.78825  -0.78049  -0.77089  -0.76569
 Alpha  occ. eigenvalues --   -0.75700  -0.74978  -0.74505  -0.73825  -0.72770
 Alpha  occ. eigenvalues --   -0.72299  -0.71768  -0.71258  -0.70748  -0.70511
 Alpha  occ. eigenvalues --   -0.70300  -0.69737  -0.69311  -0.69005  -0.67953
 Alpha  occ. eigenvalues --   -0.67610  -0.67301  -0.67147  -0.66546  -0.66385
 Alpha  occ. eigenvalues --   -0.65996  -0.65206  -0.65065  -0.64731  -0.64508
 Alpha  occ. eigenvalues --   -0.63807  -0.63436  -0.62809  -0.62551  -0.62091
 Alpha  occ. eigenvalues --   -0.61857  -0.61156  -0.60757  -0.60461  -0.59866
 Alpha  occ. eigenvalues --   -0.59647  -0.59161  -0.58714  -0.58384  -0.57857
 Alpha  occ. eigenvalues --   -0.57556  -0.57376  -0.57287  -0.56652  -0.56403
 Alpha  occ. eigenvalues --   -0.56248  -0.56060  -0.55925  -0.55584  -0.54749
 Alpha  occ. eigenvalues --   -0.54180  -0.54088  -0.54021  -0.53807  -0.53150
 Alpha  occ. eigenvalues --   -0.53067  -0.52544  -0.52353  -0.52269  -0.51930
 Alpha  occ. eigenvalues --   -0.51419  -0.51341  -0.51188  -0.50895  -0.50516
 Alpha  occ. eigenvalues --   -0.50430  -0.49961  -0.49784  -0.49265  -0.48977
 Alpha  occ. eigenvalues --   -0.48859  -0.48499  -0.48229  -0.48026  -0.47801
 Alpha  occ. eigenvalues --   -0.47641  -0.47407  -0.47175  -0.46896  -0.46857
 Alpha  occ. eigenvalues --   -0.46413  -0.46312  -0.46240  -0.45969  -0.45758
 Alpha  occ. eigenvalues --   -0.45437  -0.45250  -0.45053  -0.44860  -0.44823
 Alpha  occ. eigenvalues --   -0.44010  -0.43463  -0.43365  -0.42980  -0.42448
 Alpha  occ. eigenvalues --   -0.42193  -0.42178  -0.41751  -0.39372  -0.39042
 Alpha  occ. eigenvalues --   -0.38690  -0.37874  -0.35843  -0.34995  -0.34843
 Alpha  occ. eigenvalues --   -0.33315  -0.32976  -0.32663  -0.31267  -0.27214
 Alpha  occ. eigenvalues --   -0.22192
 Alpha virt. eigenvalues --   -0.09214  -0.02455  -0.00686   0.00827   0.00993
 Alpha virt. eigenvalues --    0.02365   0.02526   0.02633   0.04121   0.04564
 Alpha virt. eigenvalues --    0.05831   0.06400   0.06699   0.07424   0.07748

 Mulliken charges:
               1
     1  Mg   0.424661
     2  C   -0.053954
     3  C   -0.079548
     4  C   -0.084141
     5  C   -0.066872
     6  N   -0.283748
     7  C    0.114926
     8  C    0.002014
     9  C    0.003678
    10  C    0.162918
    11  C   -0.050241
    12  C   -0.030157
    13  C    0.002936
    14  C    0.464002
    15  O   -0.499419
    16  O   -0.276231
    17  N   -0.338425
    18  C    0.128445
    19  C    0.042434
    20  C   -0.054376
    21  C    0.123565
    22  C   -0.043955
    23  C    0.339650
    24  O   -0.525809
    25  C   -0.021626
    26  N   -0.278960
    27  C    0.140602
    28  C   -0.008489
    29  C   -0.002665
    30  C    0.108811
    31  C   -0.052420
    32  C   -0.026691
    33  C   -0.056927
    34  N   -0.320354
    35  C    0.078467
    36  C    0.039442
    37  C   -0.051949
    38  C    0.107131
    39  C   -0.043000
    40  C    0.331069
    41  O   -0.508353
    42  C    0.057562
    43  C    0.477912
    44  O   -0.493683
    45  O   -0.277096
    46  C    0.075026
    47  C    0.101506
    48  C   -0.111653
    49  C   -0.001270
    50  C   -0.042187
    51  C   -0.024540
    52  C   -0.024082
    53  C   -0.033118
    54  C   -0.025650
    55  C   -0.061292
    56  C   -0.036742
    57  C   -0.042119
    58  C   -0.042019
    59  C   -0.012145
    60  C   -0.064940
    61  C   -0.038901
    62  C   -0.036625
    63  C   -0.038536
    64  C   -0.019764
    65  C   -0.063885
    66  C   -0.061567
    67  H    0.022918
    68  H    0.019214
    69  H    0.031525
    70  H    0.042779
    71  H    0.036577
    72  H    0.033094
    73  H    0.022140
    74  H    0.012787
    75  H    0.019323
    76  H    0.033666
    77  H    0.039305
    78  H    0.042484
    79  H    0.037024
    80  H    0.030590
    81  H    0.025491
    82  H    0.040373
    83  H    0.041388
    84  H    0.037345
    85  H    0.035710
    86  H    0.032343
    87  H    0.021821
    88  H    0.030309
    89  H    0.021793
    90  H    0.021606
    91  H    0.029957
    92  H    0.010548
    93  H    0.026089
    94  H    0.016566
    95  H    0.024252
    96  H    0.043274
    97  H    0.033848
    98  H    0.060208
    99  H    0.035629
   100  H    0.054582
   101  H    0.027420
   102  H    0.035217
   103  H    0.064066
   104  H    0.033007
   105  H    0.033264
   106  H    0.023400
   107  H    0.032662
   108  H    0.018285
   109  H    0.025517
   110  H    0.025145
   111  H    0.023880
   112  H    0.024377
   113  H    0.015948
   114  H    0.023068
   115  H    0.016365
   116  H    0.016254
   117  H    0.018708
   118  H    0.028591
   119  H    0.019810
   120  H    0.018299
   121  H    0.024856
   122  H    0.020009
   123  H    0.017834
   124  H    0.024067
   125  H    0.012081
   126  H    0.019692
   127  H    0.018058
   128  H    0.021509
   129  H   -0.001192
   130  H    0.022486
   131  H    0.015219
   132  H    0.025894
   133  H    0.031237
   134  H    0.029391
   135  H    0.016048
   136  H    0.018274
   137  H    0.025974
   138  H    0.030609
   139  H    0.011195
   140  H    0.010284
 Sum of Mulliken charges =  -0.00000

 Dipole moment (field-independent basis, Debye):
    X=             -0.0723    Y=              8.2545    Z=             -1.3411  Tot=              8.3631
 N-N= 4.301162138613D+03 E-N= 0.000000000000D+00  KE=-9.275659961452D+03
 Leave Link  601 at Thu May  5 08:55:08 2022, MaxMem=  6710886400 cpu:               1.6 elap:               0.1
 (Enter /sw/apps/gaussian-16.0/g16/l9999.exe)
 1\1\GINC-BP1-COMPUTE183\SP\RZINDO CIS\STO-3G\C55H74Mg1N4O6\OF15641\05-
 May-2022\0\\#p ZINDO=(nstates=5)\\step_751_chromophore_2 ZINDO\\0,1\Mg
 ,0,3.33,0.793,44.727\C,0,6.171,2.876,44.431\C,0,1.515,3.18,43.096\C,0,
 0.832,-1.461,44.394\C,0,5.537,-1.844,45.755\N,0,3.814,2.687,43.666\C,0
 ,5.026,3.391,43.814\C,0,4.956,4.751,43.205\C,0,3.414,4.89,42.933\C,0,2
 .863,3.464,43.192\C,0,2.673,5.852,43.893\C,0,5.779,4.829,41.838\C,0,6.
 181,3.527,41.069\C,0,6.473,3.755,39.495\O,0,6.867,4.718,38.905\O,0,6.2

 Normal termination of Gaussian 16 at Thu May  5 08:55:08 2022.
