 Gaussian 16, Revision A.03,
 Gaussian 16:  ES64L-G16RevA.03 25-Dec-2016

 ------------------------------
 #p blyp/Def2SVP td=(nstates=5)
 ------------------------------

 --------------------------------------------------
 step_451_chromophore_11 TDDFT with blyp functional
 --------------------------------------------------
 Symbolic Z-matrix:
 Charge =  0 Multiplicity = 1

                         Standard orientation:
 ---------------------------------------------------------------------
 Center     Atomic      Atomic             Coordinates (Angstroms)
 Number     Number       Type             X           Y           Z
 ---------------------------------------------------------------------
      1         12           0       -4.392708    1.365400    0.502640
      2          6           0       -5.418926   -1.923794    0.382823
      3          6           0       -2.709704    0.705407    3.327657
      4          6           0       -3.049027    4.371968    0.265910
      5          6           0       -6.385732    1.975237   -2.281890
      6          7           0       -3.881364   -0.454362    1.525633
      7          6           0       -4.453598   -1.682622    1.351804
      8          6           0       -4.128936   -2.643913    2.520188
      9          6           0       -3.711691   -1.599198    3.631971
     10          6           0       -3.346279   -0.363472    2.787306
     11          6           0       -4.792617   -1.282723    4.768382
     12          6           0       -3.022088   -3.732047    2.073316
     13          6           0       -1.677972   -3.073218    1.649393
     14          6           0       -1.197222   -3.509087    0.252066
     15          8           0       -1.621045   -3.131468   -0.820013
     16          8           0       -0.161186   -4.447769    0.443993
     17          7           0       -2.945203    2.383256    1.564012
     18          6           0       -2.422345    1.937063    2.760618
     19          6           0       -1.490599    2.939408    3.259575
     20          6           0       -1.559162    4.066049    2.381892
     21          6           0       -2.578829    3.647331    1.353298
     22          6           0       -0.701973    2.798128    4.597031
     23          6           0       -0.791130    5.324049    2.480808
     24          8           0       -0.056195    5.434758    3.468755
     25          6           0       -0.830525    6.478683    1.470164
     26          7           0       -4.603072    2.938724   -0.858253
     27          6           0       -3.986243    4.103824   -0.720798
     28          6           0       -4.187990    5.016221   -1.859394
     29          6           0       -5.378866    4.288944   -2.684827
     30          6           0       -5.450385    2.986717   -1.931017
     31          6           0       -4.525089    6.487072   -1.528956
     32          6           0       -5.063520    4.130637   -4.206037
     33          6           0       -6.126044    4.609560   -5.173478
     34          7           0       -5.693459    0.327367   -0.708349
     35          6           0       -6.551618    0.739419   -1.693246
     36          6           0       -7.476763   -0.355207   -1.972625
     37          6           0       -7.025406   -1.391532   -1.165182
     38          6           0       -5.893817   -0.932129   -0.479844
     39          6           0       -8.608163   -0.426357   -2.966557
     40          6           0       -7.335302   -2.774268   -0.846829
     41          8           0       -8.277755   -3.478626   -1.234676
     42          6           0       -6.187769   -3.262321    0.085413
     43          6           0       -5.414042   -4.166817   -0.760810
     44          8           0       -4.686496   -3.843722   -1.687745
     45          8           0       -5.562573   -5.429422   -0.262399
     46          6           0       -4.840170   -6.433133   -1.051804
     47          6           0        0.445758   -4.894335   -0.768087
     48          6           0        1.408067   -3.897559   -1.181192
     49          6           0        2.415938   -3.294216   -0.397940
     50          6           0        2.906203   -3.726046    0.937566
     51          6           0        3.232943   -2.256898   -1.098403
     52          6           0        4.765273   -2.373603   -1.145591
     53          6           0        5.450844   -1.138217   -1.610098
     54          6           0        6.193818   -0.338839   -0.461769
     55          6           0        5.299173    0.728372    0.186801
     56          6           0        7.531629    0.390209   -0.941041
     57          6           0        8.848295   -0.281260   -0.310497
     58          6           0        9.948938    0.724421   -0.195354
     59          6           0       11.162739    0.254059    0.641538
     60          6           0       10.981079    0.345506    2.173322
     61          6           0       12.543201    0.829053    0.044604
     62          6           0       13.216789   -0.145589   -0.941010
     63          6           0       14.376754    0.405463   -1.699426
     64          6           0       15.763822    0.163642   -0.993260
     65          6           0       16.666332    1.439196   -0.812162
     66          6           0       16.565946   -0.964878   -1.762730
     67          1           0       -2.375821    0.578690    4.358800
     68          1           0       -2.565031    5.348174    0.200445
     69          1           0       -7.013476    2.205084   -3.145974
     70          1           0       -5.030418   -3.184265    2.809264
     71          1           0       -2.838310   -1.907397    4.207492
     72          1           0       -4.290093   -1.676789    5.651603
     73          1           0       -5.768166   -1.764486    4.694273
     74          1           0       -4.910476   -0.203169    4.852945
     75          1           0       -3.365765   -4.440179    1.318932
     76          1           0       -2.902073   -4.375006    2.945386
     77          1           0       -0.942367   -3.298903    2.421409
     78          1           0       -1.657203   -1.984091    1.606404
     79          1           0        0.383403    2.777400    4.505896
     80          1           0       -1.035694    1.971203    5.223768
     81          1           0       -0.919688    3.599703    5.303144
     82          1           0       -0.540637    6.182786    0.461682
     83          1           0       -0.077087    7.200733    1.785997
     84          1           0       -1.839723    6.880812    1.379567
     85          1           0       -3.275653    4.931535   -2.450502
     86          1           0       -6.306923    4.820209   -2.471494
     87          1           0       -4.221119    6.776411   -0.523690
     88          1           0       -5.571028    6.793684   -1.522108
     89          1           0       -3.980096    7.114416   -2.234313
     90          1           0       -5.033544    3.053682   -4.374457
     91          1           0       -4.064133    4.433092   -4.516727
     92          1           0       -6.593544    5.551387   -4.885396
     93          1           0       -6.814525    3.802926   -5.424811
     94          1           0       -5.553516    4.931382   -6.043519
     95          1           0       -8.903172    0.517350   -3.425094
     96          1           0       -9.550892   -0.843687   -2.613495
     97          1           0       -8.293693   -1.080649   -3.779881
     98          1           0       -6.588949   -3.811533    0.937287
     99          1           0       -4.961298   -7.389814   -0.542735
    100          1           0       -3.754471   -6.382942   -1.136834
    101          1           0       -5.273017   -6.517088   -2.048750
    102          1           0       -0.159544   -5.275352   -1.590704
    103          1           0        0.990808   -5.806910   -0.524397
    104          1           0        1.259267   -3.518708   -2.192686
    105          1           0        3.898684   -4.146392    0.773836
    106          1           0        2.293699   -4.590055    1.195910
    107          1           0        2.933787   -2.967251    1.719803
    108          1           0        3.005277   -1.411048   -0.449261
    109          1           0        2.911496   -2.043062   -2.118164
    110          1           0        5.028909   -3.122750   -1.892159
    111          1           0        5.083060   -2.730754   -0.165621
    112          1           0        4.699634   -0.398521   -1.884729
    113          1           0        6.044987   -1.350868   -2.499011
    114          1           0        6.305554   -1.110030    0.300523
    115          1           0        5.835492    1.423478    0.832360
    116          1           0        4.593018    0.249837    0.864397
    117          1           0        4.691285    1.233833   -0.563095
    118          1           0        7.482603    1.443665   -0.665879
    119          1           0        7.620187    0.282748   -2.022075
    120          1           0        9.305064   -0.921799   -1.064408
    121          1           0        8.707476   -0.786395    0.645071
    122          1           0        9.524284    1.551736    0.373707
    123          1           0       10.225946    1.125222   -1.170524
    124          1           0       11.377561   -0.814146    0.662442
    125          1           0       11.513701   -0.470648    2.661714
    126          1           0        9.904960    0.227535    2.295664
    127          1           0       11.178483    1.312819    2.636153
    128          1           0       13.216299    1.015228    0.881835
    129          1           0       12.275094    1.754855   -0.464862
    130          1           0       12.536625   -0.584394   -1.670992
    131          1           0       13.632578   -0.989766   -0.389692
    132          1           0       14.291378    1.490479   -1.637777
    133          1           0       14.460501    0.107108   -2.745285
    134          1           0       15.747959   -0.146466    0.052133
    135          1           0       16.448803    2.037115    0.073346
    136          1           0       16.464832    2.150268   -1.612692
    137          1           0       17.748495    1.322945   -0.766442
    138          1           0       16.615828   -0.888269   -2.848948
    139          1           0       16.211467   -1.974215   -1.552152
    140          1           0       17.594842   -1.005594   -1.407703
 ---------------------------------------------------------------------

 SCF Done:  E(RB-LYP) =  -3007.39179265     A.U. after   21 cycles

 Excitation energies and oscillator strengths:

 Excited State   1:      Singlet-A      1.8229 eV  680.16 nm  f=0.2896  <S**2>=0.000
     244 -> 247       -0.19148
     245 -> 248        0.16111
     246 -> 247        0.66601
     246 <- 247       -0.14336
 This state for optimization and/or second-order correction.
 Total Energy, E(TD-HF/TD-DFT) =  -3007.32480391
 Copying the excited state density for this state as the 1-particle RhoCI density.

 Excited State   2:      Singlet-A      1.8560 eV  668.01 nm  f=0.0284  <S**2>=0.000
     244 -> 247        0.67960
     246 -> 247        0.18792

 Excited State   3:      Singlet-A      1.9635 eV  631.44 nm  f=0.0010  <S**2>=0.000
     243 -> 247        0.70613

 Excited State   4:      Singlet-A      1.9826 eV  625.37 nm  f=0.0178  <S**2>=0.000
     242 -> 247        0.58753
     245 -> 247        0.37392

 Excited State   5:      Singlet-A      2.1188 eV  585.16 nm  f=0.0552  <S**2>=0.000
     242 -> 247       -0.38559
     245 -> 247        0.52579
     246 -> 248       -0.22618
     246 -> 249        0.12020

 The electronic state is 1-A.
 Alpha  occ. eigenvalues --  -46.26139 -18.82470 -18.81305 -18.77068 -18.76105
 Alpha  occ. eigenvalues --  -18.75708 -18.74755 -14.03070 -14.03052 -14.00835
 Alpha  occ. eigenvalues --  -14.00435 -10.03653 -10.03215  -9.99531  -9.99418
 Alpha  occ. eigenvalues --   -9.97335  -9.96463  -9.96421  -9.96261  -9.96061
 Alpha  occ. eigenvalues --   -9.95871  -9.95558  -9.95337  -9.95259  -9.94687
 Alpha  occ. eigenvalues --   -9.94611  -9.94103  -9.94081  -9.93995  -9.93982
 Alpha  occ. eigenvalues --   -9.93868  -9.93802  -9.93492  -9.93467  -9.93185
 Alpha  occ. eigenvalues --   -9.93094  -9.92793  -9.92738  -9.92730  -9.92726
 Alpha  occ. eigenvalues --   -9.92503  -9.92398  -9.92233  -9.92184  -9.92137
 Alpha  occ. eigenvalues --   -9.92013  -9.91961  -9.91912  -9.91907  -9.91809
 Alpha  occ. eigenvalues --   -9.91561  -9.91465  -9.91146  -9.91053  -9.90996
 Alpha  occ. eigenvalues --   -9.90951  -9.90841  -9.90814  -9.90804  -9.90777
 Alpha  occ. eigenvalues --   -9.90743  -9.90737  -9.90626  -9.90597  -9.90449
 Alpha  occ. eigenvalues --   -9.90343  -2.91002  -1.71426  -1.70868  -1.70729
 Alpha  occ. eigenvalues --   -0.97865  -0.97032  -0.90494  -0.90449  -0.90210
 Alpha  occ. eigenvalues --   -0.89508  -0.87789  -0.87007  -0.85982  -0.85123
 Alpha  occ. eigenvalues --   -0.75521  -0.73432  -0.72643  -0.72588  -0.72117
 Alpha  occ. eigenvalues --   -0.71880  -0.71338  -0.71336  -0.70503  -0.70068
 Alpha  occ. eigenvalues --   -0.69001  -0.68649  -0.68228  -0.67882  -0.67384
 Alpha  occ. eigenvalues --   -0.66466  -0.65885  -0.65348  -0.65116  -0.64524
 Alpha  occ. eigenvalues --   -0.64239  -0.62624  -0.62155  -0.61438  -0.60872
 Alpha  occ. eigenvalues --   -0.60514  -0.60227  -0.59688  -0.59356  -0.58577
 Alpha  occ. eigenvalues --   -0.58105  -0.57657  -0.57130  -0.55735  -0.54812
 Alpha  occ. eigenvalues --   -0.53996  -0.53183  -0.52911  -0.52135  -0.52090
 Alpha  occ. eigenvalues --   -0.51202  -0.50947  -0.50781  -0.50573  -0.49691
 Alpha  occ. eigenvalues --   -0.49395  -0.49016  -0.48698  -0.48521  -0.46601
 Alpha  occ. eigenvalues --   -0.46266  -0.45477  -0.45199  -0.44984  -0.44621
 Alpha  occ. eigenvalues --   -0.44151  -0.43557  -0.43262  -0.42793  -0.42303
 Alpha  occ. eigenvalues --   -0.42118  -0.41920  -0.41717  -0.41591  -0.40848
 Alpha  occ. eigenvalues --   -0.40597  -0.40499  -0.40492  -0.40080  -0.40030
 Alpha  occ. eigenvalues --   -0.39880  -0.39671  -0.39312  -0.39178  -0.38865
 Alpha  occ. eigenvalues --   -0.38565  -0.38539  -0.38372  -0.38159  -0.37847
 Alpha  occ. eigenvalues --   -0.37658  -0.37577  -0.37494  -0.37083  -0.36856
 Alpha  occ. eigenvalues --   -0.36716  -0.36594  -0.36318  -0.36282  -0.36016
 Alpha  occ. eigenvalues --   -0.35663  -0.35552  -0.35470  -0.35404  -0.35392
 Alpha  occ. eigenvalues --   -0.35223  -0.34834  -0.34780  -0.34656  -0.34563
 Alpha  occ. eigenvalues --   -0.34294  -0.34185  -0.33931  -0.33838  -0.33588
 Alpha  occ. eigenvalues --   -0.33471  -0.33349  -0.33186  -0.33109  -0.32931
 Alpha  occ. eigenvalues --   -0.32839  -0.32822  -0.32735  -0.32249  -0.32231
 Alpha  occ. eigenvalues --   -0.31957  -0.31881  -0.31850  -0.31625  -0.31507
 Alpha  occ. eigenvalues --   -0.31335  -0.31012  -0.30895  -0.30731  -0.30580
 Alpha  occ. eigenvalues --   -0.30513  -0.30255  -0.30022  -0.29897  -0.29759
 Alpha  occ. eigenvalues --   -0.29650  -0.29593  -0.29263  -0.28892  -0.28729
 Alpha  occ. eigenvalues --   -0.28621  -0.28491  -0.28088  -0.27896  -0.27790
 Alpha  occ. eigenvalues --   -0.27237  -0.27153  -0.26843  -0.26719  -0.26553
 Alpha  occ. eigenvalues --   -0.26144  -0.26008  -0.25881  -0.25836  -0.25284
 Alpha  occ. eigenvalues --   -0.25126  -0.24828  -0.24353  -0.24163  -0.23487
 Alpha  occ. eigenvalues --   -0.23146  -0.22182  -0.22000  -0.21481  -0.20704
 Alpha  occ. eigenvalues --   -0.20386  -0.18677  -0.18612  -0.18113  -0.17422
 Alpha  occ. eigenvalues --   -0.15724
 Alpha virt. eigenvalues --   -0.11398  -0.06862  -0.05882  -0.04764  -0.02890
 Alpha virt. eigenvalues --   -0.02385  -0.02184  -0.01719  -0.01282   0.00432
 Alpha virt. eigenvalues --    0.01450   0.02005   0.02614   0.02929   0.03106

 Mulliken charges:
               1
     1  Mg   0.694800
     2  C   -0.056768
     3  C   -0.077328
     4  C   -0.057117
     5  C   -0.082720
     6  N   -0.224105
     7  C   -0.043216
     8  C    0.019604
     9  C    0.005561
    10  C    0.020966
    11  C    0.118198
    12  C    0.110447
    13  C    0.124182
    14  C    0.072414
    15  O   -0.154526
    16  O   -0.279256
    17  N   -0.276395
    18  C    0.154108
    19  C   -0.112247
    20  C    0.080894
    21  C    0.105278
    22  C    0.173979
    23  C   -0.116590
    24  O   -0.183593
    25  C    0.144855
    26  N   -0.198623
    27  C    0.012737
    28  C    0.031157
    29  C    0.060403
    30  C   -0.010474
    31  C    0.127486
    32  C    0.089945
    33  C    0.070738
    34  N   -0.226204
    35  C    0.127490
    36  C   -0.158694
    37  C    0.083375
    38  C    0.155917
    39  C    0.161194
    40  C   -0.059778
    41  O   -0.149311
    42  C    0.098861
    43  C    0.113033
    44  O   -0.167552
    45  O   -0.263070
    46  C    0.224324
    47  C    0.375677
    48  C   -0.166356
    49  C   -0.138864
    50  C    0.160985
    51  C    0.121176
    52  C    0.080043
    53  C    0.109106
    54  C   -0.075503
    55  C    0.088631
    56  C    0.125551
    57  C    0.052604
    58  C    0.102087
    59  C   -0.068516
    60  C    0.098918
    61  C    0.107228
    62  C    0.068690
    63  C    0.157036
    64  C   -0.074166
    65  C    0.067354
    66  C    0.071211
    67  H   -0.069739
    68  H   -0.119486
    69  H   -0.071184
    70  H   -0.037350
    71  H   -0.034530
    72  H   -0.007137
    73  H    0.002774
    74  H    0.000989
    75  H    0.002279
    76  H   -0.022085
    77  H   -0.018142
    78  H    0.021637
    79  H    0.008556
    80  H   -0.040042
    81  H   -0.004472
    82  H    0.008277
    83  H   -0.009238
    84  H    0.020314
    85  H   -0.012521
    86  H   -0.020898
    87  H   -0.013327
    88  H   -0.013952
    89  H   -0.009829
    90  H   -0.023585
    91  H   -0.022670
    92  H   -0.010148
    93  H    0.010417
    94  H   -0.020622
    95  H   -0.026239
    96  H    0.005909
    97  H    0.008742
    98  H   -0.016165
    99  H   -0.003546
   100  H    0.015049
   101  H    0.018008
   102  H   -0.020396
   103  H   -0.026802
   104  H   -0.032258
   105  H    0.005236
   106  H   -0.019031
   107  H    0.002671
   108  H   -0.028607
   109  H   -0.028719
   110  H   -0.039125
   111  H   -0.033785
   112  H   -0.041631
   113  H   -0.031736
   114  H   -0.036325
   115  H   -0.011052
   116  H   -0.027603
   117  H   -0.011601
   118  H   -0.027464
   119  H   -0.030863
   120  H   -0.029841
   121  H   -0.012679
   122  H   -0.042660
   123  H   -0.032305
   124  H   -0.047887
   125  H   -0.008280
   126  H   -0.032415
   127  H   -0.019618
   128  H   -0.041081
   129  H   -0.030014
   130  H   -0.038573
   131  H   -0.033163
   132  H   -0.046955
   133  H   -0.030265
   134  H   -0.028834
   135  H   -0.022571
   136  H   -0.025647
   137  H   -0.019234
   138  H   -0.012223
   139  H   -0.022682
   140  H   -0.027302
 Sum of Mulliken charges =  -0.00000

 Dipole moment (field-independent basis, Debye):
    X=              0.1142    Y=              0.6681    Z=              0.4140  Tot=              0.7943
 Quadrupole moment (field-independent basis, Debye-Ang):
   XX=           -423.9412   YY=           -389.4018   ZZ=           -396.1156
   XY=            -38.8000   XZ=             -9.8618   YZ=            -32.7320

 Normal termination of Gaussian 16 at Wed May  4 21:27:48 2022.
