 Gaussian 16, Revision A.03,
 Gaussian 16:  ES64L-G16RevA.03 25-Dec-2016

 -----------------------------------
 #p cam-b3lyp/Def2SVP td=(nstates=5)
 -----------------------------------

 -------------------------------------------------------
 step_451_chromophore_11 TDDFT with cam-b3lyp functional
 -------------------------------------------------------
 Symbolic Z-matrix:
 Charge =  0 Multiplicity = 1

                         Standard orientation:
 ---------------------------------------------------------------------
 Center     Atomic      Atomic             Coordinates (Angstroms)
 Number     Number       Type             X           Y           Z
 ---------------------------------------------------------------------
      1         12           0       -4.392708    1.365400    0.502640
      2          6           0       -5.418926   -1.923794    0.382823
      3          6           0       -2.709704    0.705407    3.327657
      4          6           0       -3.049027    4.371968    0.265910
      5          6           0       -6.385732    1.975237   -2.281890
      6          7           0       -3.881364   -0.454362    1.525633
      7          6           0       -4.453598   -1.682622    1.351804
      8          6           0       -4.128936   -2.643913    2.520188
      9          6           0       -3.711691   -1.599198    3.631971
     10          6           0       -3.346279   -0.363472    2.787306
     11          6           0       -4.792617   -1.282723    4.768382
     12          6           0       -3.022088   -3.732047    2.073316
     13          6           0       -1.677972   -3.073218    1.649393
     14          6           0       -1.197222   -3.509087    0.252066
     15          8           0       -1.621045   -3.131468   -0.820013
     16          8           0       -0.161186   -4.447769    0.443993
     17          7           0       -2.945203    2.383256    1.564012
     18          6           0       -2.422345    1.937063    2.760618
     19          6           0       -1.490599    2.939408    3.259575
     20          6           0       -1.559162    4.066049    2.381892
     21          6           0       -2.578829    3.647331    1.353298
     22          6           0       -0.701973    2.798128    4.597031
     23          6           0       -0.791130    5.324049    2.480808
     24          8           0       -0.056195    5.434758    3.468755
     25          6           0       -0.830525    6.478683    1.470164
     26          7           0       -4.603072    2.938724   -0.858253
     27          6           0       -3.986243    4.103824   -0.720798
     28          6           0       -4.187990    5.016221   -1.859394
     29          6           0       -5.378866    4.288944   -2.684827
     30          6           0       -5.450385    2.986717   -1.931017
     31          6           0       -4.525089    6.487072   -1.528956
     32          6           0       -5.063520    4.130637   -4.206037
     33          6           0       -6.126044    4.609560   -5.173478
     34          7           0       -5.693459    0.327367   -0.708349
     35          6           0       -6.551618    0.739419   -1.693246
     36          6           0       -7.476763   -0.355207   -1.972625
     37          6           0       -7.025406   -1.391532   -1.165182
     38          6           0       -5.893817   -0.932129   -0.479844
     39          6           0       -8.608163   -0.426357   -2.966557
     40          6           0       -7.335302   -2.774268   -0.846829
     41          8           0       -8.277755   -3.478626   -1.234676
     42          6           0       -6.187769   -3.262321    0.085413
     43          6           0       -5.414042   -4.166817   -0.760810
     44          8           0       -4.686496   -3.843722   -1.687745
     45          8           0       -5.562573   -5.429422   -0.262399
     46          6           0       -4.840170   -6.433133   -1.051804
     47          6           0        0.445758   -4.894335   -0.768087
     48          6           0        1.408067   -3.897559   -1.181192
     49          6           0        2.415938   -3.294216   -0.397940
     50          6           0        2.906203   -3.726046    0.937566
     51          6           0        3.232943   -2.256898   -1.098403
     52          6           0        4.765273   -2.373603   -1.145591
     53          6           0        5.450844   -1.138217   -1.610098
     54          6           0        6.193818   -0.338839   -0.461769
     55          6           0        5.299173    0.728372    0.186801
     56          6           0        7.531629    0.390209   -0.941041
     57          6           0        8.848295   -0.281260   -0.310497
     58          6           0        9.948938    0.724421   -0.195354
     59          6           0       11.162739    0.254059    0.641538
     60          6           0       10.981079    0.345506    2.173322
     61          6           0       12.543201    0.829053    0.044604
     62          6           0       13.216789   -0.145589   -0.941010
     63          6           0       14.376754    0.405463   -1.699426
     64          6           0       15.763822    0.163642   -0.993260
     65          6           0       16.666332    1.439196   -0.812162
     66          6           0       16.565946   -0.964878   -1.762730
     67          1           0       -2.375821    0.578690    4.358800
     68          1           0       -2.565031    5.348174    0.200445
     69          1           0       -7.013476    2.205084   -3.145974
     70          1           0       -5.030418   -3.184265    2.809264
     71          1           0       -2.838310   -1.907397    4.207492
     72          1           0       -4.290093   -1.676789    5.651603
     73          1           0       -5.768166   -1.764486    4.694273
     74          1           0       -4.910476   -0.203169    4.852945
     75          1           0       -3.365765   -4.440179    1.318932
     76          1           0       -2.902073   -4.375006    2.945386
     77          1           0       -0.942367   -3.298903    2.421409
     78          1           0       -1.657203   -1.984091    1.606404
     79          1           0        0.383403    2.777400    4.505896
     80          1           0       -1.035694    1.971203    5.223768
     81          1           0       -0.919688    3.599703    5.303144
     82          1           0       -0.540637    6.182786    0.461682
     83          1           0       -0.077087    7.200733    1.785997
     84          1           0       -1.839723    6.880812    1.379567
     85          1           0       -3.275653    4.931535   -2.450502
     86          1           0       -6.306923    4.820209   -2.471494
     87          1           0       -4.221119    6.776411   -0.523690
     88          1           0       -5.571028    6.793684   -1.522108
     89          1           0       -3.980096    7.114416   -2.234313
     90          1           0       -5.033544    3.053682   -4.374457
     91          1           0       -4.064133    4.433092   -4.516727
     92          1           0       -6.593544    5.551387   -4.885396
     93          1           0       -6.814525    3.802926   -5.424811
     94          1           0       -5.553516    4.931382   -6.043519
     95          1           0       -8.903172    0.517350   -3.425094
     96          1           0       -9.550892   -0.843687   -2.613495
     97          1           0       -8.293693   -1.080649   -3.779881
     98          1           0       -6.588949   -3.811533    0.937287
     99          1           0       -4.961298   -7.389814   -0.542735
    100          1           0       -3.754471   -6.382942   -1.136834
    101          1           0       -5.273017   -6.517088   -2.048750
    102          1           0       -0.159544   -5.275352   -1.590704
    103          1           0        0.990808   -5.806910   -0.524397
    104          1           0        1.259267   -3.518708   -2.192686
    105          1           0        3.898684   -4.146392    0.773836
    106          1           0        2.293699   -4.590055    1.195910
    107          1           0        2.933787   -2.967251    1.719803
    108          1           0        3.005277   -1.411048   -0.449261
    109          1           0        2.911496   -2.043062   -2.118164
    110          1           0        5.028909   -3.122750   -1.892159
    111          1           0        5.083060   -2.730754   -0.165621
    112          1           0        4.699634   -0.398521   -1.884729
    113          1           0        6.044987   -1.350868   -2.499011
    114          1           0        6.305554   -1.110030    0.300523
    115          1           0        5.835492    1.423478    0.832360
    116          1           0        4.593018    0.249837    0.864397
    117          1           0        4.691285    1.233833   -0.563095
    118          1           0        7.482603    1.443665   -0.665879
    119          1           0        7.620187    0.282748   -2.022075
    120          1           0        9.305064   -0.921799   -1.064408
    121          1           0        8.707476   -0.786395    0.645071
    122          1           0        9.524284    1.551736    0.373707
    123          1           0       10.225946    1.125222   -1.170524
    124          1           0       11.377561   -0.814146    0.662442
    125          1           0       11.513701   -0.470648    2.661714
    126          1           0        9.904960    0.227535    2.295664
    127          1           0       11.178483    1.312819    2.636153
    128          1           0       13.216299    1.015228    0.881835
    129          1           0       12.275094    1.754855   -0.464862
    130          1           0       12.536625   -0.584394   -1.670992
    131          1           0       13.632578   -0.989766   -0.389692
    132          1           0       14.291378    1.490479   -1.637777
    133          1           0       14.460501    0.107108   -2.745285
    134          1           0       15.747959   -0.146466    0.052133
    135          1           0       16.448803    2.037115    0.073346
    136          1           0       16.464832    2.150268   -1.612692
    137          1           0       17.748495    1.322945   -0.766442
    138          1           0       16.615828   -0.888269   -2.848948
    139          1           0       16.211467   -1.974215   -1.552152
    140          1           0       17.594842   -1.005594   -1.407703
 ---------------------------------------------------------------------

 SCF Done:  E(RCAM-B3LYP) =  -3007.18951587     A.U. after   17 cycles

 Excitation energies and oscillator strengths:

 Excited State   1:      Singlet-A      1.7176 eV  721.85 nm  f=0.3819  <S**2>=0.000
     245 -> 248       -0.17044
     246 -> 247        0.68718
     245 <- 248       -0.10441
 This state for optimization and/or second-order correction.
 Total Energy, E(TD-HF/TD-DFT) =  -3007.12639577
 Copying the excited state density for this state as the 1-particle RhoCI density.

 Excited State   2:      Singlet-A      2.3120 eV  536.26 nm  f=0.0815  <S**2>=0.000
     245 -> 247        0.62482
     246 -> 248        0.31532

 Excited State   3:      Singlet-A      3.4740 eV  356.89 nm  f=0.0133  <S**2>=0.000
     241 -> 247        0.40575
     241 -> 248       -0.15137
     241 -> 249        0.21718
     241 -> 250       -0.23717
     243 -> 247       -0.40069
     246 -> 248        0.11712

 Excited State   4:      Singlet-A      3.5082 eV  353.41 nm  f=0.0628  <S**2>=0.000
     239 -> 247        0.16656
     239 -> 249       -0.12359
     240 -> 247        0.43130
     240 -> 249       -0.27475
     240 -> 250       -0.16328
     242 -> 247       -0.25888
     245 -> 247        0.10161
     246 -> 248       -0.18460

 Excited State   5:      Singlet-A      3.5299 eV  351.24 nm  f=0.0173  <S**2>=0.000
     240 -> 247       -0.13650
     241 -> 247        0.32508
     241 -> 248       -0.10246
     241 -> 249        0.15337
     241 -> 250       -0.15502
     243 -> 247        0.52471
     246 -> 248       -0.12442

 The electronic state is 1-A.
 Alpha  occ. eigenvalues --  -46.87607 -19.25474 -19.24033 -19.19946 -19.19220
 Alpha  occ. eigenvalues --  -19.18925 -19.18015 -14.41995 -14.41801 -14.39328
 Alpha  occ. eigenvalues --  -14.38782 -10.38888 -10.38613 -10.34898 -10.34628
 Alpha  occ. eigenvalues --  -10.31346 -10.30768 -10.30740 -10.30443 -10.30313
 Alpha  occ. eigenvalues --  -10.30197 -10.29936 -10.29545 -10.29492 -10.28777
 Alpha  occ. eigenvalues --  -10.28635 -10.28485 -10.28236 -10.28149 -10.28049
 Alpha  occ. eigenvalues --  -10.27990 -10.27975 -10.27924 -10.27616 -10.27083
 Alpha  occ. eigenvalues --  -10.26938 -10.26887 -10.26848 -10.26808 -10.26461
 Alpha  occ. eigenvalues --  -10.26414 -10.26384 -10.26163 -10.26152 -10.26078
 Alpha  occ. eigenvalues --  -10.25860 -10.25653 -10.25634 -10.25603 -10.25469
 Alpha  occ. eigenvalues --  -10.25324 -10.25184 -10.24839 -10.24672 -10.24628
 Alpha  occ. eigenvalues --  -10.24586 -10.24524 -10.24476 -10.24408 -10.24387
 Alpha  occ. eigenvalues --  -10.24361 -10.24357 -10.24346 -10.24213 -10.24194
 Alpha  occ. eigenvalues --  -10.24075  -3.16384  -1.91280  -1.90830  -1.90709
 Alpha  occ. eigenvalues --   -1.16437  -1.15350  -1.08871  -1.08860  -1.07959
 Alpha  occ. eigenvalues --   -1.07493  -1.05524  -1.04683  -1.03613  -1.02636
 Alpha  occ. eigenvalues --   -0.92651  -0.90247  -0.89375  -0.89352  -0.88739
 Alpha  occ. eigenvalues --   -0.88538  -0.87968  -0.87905  -0.87035  -0.86610
 Alpha  occ. eigenvalues --   -0.85384  -0.85170  -0.84461  -0.84108  -0.83553
 Alpha  occ. eigenvalues --   -0.82499  -0.81957  -0.81200  -0.81086  -0.80474
 Alpha  occ. eigenvalues --   -0.80019  -0.78191  -0.77714  -0.77052  -0.76317
 Alpha  occ. eigenvalues --   -0.75840  -0.75543  -0.75030  -0.74638  -0.73762
 Alpha  occ. eigenvalues --   -0.73137  -0.72611  -0.72053  -0.70522  -0.69374
 Alpha  occ. eigenvalues --   -0.68629  -0.67661  -0.67444  -0.66380  -0.66216
 Alpha  occ. eigenvalues --   -0.65209  -0.65065  -0.64899  -0.64604  -0.63539
 Alpha  occ. eigenvalues --   -0.63275  -0.62952  -0.62439  -0.62398  -0.60202
 Alpha  occ. eigenvalues --   -0.59879  -0.58974  -0.58581  -0.58403  -0.58173
 Alpha  occ. eigenvalues --   -0.57606  -0.56859  -0.56460  -0.56109  -0.55426
 Alpha  occ. eigenvalues --   -0.55255  -0.54916  -0.54683  -0.54454  -0.54027
 Alpha  occ. eigenvalues --   -0.53354  -0.53191  -0.53027  -0.52964  -0.52794
 Alpha  occ. eigenvalues --   -0.52533  -0.52200  -0.51954  -0.51737  -0.51349
 Alpha  occ. eigenvalues --   -0.51301  -0.51129  -0.50988  -0.50760  -0.50156
 Alpha  occ. eigenvalues --   -0.50049  -0.49844  -0.49810  -0.49367  -0.49138
 Alpha  occ. eigenvalues --   -0.49023  -0.48683  -0.48522  -0.48423  -0.48392
 Alpha  occ. eigenvalues --   -0.48372  -0.48100  -0.47976  -0.47396  -0.47350
 Alpha  occ. eigenvalues --   -0.47222  -0.46792  -0.46725  -0.46617  -0.46509
 Alpha  occ. eigenvalues --   -0.46261  -0.46021  -0.45741  -0.45635  -0.45384
 Alpha  occ. eigenvalues --   -0.45240  -0.45111  -0.45037  -0.44823  -0.44691
 Alpha  occ. eigenvalues --   -0.44576  -0.44474  -0.44438  -0.43993  -0.43909
 Alpha  occ. eigenvalues --   -0.43660  -0.43497  -0.43355  -0.43296  -0.42996
 Alpha  occ. eigenvalues --   -0.42834  -0.42556  -0.42330  -0.42176  -0.42037
 Alpha  occ. eigenvalues --   -0.41963  -0.41790  -0.41556  -0.41171  -0.40986
 Alpha  occ. eigenvalues --   -0.40848  -0.40748  -0.40386  -0.40065  -0.39828
 Alpha  occ. eigenvalues --   -0.39716  -0.39631  -0.39249  -0.38822  -0.38654
 Alpha  occ. eigenvalues --   -0.38130  -0.38041  -0.37575  -0.37530  -0.37268
 Alpha  occ. eigenvalues --   -0.37146  -0.36945  -0.36772  -0.36670  -0.36521
 Alpha  occ. eigenvalues --   -0.35891  -0.35381  -0.35277  -0.34470  -0.34031
 Alpha  occ. eigenvalues --   -0.33803  -0.33570  -0.33374  -0.31412  -0.30631
 Alpha  occ. eigenvalues --   -0.30598  -0.30047  -0.29740  -0.27887  -0.24264
 Alpha  occ. eigenvalues --   -0.20915
 Alpha virt. eigenvalues --   -0.08382  -0.01622   0.00561   0.02214   0.02767
 Alpha virt. eigenvalues --    0.04618   0.05425   0.05760   0.06155   0.07032
 Alpha virt. eigenvalues --    0.08359   0.08772   0.09051   0.09113   0.09331

 Mulliken charges:
               1
     1  Mg   0.834071
     2  C   -0.084763
     3  C   -0.091578
     4  C   -0.072471
     5  C   -0.082532
     6  N   -0.294962
     7  C   -0.002248
     8  C   -0.031282
     9  C   -0.048451
    10  C    0.031417
    11  C    0.064086
    12  C    0.069021
    13  C    0.052450
    14  C    0.152369
    15  O   -0.191960
    16  O   -0.343700
    17  N   -0.363953
    18  C    0.155426
    19  C   -0.115600
    20  C    0.009081
    21  C    0.132980
    22  C    0.124073
    23  C   -0.041064
    24  O   -0.223819
    25  C    0.063616
    26  N   -0.273363
    27  C    0.037360
    28  C   -0.027102
    29  C    0.000067
    30  C    0.009528
    31  C    0.068630
    32  C    0.031292
    33  C    0.009721
    34  N   -0.319317
    35  C    0.125290
    36  C   -0.154306
    37  C    0.003770
    38  C    0.197390
    39  C    0.111950
    40  C    0.033270
    41  O   -0.187887
    42  C    0.022917
    43  C    0.203275
    44  O   -0.201366
    45  O   -0.326036
    46  C    0.182927
    47  C    0.326574
    48  C   -0.186128
    49  C   -0.152272
    50  C    0.097640
    51  C    0.064576
    52  C    0.019521
    53  C    0.055412
    54  C   -0.128894
    55  C    0.032308
    56  C    0.072303
    57  C    0.003213
    58  C    0.044730
    59  C   -0.124318
    60  C    0.046462
    61  C    0.054835
    62  C    0.015784
    63  C    0.093497
    64  C   -0.135955
    65  C    0.010732
    66  C    0.016718
    67  H   -0.034502
    68  H   -0.083827
    69  H   -0.035902
    70  H   -0.001890
    71  H    0.000489
    72  H    0.015940
    73  H    0.026696
    74  H    0.025657
    75  H    0.027080
    76  H    0.009325
    77  H    0.017774
    78  H    0.052104
    79  H    0.035671
    80  H   -0.013589
    81  H    0.023408
    82  H    0.036781
    83  H    0.028174
    84  H    0.044634
    85  H    0.021849
    86  H    0.013314
    87  H    0.009954
    88  H    0.012103
    89  H    0.015273
    90  H    0.008262
    91  H    0.006605
    92  H    0.012363
    93  H    0.030938
    94  H    0.004887
    95  H   -0.000746
    96  H    0.033352
    97  H    0.035433
    98  H    0.030048
    99  H    0.021565
   100  H    0.036212
   101  H    0.042140
   102  H    0.013164
   103  H    0.003549
   104  H    0.001402
   105  H    0.028938
   106  H    0.009170
   107  H    0.027218
   108  H   -0.003276
   109  H    0.001712
   110  H   -0.008144
   111  H   -0.007854
   112  H   -0.012716
   113  H   -0.001314
   114  H   -0.006267
   115  H    0.013292
   116  H   -0.004139
   117  H    0.011587
   118  H    0.000546
   119  H   -0.002689
   120  H   -0.003114
   121  H    0.011268
   122  H   -0.014999
   123  H   -0.003559
   124  H   -0.015155
   125  H    0.015128
   126  H   -0.009224
   127  H    0.004396
   128  H   -0.012675
   129  H   -0.002728
   130  H   -0.009701
   131  H   -0.006123
   132  H   -0.016324
   133  H    0.000499
   134  H    0.001991
   135  H    0.001589
   136  H   -0.002338
   137  H    0.005913
   138  H    0.010198
   139  H    0.001454
   140  H   -0.003206
 Sum of Mulliken charges =  -0.00000

 Dipole moment (field-independent basis, Debye):
    X=              0.1947    Y=              0.9394    Z=              0.5655  Tot=              1.1136
 Quadrupole moment (field-independent basis, Debye-Ang):
   XX=           -422.8039   YY=           -384.5091   ZZ=           -394.1336
   XY=            -38.6958   XZ=             -9.7391   YZ=            -33.7358

 Normal termination of Gaussian 16 at Wed May  4 20:27:18 2022.
