 Gaussian 16, Revision A.03,
 Gaussian 16:  ES64L-G16RevA.03 25-Dec-2016

 ---------------------------------
 #p PBE1PBE/Def2SVP td=(nstates=5)
 ---------------------------------

 -----------------------------------------------------
 step_451_chromophore_11 TDDFT with PBE1PBE functional
 -----------------------------------------------------
 Symbolic Z-matrix:
 Charge =  0 Multiplicity = 1

                         Standard orientation:
 ---------------------------------------------------------------------
 Center     Atomic      Atomic             Coordinates (Angstroms)
 Number     Number       Type             X           Y           Z
 ---------------------------------------------------------------------
      1         12           0       -4.392708    1.365400    0.502640
      2          6           0       -5.418926   -1.923794    0.382823
      3          6           0       -2.709704    0.705407    3.327657
      4          6           0       -3.049027    4.371968    0.265910
      5          6           0       -6.385732    1.975237   -2.281890
      6          7           0       -3.881364   -0.454362    1.525633
      7          6           0       -4.453598   -1.682622    1.351804
      8          6           0       -4.128936   -2.643913    2.520188
      9          6           0       -3.711691   -1.599198    3.631971
     10          6           0       -3.346279   -0.363472    2.787306
     11          6           0       -4.792617   -1.282723    4.768382
     12          6           0       -3.022088   -3.732047    2.073316
     13          6           0       -1.677972   -3.073218    1.649393
     14          6           0       -1.197222   -3.509087    0.252066
     15          8           0       -1.621045   -3.131468   -0.820013
     16          8           0       -0.161186   -4.447769    0.443993
     17          7           0       -2.945203    2.383256    1.564012
     18          6           0       -2.422345    1.937063    2.760618
     19          6           0       -1.490599    2.939408    3.259575
     20          6           0       -1.559162    4.066049    2.381892
     21          6           0       -2.578829    3.647331    1.353298
     22          6           0       -0.701973    2.798128    4.597031
     23          6           0       -0.791130    5.324049    2.480808
     24          8           0       -0.056195    5.434758    3.468755
     25          6           0       -0.830525    6.478683    1.470164
     26          7           0       -4.603072    2.938724   -0.858253
     27          6           0       -3.986243    4.103824   -0.720798
     28          6           0       -4.187990    5.016221   -1.859394
     29          6           0       -5.378866    4.288944   -2.684827
     30          6           0       -5.450385    2.986717   -1.931017
     31          6           0       -4.525089    6.487072   -1.528956
     32          6           0       -5.063520    4.130637   -4.206037
     33          6           0       -6.126044    4.609560   -5.173478
     34          7           0       -5.693459    0.327367   -0.708349
     35          6           0       -6.551618    0.739419   -1.693246
     36          6           0       -7.476763   -0.355207   -1.972625
     37          6           0       -7.025406   -1.391532   -1.165182
     38          6           0       -5.893817   -0.932129   -0.479844
     39          6           0       -8.608163   -0.426357   -2.966557
     40          6           0       -7.335302   -2.774268   -0.846829
     41          8           0       -8.277755   -3.478626   -1.234676
     42          6           0       -6.187769   -3.262321    0.085413
     43          6           0       -5.414042   -4.166817   -0.760810
     44          8           0       -4.686496   -3.843722   -1.687745
     45          8           0       -5.562573   -5.429422   -0.262399
     46          6           0       -4.840170   -6.433133   -1.051804
     47          6           0        0.445758   -4.894335   -0.768087
     48          6           0        1.408067   -3.897559   -1.181192
     49          6           0        2.415938   -3.294216   -0.397940
     50          6           0        2.906203   -3.726046    0.937566
     51          6           0        3.232943   -2.256898   -1.098403
     52          6           0        4.765273   -2.373603   -1.145591
     53          6           0        5.450844   -1.138217   -1.610098
     54          6           0        6.193818   -0.338839   -0.461769
     55          6           0        5.299173    0.728372    0.186801
     56          6           0        7.531629    0.390209   -0.941041
     57          6           0        8.848295   -0.281260   -0.310497
     58          6           0        9.948938    0.724421   -0.195354
     59          6           0       11.162739    0.254059    0.641538
     60          6           0       10.981079    0.345506    2.173322
     61          6           0       12.543201    0.829053    0.044604
     62          6           0       13.216789   -0.145589   -0.941010
     63          6           0       14.376754    0.405463   -1.699426
     64          6           0       15.763822    0.163642   -0.993260
     65          6           0       16.666332    1.439196   -0.812162
     66          6           0       16.565946   -0.964878   -1.762730
     67          1           0       -2.375821    0.578690    4.358800
     68          1           0       -2.565031    5.348174    0.200445
     69          1           0       -7.013476    2.205084   -3.145974
     70          1           0       -5.030418   -3.184265    2.809264
     71          1           0       -2.838310   -1.907397    4.207492
     72          1           0       -4.290093   -1.676789    5.651603
     73          1           0       -5.768166   -1.764486    4.694273
     74          1           0       -4.910476   -0.203169    4.852945
     75          1           0       -3.365765   -4.440179    1.318932
     76          1           0       -2.902073   -4.375006    2.945386
     77          1           0       -0.942367   -3.298903    2.421409
     78          1           0       -1.657203   -1.984091    1.606404
     79          1           0        0.383403    2.777400    4.505896
     80          1           0       -1.035694    1.971203    5.223768
     81          1           0       -0.919688    3.599703    5.303144
     82          1           0       -0.540637    6.182786    0.461682
     83          1           0       -0.077087    7.200733    1.785997
     84          1           0       -1.839723    6.880812    1.379567
     85          1           0       -3.275653    4.931535   -2.450502
     86          1           0       -6.306923    4.820209   -2.471494
     87          1           0       -4.221119    6.776411   -0.523690
     88          1           0       -5.571028    6.793684   -1.522108
     89          1           0       -3.980096    7.114416   -2.234313
     90          1           0       -5.033544    3.053682   -4.374457
     91          1           0       -4.064133    4.433092   -4.516727
     92          1           0       -6.593544    5.551387   -4.885396
     93          1           0       -6.814525    3.802926   -5.424811
     94          1           0       -5.553516    4.931382   -6.043519
     95          1           0       -8.903172    0.517350   -3.425094
     96          1           0       -9.550892   -0.843687   -2.613495
     97          1           0       -8.293693   -1.080649   -3.779881
     98          1           0       -6.588949   -3.811533    0.937287
     99          1           0       -4.961298   -7.389814   -0.542735
    100          1           0       -3.754471   -6.382942   -1.136834
    101          1           0       -5.273017   -6.517088   -2.048750
    102          1           0       -0.159544   -5.275352   -1.590704
    103          1           0        0.990808   -5.806910   -0.524397
    104          1           0        1.259267   -3.518708   -2.192686
    105          1           0        3.898684   -4.146392    0.773836
    106          1           0        2.293699   -4.590055    1.195910
    107          1           0        2.933787   -2.967251    1.719803
    108          1           0        3.005277   -1.411048   -0.449261
    109          1           0        2.911496   -2.043062   -2.118164
    110          1           0        5.028909   -3.122750   -1.892159
    111          1           0        5.083060   -2.730754   -0.165621
    112          1           0        4.699634   -0.398521   -1.884729
    113          1           0        6.044987   -1.350868   -2.499011
    114          1           0        6.305554   -1.110030    0.300523
    115          1           0        5.835492    1.423478    0.832360
    116          1           0        4.593018    0.249837    0.864397
    117          1           0        4.691285    1.233833   -0.563095
    118          1           0        7.482603    1.443665   -0.665879
    119          1           0        7.620187    0.282748   -2.022075
    120          1           0        9.305064   -0.921799   -1.064408
    121          1           0        8.707476   -0.786395    0.645071
    122          1           0        9.524284    1.551736    0.373707
    123          1           0       10.225946    1.125222   -1.170524
    124          1           0       11.377561   -0.814146    0.662442
    125          1           0       11.513701   -0.470648    2.661714
    126          1           0        9.904960    0.227535    2.295664
    127          1           0       11.178483    1.312819    2.636153
    128          1           0       13.216299    1.015228    0.881835
    129          1           0       12.275094    1.754855   -0.464862
    130          1           0       12.536625   -0.584394   -1.670992
    131          1           0       13.632578   -0.989766   -0.389692
    132          1           0       14.291378    1.490479   -1.637777
    133          1           0       14.460501    0.107108   -2.745285
    134          1           0       15.747959   -0.146466    0.052133
    135          1           0       16.448803    2.037115    0.073346
    136          1           0       16.464832    2.150268   -1.612692
    137          1           0       17.748495    1.322945   -0.766442
    138          1           0       16.615828   -0.888269   -2.848948
    139          1           0       16.211467   -1.974215   -1.552152
    140          1           0       17.594842   -1.005594   -1.407703
 ---------------------------------------------------------------------

 SCF Done:  E(RPBE1PBE) =  -3005.37829784     A.U. after   15 cycles

 Excitation energies and oscillator strengths:

 Excited State   1:      Singlet-A      1.8716 eV  662.44 nm  f=0.3740  <S**2>=0.000
     245 -> 248       -0.16013
     246 -> 247        0.69470
     246 <- 247       -0.10791
 This state for optimization and/or second-order correction.
 Total Energy, E(TD-HF/TD-DFT) =  -3005.30951641
 Copying the excited state density for this state as the 1-particle RhoCI density.

 Excited State   2:      Singlet-A      2.3158 eV  535.38 nm  f=0.0863  <S**2>=0.000
     245 -> 247        0.64033
     246 -> 248        0.27926

 Excited State   3:      Singlet-A      2.9426 eV  421.35 nm  f=0.0000  <S**2>=0.000
     244 -> 247        0.70673

 Excited State   4:      Singlet-A      2.9893 eV  414.76 nm  f=0.0001  <S**2>=0.000
     241 -> 247        0.20683
     242 -> 247       -0.18626
     243 -> 247        0.60232
     243 -> 248       -0.10492
     243 -> 249       -0.11374
     243 -> 250        0.11624

 Excited State   5:      Singlet-A      3.0389 eV  407.99 nm  f=0.0018  <S**2>=0.000
     240 -> 247        0.24058
     241 -> 247        0.31451
     242 -> 247        0.53257
     242 -> 249        0.11908

 The electronic state is 1-A.
 Alpha  occ. eigenvalues --  -46.90990 -19.26091 -19.24723 -19.20148 -19.19402
 Alpha  occ. eigenvalues --  -19.19154 -19.18198 -14.41439 -14.41389 -14.38931
 Alpha  occ. eigenvalues --  -14.38413 -10.35900 -10.35584 -10.32059 -10.31738
 Alpha  occ. eigenvalues --  -10.28557 -10.28551 -10.28475 -10.28167 -10.27872
 Alpha  occ. eigenvalues --  -10.27666 -10.27594 -10.27223 -10.27213 -10.26602
 Alpha  occ. eigenvalues --  -10.26451 -10.26165 -10.25857 -10.25810 -10.25786
 Alpha  occ. eigenvalues --  -10.25778 -10.25673 -10.25625 -10.25489 -10.24561
 Alpha  occ. eigenvalues --  -10.24555 -10.24528 -10.24506 -10.24301 -10.24058
 Alpha  occ. eigenvalues --  -10.23943 -10.23859 -10.23791 -10.23662 -10.23660
 Alpha  occ. eigenvalues --  -10.23379 -10.23264 -10.23073 -10.23036 -10.23031
 Alpha  occ. eigenvalues --  -10.22852 -10.22775 -10.22385 -10.22206 -10.22198
 Alpha  occ. eigenvalues --  -10.22122 -10.22111 -10.22061 -10.22002 -10.21906
 Alpha  occ. eigenvalues --  -10.21876 -10.21850 -10.21792 -10.21608 -10.21581
 Alpha  occ. eigenvalues --  -10.21468  -3.13340  -1.86179  -1.85707  -1.85589
 Alpha  occ. eigenvalues --   -1.11174  -1.10112  -1.03588  -1.03550  -1.02789
 Alpha  occ. eigenvalues --   -1.02267  -1.00199  -0.99339  -0.98239  -0.97296
 Alpha  occ. eigenvalues --   -0.87010  -0.84355  -0.83686  -0.83420  -0.83041
 Alpha  occ. eigenvalues --   -0.82718  -0.82254  -0.82076  -0.81150  -0.80942
 Alpha  occ. eigenvalues --   -0.79650  -0.79410  -0.78748  -0.78327  -0.77736
 Alpha  occ. eigenvalues --   -0.76684  -0.76149  -0.75506  -0.75289  -0.74701
 Alpha  occ. eigenvalues --   -0.74196  -0.72521  -0.71968  -0.71302  -0.70597
 Alpha  occ. eigenvalues --   -0.70019  -0.69850  -0.69104  -0.68757  -0.67924
 Alpha  occ. eigenvalues --   -0.67534  -0.66998  -0.66445  -0.64781  -0.63753
 Alpha  occ. eigenvalues --   -0.63082  -0.62035  -0.61766  -0.60668  -0.60599
 Alpha  occ. eigenvalues --   -0.59741  -0.59490  -0.59243  -0.59100  -0.57860
 Alpha  occ. eigenvalues --   -0.57493  -0.57098  -0.57003  -0.56575  -0.54820
 Alpha  occ. eigenvalues --   -0.54393  -0.53520  -0.53102  -0.52842  -0.52625
 Alpha  occ. eigenvalues --   -0.52152  -0.51228  -0.51020  -0.50597  -0.49982
 Alpha  occ. eigenvalues --   -0.49723  -0.49303  -0.49183  -0.48844  -0.48592
 Alpha  occ. eigenvalues --   -0.47899  -0.47770  -0.47556  -0.47498  -0.47254
 Alpha  occ. eigenvalues --   -0.47179  -0.46642  -0.46506  -0.46199  -0.45820
 Alpha  occ. eigenvalues --   -0.45793  -0.45526  -0.45462  -0.45330  -0.44768
 Alpha  occ. eigenvalues --   -0.44627  -0.44482  -0.44339  -0.43966  -0.43691
 Alpha  occ. eigenvalues --   -0.43587  -0.43324  -0.43117  -0.43043  -0.42994
 Alpha  occ. eigenvalues --   -0.42924  -0.42687  -0.42605  -0.41971  -0.41930
 Alpha  occ. eigenvalues --   -0.41881  -0.41483  -0.41393  -0.41240  -0.41158
 Alpha  occ. eigenvalues --   -0.40973  -0.40704  -0.40458  -0.40267  -0.40098
 Alpha  occ. eigenvalues --   -0.39940  -0.39801  -0.39717  -0.39491  -0.39409
 Alpha  occ. eigenvalues --   -0.39320  -0.39181  -0.39028  -0.38744  -0.38672
 Alpha  occ. eigenvalues --   -0.38339  -0.38283  -0.38082  -0.37971  -0.37731
 Alpha  occ. eigenvalues --   -0.37565  -0.37387  -0.37116  -0.37032  -0.36903
 Alpha  occ. eigenvalues --   -0.36727  -0.36648  -0.36397  -0.36010  -0.35893
 Alpha  occ. eigenvalues --   -0.35753  -0.35472  -0.35139  -0.34952  -0.34678
 Alpha  occ. eigenvalues --   -0.34533  -0.34419  -0.34069  -0.33597  -0.33461
 Alpha  occ. eigenvalues --   -0.33135  -0.32828  -0.32551  -0.32356  -0.32179
 Alpha  occ. eigenvalues --   -0.32071  -0.31814  -0.31753  -0.31618  -0.31312
 Alpha  occ. eigenvalues --   -0.30794  -0.30237  -0.30151  -0.29655  -0.29203
 Alpha  occ. eigenvalues --   -0.28732  -0.28582  -0.28406  -0.26985  -0.25808
 Alpha  occ. eigenvalues --   -0.25411  -0.25398  -0.25186  -0.23270  -0.21152
 Alpha  occ. eigenvalues --   -0.18587
 Alpha virt. eigenvalues --   -0.10909  -0.05128  -0.03627  -0.02200  -0.00083
 Alpha virt. eigenvalues --    0.00285   0.00928   0.01417   0.01635   0.03308
 Alpha virt. eigenvalues --    0.04490   0.04875   0.05593   0.05924   0.05954

 Mulliken charges:
               1
     1  Mg   0.987665
     2  C   -0.088237
     3  C   -0.084128
     4  C   -0.071800
     5  C   -0.074013
     6  N   -0.395528
     7  C    0.077471
     8  C   -0.106077
     9  C   -0.117113
    10  C    0.050469
    11  C    0.009501
    12  C    0.019284
    13  C   -0.025540
    14  C    0.219275
    15  O   -0.224036
    16  O   -0.371204
    17  N   -0.482744
    18  C    0.173680
    19  C   -0.133646
    20  C   -0.045276
    21  C    0.166163
    22  C    0.070324
    23  C    0.009005
    24  O   -0.257041
    25  C   -0.013496
    26  N   -0.388120
    27  C    0.084544
    28  C   -0.108937
    29  C   -0.079617
    30  C    0.051289
    31  C    0.012640
    32  C   -0.026359
    33  C   -0.063133
    34  N   -0.455156
    35  C    0.140868
    36  C   -0.168548
    37  C   -0.043287
    38  C    0.256358
    39  C    0.064244
    40  C    0.118032
    41  O   -0.233470
    42  C   -0.092530
    43  C    0.301763
    44  O   -0.235051
    45  O   -0.358874
    46  C    0.125375
    47  C    0.270650
    48  C   -0.196942
    49  C   -0.185816
    50  C    0.032176
    51  C   -0.001080
    52  C   -0.046419
    53  C    0.004228
    54  C   -0.212155
    55  C   -0.028804
    56  C    0.017694
    57  C   -0.061232
    58  C   -0.016190
    59  C   -0.201468
    60  C   -0.014667
    61  C   -0.002179
    62  C   -0.048608
    63  C    0.034400
    64  C   -0.226695
    65  C   -0.048760
    66  C   -0.042500
    67  H   -0.001945
    68  H   -0.044092
    69  H   -0.001997
    70  H    0.035256
    71  H    0.036581
    72  H    0.042919
    73  H    0.053161
    74  H    0.053281
    75  H    0.064266
    76  H    0.042005
    77  H    0.049843
    78  H    0.087854
    79  H    0.062494
    80  H    0.013337
    81  H    0.050644
    82  H    0.063136
    83  H    0.056080
    84  H    0.070590
    85  H    0.059002
    86  H    0.050351
    87  H    0.037388
    88  H    0.038577
    89  H    0.043152
    90  H    0.042949
    91  H    0.037317
    92  H    0.040403
    93  H    0.057258
    94  H    0.033771
    95  H    0.025921
    96  H    0.059712
    97  H    0.062877
    98  H    0.064759
    99  H    0.044014
   100  H    0.057473
   101  H    0.064712
   102  H    0.040444
   103  H    0.031925
   104  H    0.031222
   105  H    0.056727
   106  H    0.038941
   107  H    0.053860
   108  H    0.034695
   109  H    0.032711
   110  H    0.026491
   111  H    0.023447
   112  H    0.021089
   113  H    0.029708
   114  H    0.031706
   115  H    0.041322
   116  H    0.024496
   117  H    0.038546
   118  H    0.031421
   119  H    0.029604
   120  H    0.032105
   121  H    0.041648
   122  H    0.020055
   123  H    0.027787
   124  H    0.023460
   125  H    0.042082
   126  H    0.019706
   127  H    0.032061
   128  H    0.020732
   129  H    0.029378
   130  H    0.023445
   131  H    0.027948
   132  H    0.018667
   133  H    0.031488
   134  H    0.038660
   135  H    0.029441
   136  H    0.025453
   137  H    0.032501
   138  H    0.037026
   139  H    0.029768
   140  H    0.024570
 Sum of Mulliken charges =  -0.00000

 Dipole moment (field-independent basis, Debye):
    X=              0.1952    Y=              0.9391    Z=              0.5227  Tot=              1.0924
 Quadrupole moment (field-independent basis, Debye-Ang):
   XX=           -419.4525   YY=           -381.2202   ZZ=           -389.8029
   XY=            -39.1641   XZ=             -8.8557   YZ=            -35.0085

 Normal termination of Gaussian 16 at Wed May  4 20:44:37 2022.
