 Gaussian 16, Revision A.03,
 Gaussian 16:  ES64L-G16RevA.03 25-Dec-2016

 --------------------------------
 #p wB97XD/Def2SVP td=(nstates=5)
 --------------------------------

 ----------------------------------------------------
 step_451_chromophore_11 TDDFT with wB97XD functional
 ----------------------------------------------------
 Symbolic Z-matrix:
 Charge =  0 Multiplicity = 1

                         Standard orientation:
 ---------------------------------------------------------------------
 Center     Atomic      Atomic             Coordinates (Angstroms)
 Number     Number       Type             X           Y           Z
 ---------------------------------------------------------------------
      1         12           0       -4.392708    1.365400    0.502640
      2          6           0       -5.418926   -1.923794    0.382823
      3          6           0       -2.709704    0.705407    3.327657
      4          6           0       -3.049027    4.371968    0.265910
      5          6           0       -6.385732    1.975237   -2.281890
      6          7           0       -3.881364   -0.454362    1.525633
      7          6           0       -4.453598   -1.682622    1.351804
      8          6           0       -4.128936   -2.643913    2.520188
      9          6           0       -3.711691   -1.599198    3.631971
     10          6           0       -3.346279   -0.363472    2.787306
     11          6           0       -4.792617   -1.282723    4.768382
     12          6           0       -3.022088   -3.732047    2.073316
     13          6           0       -1.677972   -3.073218    1.649393
     14          6           0       -1.197222   -3.509087    0.252066
     15          8           0       -1.621045   -3.131468   -0.820013
     16          8           0       -0.161186   -4.447769    0.443993
     17          7           0       -2.945203    2.383256    1.564012
     18          6           0       -2.422345    1.937063    2.760618
     19          6           0       -1.490599    2.939408    3.259575
     20          6           0       -1.559162    4.066049    2.381892
     21          6           0       -2.578829    3.647331    1.353298
     22          6           0       -0.701973    2.798128    4.597031
     23          6           0       -0.791130    5.324049    2.480808
     24          8           0       -0.056195    5.434758    3.468755
     25          6           0       -0.830525    6.478683    1.470164
     26          7           0       -4.603072    2.938724   -0.858253
     27          6           0       -3.986243    4.103824   -0.720798
     28          6           0       -4.187990    5.016221   -1.859394
     29          6           0       -5.378866    4.288944   -2.684827
     30          6           0       -5.450385    2.986717   -1.931017
     31          6           0       -4.525089    6.487072   -1.528956
     32          6           0       -5.063520    4.130637   -4.206037
     33          6           0       -6.126044    4.609560   -5.173478
     34          7           0       -5.693459    0.327367   -0.708349
     35          6           0       -6.551618    0.739419   -1.693246
     36          6           0       -7.476763   -0.355207   -1.972625
     37          6           0       -7.025406   -1.391532   -1.165182
     38          6           0       -5.893817   -0.932129   -0.479844
     39          6           0       -8.608163   -0.426357   -2.966557
     40          6           0       -7.335302   -2.774268   -0.846829
     41          8           0       -8.277755   -3.478626   -1.234676
     42          6           0       -6.187769   -3.262321    0.085413
     43          6           0       -5.414042   -4.166817   -0.760810
     44          8           0       -4.686496   -3.843722   -1.687745
     45          8           0       -5.562573   -5.429422   -0.262399
     46          6           0       -4.840170   -6.433133   -1.051804
     47          6           0        0.445758   -4.894335   -0.768087
     48          6           0        1.408067   -3.897559   -1.181192
     49          6           0        2.415938   -3.294216   -0.397940
     50          6           0        2.906203   -3.726046    0.937566
     51          6           0        3.232943   -2.256898   -1.098403
     52          6           0        4.765273   -2.373603   -1.145591
     53          6           0        5.450844   -1.138217   -1.610098
     54          6           0        6.193818   -0.338839   -0.461769
     55          6           0        5.299173    0.728372    0.186801
     56          6           0        7.531629    0.390209   -0.941041
     57          6           0        8.848295   -0.281260   -0.310497
     58          6           0        9.948938    0.724421   -0.195354
     59          6           0       11.162739    0.254059    0.641538
     60          6           0       10.981079    0.345506    2.173322
     61          6           0       12.543201    0.829053    0.044604
     62          6           0       13.216789   -0.145589   -0.941010
     63          6           0       14.376754    0.405463   -1.699426
     64          6           0       15.763822    0.163642   -0.993260
     65          6           0       16.666332    1.439196   -0.812162
     66          6           0       16.565946   -0.964878   -1.762730
     67          1           0       -2.375821    0.578690    4.358800
     68          1           0       -2.565031    5.348174    0.200445
     69          1           0       -7.013476    2.205084   -3.145974
     70          1           0       -5.030418   -3.184265    2.809264
     71          1           0       -2.838310   -1.907397    4.207492
     72          1           0       -4.290093   -1.676789    5.651603
     73          1           0       -5.768166   -1.764486    4.694273
     74          1           0       -4.910476   -0.203169    4.852945
     75          1           0       -3.365765   -4.440179    1.318932
     76          1           0       -2.902073   -4.375006    2.945386
     77          1           0       -0.942367   -3.298903    2.421409
     78          1           0       -1.657203   -1.984091    1.606404
     79          1           0        0.383403    2.777400    4.505896
     80          1           0       -1.035694    1.971203    5.223768
     81          1           0       -0.919688    3.599703    5.303144
     82          1           0       -0.540637    6.182786    0.461682
     83          1           0       -0.077087    7.200733    1.785997
     84          1           0       -1.839723    6.880812    1.379567
     85          1           0       -3.275653    4.931535   -2.450502
     86          1           0       -6.306923    4.820209   -2.471494
     87          1           0       -4.221119    6.776411   -0.523690
     88          1           0       -5.571028    6.793684   -1.522108
     89          1           0       -3.980096    7.114416   -2.234313
     90          1           0       -5.033544    3.053682   -4.374457
     91          1           0       -4.064133    4.433092   -4.516727
     92          1           0       -6.593544    5.551387   -4.885396
     93          1           0       -6.814525    3.802926   -5.424811
     94          1           0       -5.553516    4.931382   -6.043519
     95          1           0       -8.903172    0.517350   -3.425094
     96          1           0       -9.550892   -0.843687   -2.613495
     97          1           0       -8.293693   -1.080649   -3.779881
     98          1           0       -6.588949   -3.811533    0.937287
     99          1           0       -4.961298   -7.389814   -0.542735
    100          1           0       -3.754471   -6.382942   -1.136834
    101          1           0       -5.273017   -6.517088   -2.048750
    102          1           0       -0.159544   -5.275352   -1.590704
    103          1           0        0.990808   -5.806910   -0.524397
    104          1           0        1.259267   -3.518708   -2.192686
    105          1           0        3.898684   -4.146392    0.773836
    106          1           0        2.293699   -4.590055    1.195910
    107          1           0        2.933787   -2.967251    1.719803
    108          1           0        3.005277   -1.411048   -0.449261
    109          1           0        2.911496   -2.043062   -2.118164
    110          1           0        5.028909   -3.122750   -1.892159
    111          1           0        5.083060   -2.730754   -0.165621
    112          1           0        4.699634   -0.398521   -1.884729
    113          1           0        6.044987   -1.350868   -2.499011
    114          1           0        6.305554   -1.110030    0.300523
    115          1           0        5.835492    1.423478    0.832360
    116          1           0        4.593018    0.249837    0.864397
    117          1           0        4.691285    1.233833   -0.563095
    118          1           0        7.482603    1.443665   -0.665879
    119          1           0        7.620187    0.282748   -2.022075
    120          1           0        9.305064   -0.921799   -1.064408
    121          1           0        8.707476   -0.786395    0.645071
    122          1           0        9.524284    1.551736    0.373707
    123          1           0       10.225946    1.125222   -1.170524
    124          1           0       11.377561   -0.814146    0.662442
    125          1           0       11.513701   -0.470648    2.661714
    126          1           0        9.904960    0.227535    2.295664
    127          1           0       11.178483    1.312819    2.636153
    128          1           0       13.216299    1.015228    0.881835
    129          1           0       12.275094    1.754855   -0.464862
    130          1           0       12.536625   -0.584394   -1.670992
    131          1           0       13.632578   -0.989766   -0.389692
    132          1           0       14.291378    1.490479   -1.637777
    133          1           0       14.460501    0.107108   -2.745285
    134          1           0       15.747959   -0.146466    0.052133
    135          1           0       16.448803    2.037115    0.073346
    136          1           0       16.464832    2.150268   -1.612692
    137          1           0       17.748495    1.322945   -0.766442
    138          1           0       16.615828   -0.888269   -2.848948
    139          1           0       16.211467   -1.974215   -1.552152
    140          1           0       17.594842   -1.005594   -1.407703
 ---------------------------------------------------------------------

 SCF Done:  E(RwB97XD) =  -3007.88670929     A.U. after   20 cycles

 Excitation energies and oscillator strengths:

 Excited State   1:      Singlet-A      1.6621 eV  745.96 nm  f=0.3798  <S**2>=0.000
     245 -> 248       -0.17640
     246 -> 247        0.68488
     245 <- 248       -0.11367
 This state for optimization and/or second-order correction.
 Total Energy, E(TD-HF/TD-DFT) =  -3007.82562889
 Copying the excited state density for this state as the 1-particle RhoCI density.

 Excited State   2:      Singlet-A      2.2588 eV  548.91 nm  f=0.0793  <S**2>=0.000
     245 -> 247        0.62305
     246 -> 248        0.31764

 Excited State   3:      Singlet-A      3.4870 eV  355.56 nm  f=0.0121  <S**2>=0.000
     241 -> 247        0.41194
     241 -> 248       -0.16108
     241 -> 249        0.24834
     241 -> 250        0.26649
     243 -> 247       -0.35412
     246 -> 248        0.10700

 Excited State   4:      Singlet-A      3.5344 eV  350.79 nm  f=0.0658  <S**2>=0.000
     239 -> 247        0.12445
     240 -> 247        0.39534
     240 -> 249       -0.27963
     240 -> 250        0.17489
     242 -> 247       -0.30657
     242 -> 249        0.13339
     245 -> 247        0.10515
     246 -> 248       -0.18857

 Excited State   5:      Singlet-A      3.5570 eV  348.57 nm  f=0.0534  <S**2>=0.000
     240 -> 247       -0.15911
     240 -> 249        0.10343
     241 -> 247        0.29879
     241 -> 249        0.12862
     241 -> 250        0.12619
     243 -> 247        0.51855
     246 -> 248       -0.20045

 The electronic state is 1-A.
 Alpha  occ. eigenvalues --  -46.93965 -19.30689 -19.29252 -19.24808 -19.24132
 Alpha  occ. eigenvalues --  -19.23995 -19.23035 -14.46578 -14.46394 -14.43921
 Alpha  occ. eigenvalues --  -14.43363 -10.42672 -10.42433 -10.38935 -10.38593
 Alpha  occ. eigenvalues --  -10.35088 -10.34766 -10.34755 -10.34459 -10.34162
 Alpha  occ. eigenvalues --  -10.34145 -10.33947 -10.33566 -10.33496 -10.32845
 Alpha  occ. eigenvalues --  -10.32686 -10.32650 -10.32200 -10.32197 -10.32108
 Alpha  occ. eigenvalues --  -10.32024 -10.32016 -10.31970 -10.31732 -10.30980
 Alpha  occ. eigenvalues --  -10.30957 -10.30949 -10.30869 -10.30673 -10.30340
 Alpha  occ. eigenvalues --  -10.30328 -10.30254 -10.30158 -10.30130 -10.30128
 Alpha  occ. eigenvalues --  -10.29732 -10.29645 -10.29569 -10.29410 -10.29309
 Alpha  occ. eigenvalues --  -10.29290 -10.29135 -10.28760 -10.28578 -10.28545
 Alpha  occ. eigenvalues --  -10.28490 -10.28429 -10.28426 -10.28369 -10.28260
 Alpha  occ. eigenvalues --  -10.28256 -10.28240 -10.28225 -10.28036 -10.28022
 Alpha  occ. eigenvalues --  -10.27890  -3.20136  -1.93730  -1.93260  -1.93141
 Alpha  occ. eigenvalues --   -1.18599  -1.17477  -1.11106  -1.11065  -1.10115
 Alpha  occ. eigenvalues --   -1.09671  -1.07538  -1.06697  -1.05618  -1.04664
 Alpha  occ. eigenvalues --   -0.94628  -0.92015  -0.91279  -0.91096  -0.90610
 Alpha  occ. eigenvalues --   -0.90362  -0.89827  -0.89739  -0.88810  -0.88555
 Alpha  occ. eigenvalues --   -0.87308  -0.87079  -0.86368  -0.85962  -0.85387
 Alpha  occ. eigenvalues --   -0.84333  -0.83847  -0.83104  -0.82991  -0.82369
 Alpha  occ. eigenvalues --   -0.81851  -0.80116  -0.79601  -0.78978  -0.78241
 Alpha  occ. eigenvalues --   -0.77671  -0.77459  -0.76805  -0.76442  -0.75594
 Alpha  occ. eigenvalues --   -0.75087  -0.74557  -0.74004  -0.72409  -0.71282
 Alpha  occ. eigenvalues --   -0.70628  -0.69593  -0.69375  -0.68259  -0.68110
 Alpha  occ. eigenvalues --   -0.67175  -0.67006  -0.66798  -0.66585  -0.65400
 Alpha  occ. eigenvalues --   -0.65129  -0.64754  -0.64428  -0.64220  -0.62215
 Alpha  occ. eigenvalues --   -0.61826  -0.60944  -0.60508  -0.60337  -0.60099
 Alpha  occ. eigenvalues --   -0.59595  -0.58722  -0.58428  -0.58033  -0.57383
 Alpha  occ. eigenvalues --   -0.57167  -0.56785  -0.56582  -0.56306  -0.55974
 Alpha  occ. eigenvalues --   -0.55272  -0.55104  -0.54909  -0.54882  -0.54657
 Alpha  occ. eigenvalues --   -0.54451  -0.54051  -0.53875  -0.53604  -0.53254
 Alpha  occ. eigenvalues --   -0.53209  -0.53065  -0.52854  -0.52705  -0.52075
 Alpha  occ. eigenvalues --   -0.51942  -0.51741  -0.51679  -0.51307  -0.51035
 Alpha  occ. eigenvalues --   -0.50909  -0.50577  -0.50440  -0.50323  -0.50299
 Alpha  occ. eigenvalues --   -0.50270  -0.50007  -0.49884  -0.49260  -0.49193
 Alpha  occ. eigenvalues --   -0.49157  -0.48712  -0.48632  -0.48487  -0.48434
 Alpha  occ. eigenvalues --   -0.48173  -0.47906  -0.47659  -0.47489  -0.47301
 Alpha  occ. eigenvalues --   -0.47145  -0.47008  -0.46914  -0.46685  -0.46587
 Alpha  occ. eigenvalues --   -0.46496  -0.46356  -0.46277  -0.45893  -0.45831
 Alpha  occ. eigenvalues --   -0.45505  -0.45397  -0.45260  -0.45150  -0.44976
 Alpha  occ. eigenvalues --   -0.44683  -0.44504  -0.44254  -0.44088  -0.43958
 Alpha  occ. eigenvalues --   -0.43837  -0.43744  -0.43550  -0.43043  -0.42873
 Alpha  occ. eigenvalues --   -0.42778  -0.42591  -0.42234  -0.41934  -0.41701
 Alpha  occ. eigenvalues --   -0.41599  -0.41487  -0.41112  -0.40668  -0.40488
 Alpha  occ. eigenvalues --   -0.40030  -0.39878  -0.39542  -0.39403  -0.39165
 Alpha  occ. eigenvalues --   -0.39100  -0.38880  -0.38698  -0.38591  -0.38344
 Alpha  occ. eigenvalues --   -0.37781  -0.37190  -0.37145  -0.36454  -0.35938
 Alpha  occ. eigenvalues --   -0.35836  -0.35681  -0.35202  -0.33602  -0.32666
 Alpha  occ. eigenvalues --   -0.32513  -0.32197  -0.31921  -0.29904  -0.26187
 Alpha  occ. eigenvalues --   -0.22717
 Alpha virt. eigenvalues --   -0.06710   0.00308   0.02620   0.04317   0.05842
 Alpha virt. eigenvalues --    0.06876   0.07710   0.08132   0.08480   0.09780
 Alpha virt. eigenvalues --    0.11188   0.11635   0.12369   0.12644   0.12674

 Mulliken charges:
               1
     1  Mg   0.977191
     2  C   -0.091616
     3  C   -0.102114
     4  C   -0.076566
     5  C   -0.090778
     6  N   -0.365849
     7  C    0.038013
     8  C   -0.074133
     9  C   -0.099004
    10  C    0.046925
    11  C    0.018326
    12  C    0.029244
    13  C   -0.005213
    14  C    0.206444
    15  O   -0.220171
    16  O   -0.370835
    17  N   -0.447848
    18  C    0.169009
    19  C   -0.129833
    20  C   -0.036113
    21  C    0.157617
    22  C    0.080127
    23  C    0.003010
    24  O   -0.252558
    25  C    0.002070
    26  N   -0.350771
    27  C    0.067778
    28  C   -0.081687
    29  C   -0.054220
    30  C    0.038706
    31  C    0.022373
    32  C   -0.013201
    33  C   -0.047153
    34  N   -0.413051
    35  C    0.133638
    36  C   -0.166439
    37  C   -0.040602
    38  C    0.235149
    39  C    0.072673
    40  C    0.102997
    41  O   -0.223268
    42  C   -0.048890
    43  C    0.271934
    44  O   -0.228891
    45  O   -0.356907
    46  C    0.140229
    47  C    0.286076
    48  C   -0.202700
    49  C   -0.178772
    50  C    0.046296
    51  C    0.021998
    52  C   -0.028239
    53  C    0.018912
    54  C   -0.182955
    55  C   -0.015213
    56  C    0.032588
    57  C   -0.042529
    58  C    0.002812
    59  C   -0.174996
    60  C   -0.002410
    61  C    0.013079
    62  C   -0.030952
    63  C    0.051359
    64  C   -0.201248
    65  C   -0.036042
    66  C   -0.029446
    67  H   -0.009837
    68  H   -0.065020
    69  H   -0.008894
    70  H    0.025185
    71  H    0.027047
    72  H    0.037578
    73  H    0.048578
    74  H    0.046434
    75  H    0.051841
    76  H    0.035797
    77  H    0.045221
    78  H    0.076128
    79  H    0.059520
    80  H    0.008366
    81  H    0.046382
    82  H    0.058401
    83  H    0.055191
    84  H    0.064628
    85  H    0.048482
    86  H    0.038631
    87  H    0.030099
    88  H    0.033915
    89  H    0.037943
    90  H    0.032583
    91  H    0.030937
    92  H    0.033592
    93  H    0.051881
    94  H    0.027902
    95  H    0.020969
    96  H    0.056366
    97  H    0.058178
    98  H    0.060795
    99  H    0.040634
   100  H    0.053496
   101  H    0.060804
   102  H    0.037851
   103  H    0.026806
   104  H    0.027826
   105  H    0.050169
   106  H    0.032495
   107  H    0.050021
   108  H    0.019540
   109  H    0.025753
   110  H    0.019170
   111  H    0.010365
   112  H    0.007591
   113  H    0.023826
   114  H    0.017174
   115  H    0.035387
   116  H    0.017520
   117  H    0.032077
   118  H    0.021735
   119  H    0.021795
   120  H    0.021725
   121  H    0.031771
   122  H    0.007719
   123  H    0.020038
   124  H    0.008909
   125  H    0.037702
   126  H    0.011030
   127  H    0.026679
   128  H    0.012267
   129  H    0.019676
   130  H    0.015561
   131  H    0.016506
   132  H    0.006073
   133  H    0.025590
   134  H    0.027858
   135  H    0.023325
   136  H    0.017999
   137  H    0.027370
   138  H    0.030691
   139  H    0.023455
   140  H    0.017847
 Sum of Mulliken charges =  -0.00000

 Dipole moment (field-independent basis, Debye):
    X=              0.2166    Y=              0.9655    Z=              0.6030  Tot=              1.1588
 Quadrupole moment (field-independent basis, Debye-Ang):
   XX=           -418.9009   YY=           -380.0389   ZZ=           -389.7652
   XY=            -38.5582   XZ=             -9.1141   YZ=            -34.3422

 Normal termination of Gaussian 16 at Wed May  4 21:14:24 2022.
