 Gaussian 16, Revision A.03,
 Gaussian 16:  ES64L-G16RevA.03 25-Dec-2016

 --------------------
 #p ZINDO=(nstates=5)
 --------------------

 -----------------------------
 step_451_chromophore_11 ZINDO
 -----------------------------
 Symbolic Z-matrix:
 Charge =  0 Multiplicity = 1

                         Standard orientation:
 ---------------------------------------------------------------------
 Center     Atomic      Atomic             Coordinates (Angstroms)
 Number     Number       Type             X           Y           Z
 ---------------------------------------------------------------------
      1         12           0       -4.392708    1.365400    0.502640
      2          6           0       -5.418926   -1.923794    0.382823
      3          6           0       -2.709704    0.705407    3.327657
      4          6           0       -3.049027    4.371968    0.265910
      5          6           0       -6.385732    1.975237   -2.281890
      6          7           0       -3.881364   -0.454362    1.525633
      7          6           0       -4.453598   -1.682622    1.351804
      8          6           0       -4.128936   -2.643913    2.520188
      9          6           0       -3.711691   -1.599198    3.631971
     10          6           0       -3.346279   -0.363472    2.787306
     11          6           0       -4.792617   -1.282723    4.768382
     12          6           0       -3.022088   -3.732047    2.073316
     13          6           0       -1.677972   -3.073218    1.649393
     14          6           0       -1.197222   -3.509087    0.252066
     15          8           0       -1.621045   -3.131468   -0.820013
     16          8           0       -0.161186   -4.447769    0.443993
     17          7           0       -2.945203    2.383256    1.564012
     18          6           0       -2.422345    1.937063    2.760618
     19          6           0       -1.490599    2.939408    3.259575
     20          6           0       -1.559162    4.066049    2.381892
     21          6           0       -2.578829    3.647331    1.353298
     22          6           0       -0.701973    2.798128    4.597031
     23          6           0       -0.791130    5.324049    2.480808
     24          8           0       -0.056195    5.434758    3.468755
     25          6           0       -0.830525    6.478683    1.470164
     26          7           0       -4.603072    2.938724   -0.858253
     27          6           0       -3.986243    4.103824   -0.720798
     28          6           0       -4.187990    5.016221   -1.859394
     29          6           0       -5.378866    4.288944   -2.684827
     30          6           0       -5.450385    2.986717   -1.931017
     31          6           0       -4.525089    6.487072   -1.528956
     32          6           0       -5.063520    4.130637   -4.206037
     33          6           0       -6.126044    4.609560   -5.173478
     34          7           0       -5.693459    0.327367   -0.708349
     35          6           0       -6.551618    0.739419   -1.693246
     36          6           0       -7.476763   -0.355207   -1.972625
     37          6           0       -7.025406   -1.391532   -1.165182
     38          6           0       -5.893817   -0.932129   -0.479844
     39          6           0       -8.608163   -0.426357   -2.966557
     40          6           0       -7.335302   -2.774268   -0.846829
     41          8           0       -8.277755   -3.478626   -1.234676
     42          6           0       -6.187769   -3.262321    0.085413
     43          6           0       -5.414042   -4.166817   -0.760810
     44          8           0       -4.686496   -3.843722   -1.687745
     45          8           0       -5.562573   -5.429422   -0.262399
     46          6           0       -4.840170   -6.433133   -1.051804
     47          6           0        0.445758   -4.894335   -0.768087
     48          6           0        1.408067   -3.897559   -1.181192
     49          6           0        2.415938   -3.294216   -0.397940
     50          6           0        2.906203   -3.726046    0.937566
     51          6           0        3.232943   -2.256898   -1.098403
     52          6           0        4.765273   -2.373603   -1.145591
     53          6           0        5.450844   -1.138217   -1.610098
     54          6           0        6.193818   -0.338839   -0.461769
     55          6           0        5.299173    0.728372    0.186801
     56          6           0        7.531629    0.390209   -0.941041
     57          6           0        8.848295   -0.281260   -0.310497
     58          6           0        9.948938    0.724421   -0.195354
     59          6           0       11.162739    0.254059    0.641538
     60          6           0       10.981079    0.345506    2.173322
     61          6           0       12.543201    0.829053    0.044604
     62          6           0       13.216789   -0.145589   -0.941010
     63          6           0       14.376754    0.405463   -1.699426
     64          6           0       15.763822    0.163642   -0.993260
     65          6           0       16.666332    1.439196   -0.812162
     66          6           0       16.565946   -0.964878   -1.762730
     67          1           0       -2.375821    0.578690    4.358800
     68          1           0       -2.565031    5.348174    0.200445
     69          1           0       -7.013476    2.205084   -3.145974
     70          1           0       -5.030418   -3.184265    2.809264
     71          1           0       -2.838310   -1.907397    4.207492
     72          1           0       -4.290093   -1.676789    5.651603
     73          1           0       -5.768166   -1.764486    4.694273
     74          1           0       -4.910476   -0.203169    4.852945
     75          1           0       -3.365765   -4.440179    1.318932
     76          1           0       -2.902073   -4.375006    2.945386
     77          1           0       -0.942367   -3.298903    2.421409
     78          1           0       -1.657203   -1.984091    1.606404
     79          1           0        0.383403    2.777400    4.505896
     80          1           0       -1.035694    1.971203    5.223768
     81          1           0       -0.919688    3.599703    5.303144
     82          1           0       -0.540637    6.182786    0.461682
     83          1           0       -0.077087    7.200733    1.785997
     84          1           0       -1.839723    6.880812    1.379567
     85          1           0       -3.275653    4.931535   -2.450502
     86          1           0       -6.306923    4.820209   -2.471494
     87          1           0       -4.221119    6.776411   -0.523690
     88          1           0       -5.571028    6.793684   -1.522108
     89          1           0       -3.980096    7.114416   -2.234313
     90          1           0       -5.033544    3.053682   -4.374457
     91          1           0       -4.064133    4.433092   -4.516727
     92          1           0       -6.593544    5.551387   -4.885396
     93          1           0       -6.814525    3.802926   -5.424811
     94          1           0       -5.553516    4.931382   -6.043519
     95          1           0       -8.903172    0.517350   -3.425094
     96          1           0       -9.550892   -0.843687   -2.613495
     97          1           0       -8.293693   -1.080649   -3.779881
     98          1           0       -6.588949   -3.811533    0.937287
     99          1           0       -4.961298   -7.389814   -0.542735
    100          1           0       -3.754471   -6.382942   -1.136834
    101          1           0       -5.273017   -6.517088   -2.048750
    102          1           0       -0.159544   -5.275352   -1.590704
    103          1           0        0.990808   -5.806910   -0.524397
    104          1           0        1.259267   -3.518708   -2.192686
    105          1           0        3.898684   -4.146392    0.773836
    106          1           0        2.293699   -4.590055    1.195910
    107          1           0        2.933787   -2.967251    1.719803
    108          1           0        3.005277   -1.411048   -0.449261
    109          1           0        2.911496   -2.043062   -2.118164
    110          1           0        5.028909   -3.122750   -1.892159
    111          1           0        5.083060   -2.730754   -0.165621
    112          1           0        4.699634   -0.398521   -1.884729
    113          1           0        6.044987   -1.350868   -2.499011
    114          1           0        6.305554   -1.110030    0.300523
    115          1           0        5.835492    1.423478    0.832360
    116          1           0        4.593018    0.249837    0.864397
    117          1           0        4.691285    1.233833   -0.563095
    118          1           0        7.482603    1.443665   -0.665879
    119          1           0        7.620187    0.282748   -2.022075
    120          1           0        9.305064   -0.921799   -1.064408
    121          1           0        8.707476   -0.786395    0.645071
    122          1           0        9.524284    1.551736    0.373707
    123          1           0       10.225946    1.125222   -1.170524
    124          1           0       11.377561   -0.814146    0.662442
    125          1           0       11.513701   -0.470648    2.661714
    126          1           0        9.904960    0.227535    2.295664
    127          1           0       11.178483    1.312819    2.636153
    128          1           0       13.216299    1.015228    0.881835
    129          1           0       12.275094    1.754855   -0.464862
    130          1           0       12.536625   -0.584394   -1.670992
    131          1           0       13.632578   -0.989766   -0.389692
    132          1           0       14.291378    1.490479   -1.637777
    133          1           0       14.460501    0.107108   -2.745285
    134          1           0       15.747959   -0.146466    0.052133
    135          1           0       16.448803    2.037115    0.073346
    136          1           0       16.464832    2.150268   -1.612692
    137          1           0       17.748495    1.322945   -0.766442
    138          1           0       16.615828   -0.888269   -2.848948
    139          1           0       16.211467   -1.974215   -1.552152
    140          1           0       17.594842   -1.005594   -1.407703
 ---------------------------------------------------------------------

 SCF Done:  E(RZINDO/S) =  -474.520165812     A.U. after   19 cycles

 Excitation energies and oscillator strengths:

 Excited State   1:      Singlet-A      1.2443 eV  996.44 nm  f=0.6057  <S**2>=0.000
     175 ->178        -0.18821
     176 ->177         0.66377
 This state for optimization and/or second-order correction.
 Total Energy, E(CIS/TDA) =  -474.474439574
 Copying the excited state density for this state as the 1-particle RhoCI density.

 Excited State   2:      Singlet-A      1.9461 eV  637.10 nm  f=0.0159  <S**2>=0.000
     175 ->177         0.52172
     176 ->178         0.45449

 Excited State   3:      Singlet-A      2.9041 eV  426.93 nm  f=0.0026  <S**2>=0.000
     168 ->177         0.11228
     168 ->179         0.10730
     168 ->180        -0.14152
     169 ->177         0.22701
     169 ->178        -0.12561
     169 ->179         0.20958
     169 ->180        -0.29332
     169 ->186         0.14435
     169 ->187         0.10163
     170 ->177        -0.19473
     170 ->179        -0.14872
     170 ->180         0.23005
     170 ->186        -0.10431

 Excited State   4:      Singlet-A      2.9800 eV  416.06 nm  f=0.0299  <S**2>=0.000
     169 ->177        -0.12076
     169 ->179         0.19700
     169 ->180         0.10576
     170 ->177        -0.21015
     170 ->179         0.26342
     170 ->180         0.15306
     170 ->186         0.10752
     176 ->178        -0.10126
     176 ->179         0.42743

 Excited State   5:      Singlet-A      2.9839 eV  415.50 nm  f=0.2873  <S**2>=0.000
     169 ->177         0.13244
     169 ->179        -0.11670
     170 ->177         0.13877
     170 ->179        -0.23289
     170 ->186        -0.10051
     175 ->177         0.20272
     176 ->178        -0.27862
     176 ->179         0.39206
     176 ->180        -0.10440

 The electronic state is 1-A.
 Alpha  occ. eigenvalues --   -1.87636  -1.83255  -1.81633  -1.73724  -1.73557
 Alpha  occ. eigenvalues --   -1.71279  -1.63897  -1.60940  -1.58542  -1.58401
 Alpha  occ. eigenvalues --   -1.54772  -1.50771  -1.48381  -1.48077  -1.46499
 Alpha  occ. eigenvalues --   -1.43379  -1.42429  -1.40687  -1.38383  -1.38223
 Alpha  occ. eigenvalues --   -1.35513  -1.33004  -1.32391  -1.31050  -1.28383
 Alpha  occ. eigenvalues --   -1.27427  -1.27101  -1.23117  -1.21357  -1.18597
 Alpha  occ. eigenvalues --   -1.18060  -1.15724  -1.15340  -1.13929  -1.13165
 Alpha  occ. eigenvalues --   -1.12984  -1.10449  -1.09774  -1.05936  -1.04109
 Alpha  occ. eigenvalues --   -1.02409  -1.01416  -1.00033  -0.97815  -0.96344
 Alpha  occ. eigenvalues --   -0.95848  -0.94460  -0.92984  -0.92208  -0.91362
 Alpha  occ. eigenvalues --   -0.90826  -0.90541  -0.89159  -0.88403  -0.87433
 Alpha  occ. eigenvalues --   -0.86358  -0.85466  -0.83530  -0.81539  -0.79609
 Alpha  occ. eigenvalues --   -0.79438  -0.78700  -0.77724  -0.76748  -0.76448
 Alpha  occ. eigenvalues --   -0.75944  -0.75094  -0.74970  -0.73763  -0.73529
 Alpha  occ. eigenvalues --   -0.73226  -0.72368  -0.72033  -0.71394  -0.70812
 Alpha  occ. eigenvalues --   -0.70459  -0.69532  -0.69178  -0.68602  -0.68363
 Alpha  occ. eigenvalues --   -0.67807  -0.66872  -0.66001  -0.65832  -0.64798
 Alpha  occ. eigenvalues --   -0.64452  -0.64076  -0.63600  -0.63326  -0.62881
 Alpha  occ. eigenvalues --   -0.62637  -0.62274  -0.62214  -0.62041  -0.61384
 Alpha  occ. eigenvalues --   -0.61153  -0.60880  -0.60500  -0.59852  -0.59692
 Alpha  occ. eigenvalues --   -0.59576  -0.59221  -0.58336  -0.58244  -0.58101
 Alpha  occ. eigenvalues --   -0.57318  -0.57020  -0.56312  -0.56059  -0.55952
 Alpha  occ. eigenvalues --   -0.55800  -0.55284  -0.55053  -0.54955  -0.54798
 Alpha  occ. eigenvalues --   -0.54157  -0.53862  -0.53797  -0.53198  -0.52956
 Alpha  occ. eigenvalues --   -0.52575  -0.52502  -0.51855  -0.51793  -0.51617
 Alpha  occ. eigenvalues --   -0.51313  -0.50884  -0.50559  -0.50192  -0.49913
 Alpha  occ. eigenvalues --   -0.49577  -0.49400  -0.49209  -0.49031  -0.48756
 Alpha  occ. eigenvalues --   -0.48461  -0.48209  -0.47758  -0.47586  -0.47221
 Alpha  occ. eigenvalues --   -0.47032  -0.46994  -0.46756  -0.46419  -0.46150
 Alpha  occ. eigenvalues --   -0.46050  -0.45880  -0.45696  -0.45411  -0.45197
 Alpha  occ. eigenvalues --   -0.44895  -0.44860  -0.44816  -0.44391  -0.44149
 Alpha  occ. eigenvalues --   -0.43962  -0.43506  -0.42696  -0.42630  -0.41740
 Alpha  occ. eigenvalues --   -0.41540  -0.41127  -0.40573  -0.39313  -0.38584
 Alpha  occ. eigenvalues --   -0.38011  -0.37029  -0.35233  -0.35103  -0.34857
 Alpha  occ. eigenvalues --   -0.33111  -0.32737  -0.32513  -0.29862  -0.26857
 Alpha  occ. eigenvalues --   -0.21521
 Alpha virt. eigenvalues --   -0.08246  -0.02013  -0.00584   0.01090   0.02517
 Alpha virt. eigenvalues --    0.02797   0.03014   0.03364   0.04782   0.05265
 Alpha virt. eigenvalues --    0.06403   0.07374   0.07553   0.07989   0.08328

 Mulliken charges:
               1
     1  Mg   0.429342
     2  C   -0.042751
     3  C   -0.067415
     4  C   -0.086757
     5  C   -0.055275
     6  N   -0.294487
     7  C    0.126460
     8  C   -0.001143
     9  C   -0.002150
    10  C    0.128918
    11  C   -0.053981
    12  C   -0.015385
    13  C    0.005775
    14  C    0.466425
    15  O   -0.484058
    16  O   -0.274439
    17  N   -0.313138
    18  C    0.106381
    19  C    0.033572
    20  C   -0.048666
    21  C    0.123802
    22  C   -0.040762
    23  C    0.325345
    24  O   -0.532186
    25  C   -0.027947
    26  N   -0.256146
    27  C    0.143689
    28  C    0.002467
    29  C   -0.003179
    30  C    0.110450
    31  C   -0.053096
    32  C   -0.029845
    33  C   -0.056820
    34  N   -0.306761
    35  C    0.094259
    36  C    0.039803
    37  C   -0.051634
    38  C    0.145901
    39  C   -0.036936
    40  C    0.334173
    41  O   -0.531668
    42  C    0.054131
    43  C    0.498098
    44  O   -0.513978
    45  O   -0.263582
    46  C    0.073660
    47  C    0.115071
    48  C   -0.085739
    49  C   -0.014919
    50  C   -0.037355
    51  C   -0.024131
    52  C   -0.027532
    53  C   -0.036581
    54  C   -0.022490
    55  C   -0.055659
    56  C   -0.041125
    57  C   -0.042154
    58  C   -0.024116
    59  C   -0.030833
    60  C   -0.057633
    61  C   -0.035659
    62  C   -0.025555
    63  C   -0.027528
    64  C   -0.013292
    65  C   -0.064044
    66  C   -0.062396
    67  H    0.022508
    68  H    0.015590
    69  H    0.024374
    70  H    0.023575
    71  H    0.023951
    72  H    0.017676
    73  H    0.029369
    74  H    0.028924
    75  H    0.039393
    76  H    0.016662
    77  H    0.027847
    78  H    0.048090
    79  H    0.042663
    80  H    0.013592
    81  H    0.031984
    82  H    0.032478
    83  H    0.038033
    84  H    0.039359
    85  H    0.040100
    86  H    0.037142
    87  H    0.017183
    88  H    0.025029
    89  H    0.016962
    90  H    0.015877
    91  H    0.028096
    92  H    0.020165
    93  H    0.031577
    94  H    0.012107
    95  H    0.014893
    96  H    0.036187
    97  H    0.036334
    98  H    0.054725
    99  H    0.017306
   100  H    0.048065
   101  H    0.047596
   102  H    0.048944
   103  H    0.018003
   104  H    0.031313
   105  H    0.027757
   106  H    0.018904
   107  H    0.036427
   108  H    0.021648
   109  H    0.023205
   110  H    0.011454
   111  H    0.022887
   112  H    0.015804
   113  H    0.022543
   114  H    0.022802
   115  H    0.019355
   116  H    0.005726
   117  H    0.022618
   118  H    0.028092
   119  H    0.021947
   120  H    0.017748
   121  H    0.032553
   122  H    0.009797
   123  H    0.021433
   124  H    0.015630
   125  H    0.022729
   126  H    0.012975
   127  H    0.019521
   128  H    0.021819
   129  H    0.021533
   130  H    0.016437
   131  H    0.014833
   132  H    0.013342
   133  H    0.028177
   134  H    0.024905
   135  H    0.011745
   136  H    0.009437
   137  H    0.021439
   138  H    0.022197
   139  H    0.012528
   140  H    0.009584
 Sum of Mulliken charges =  -0.00000

 Dipole moment (field-independent basis, Debye):
    X=             -0.5136    Y=              1.7327    Z=              2.0865  Tot=              2.7604
 N-N= 4.414283346053D+03 E-N= 0.000000000000D+00  KE=-9.503690328349D+03
 Leave Link  601 at Wed May  4 21:27:54 2022, MaxMem=  6710886400 cpu:               0.8 elap:               0.0
 (Enter /sw/apps/gaussian-16.0/g16/l9999.exe)
 1\1\GINC-BP1-COMPUTE123\SP\RZINDO CIS\STO-3G\C55H74Mg1N4O6\OF15641\04-
 May-2022\0\\#p ZINDO=(nstates=5)\\step_451_chromophore_11 ZINDO\\0,1\M
 g,0,53.169,23.461,44.132\C,0,50.319,25.383,43.868\C,0,51.278,20.694,44
 .003\C,0,55.956,21.71,43.872\C,0,54.986,26.402,44.515\N,0,51.1,23.107,
 43.67\C,0,50.092,24.029,43.658\C,0,48.696,23.362,43.688\C,0,49.083,21.
 932,44.242\C,0,50.585,21.856,43.907\C,0,48.771,21.646,45.785\C,0,48.,2
 3.429,42.232\C,0,48.827,22.687,41.143\C,0,49.141,23.56,39.913\O,0,49.9

 Normal termination of Gaussian 16 at Wed May  4 21:27:55 2022.
