 Gaussian 16, Revision A.03,
 Gaussian 16:  ES64L-G16RevA.03 25-Dec-2016

 ------------------------------
 #p blyp/Def2SVP td=(nstates=5)
 ------------------------------

 ---------------------------------------------------
 step_1001_chromophore_12 TDDFT with blyp functional
 ---------------------------------------------------
 Symbolic Z-matrix:
 Charge =  0 Multiplicity = 1

                         Standard orientation:
 ---------------------------------------------------------------------
 Center     Atomic      Atomic             Coordinates (Angstroms)
 Number     Number       Type             X           Y           Z
 ---------------------------------------------------------------------
      1         12           0       -4.002303    0.387411   -0.532401
      2          6           0       -3.103870   -2.934136    0.694969
      3          6           0       -0.632086    1.066718   -0.602884
      4          6           0       -4.862530    3.625808   -1.025627
      5          6           0       -7.272161   -0.422348    0.499867
      6          7           0       -2.143013   -0.795495    0.193664
      7          6           0       -2.004437   -2.095131    0.418702
      8          6           0       -0.588090   -2.496188    0.212179
      9          6           0        0.244889   -1.197571    0.274598
     10          6           0       -0.879444   -0.262092   -0.068452
     11          6           0        0.710529   -0.688809    1.674901
     12          6           0       -0.296783   -3.263024   -1.089098
     13          6           0        0.875773   -4.244179   -1.074295
     14          6           0        2.037722   -4.001326   -2.021024
     15          8           0        1.918936   -3.658117   -3.206190
     16          8           0        3.282258   -4.299570   -1.463835
     17          7           0       -2.907516    2.003490   -1.038260
     18          6           0       -1.528207    2.124629   -0.993737
     19          6           0       -1.110140    3.402928   -1.368032
     20          6           0       -2.260109    4.175708   -1.466788
     21          6           0       -3.440536    3.289909   -1.155833
     22          6           0        0.371684    3.886760   -1.446869
     23          6           0       -2.373773    5.680066   -1.775387
     24          8           0       -3.478885    6.194035   -1.858909
     25          6           0       -1.224633    6.619551   -2.013232
     26          7           0       -5.830421    1.422436   -0.316868
     27          6           0       -5.891778    2.786902   -0.660912
     28          6           0       -7.345421    3.176688   -0.706347
     29          6           0       -8.094507    1.885988   -0.236397
     30          6           0       -7.031996    0.838128   -0.089516
     31          6           0       -7.598662    4.459973    0.047335
     32          6           0       -9.365808    1.421666   -0.965628
     33          6           0       -9.267539    1.019571   -2.419819
     34          7           0       -5.008320   -1.285667    0.328981
     35          6           0       -6.355305   -1.476359    0.641472
     36          6           0       -6.651975   -2.881771    1.054381
     37          6           0       -5.385619   -3.476822    0.965241
     38          6           0       -4.418436   -2.484200    0.620331
     39          6           0       -8.024241   -3.420762    1.360969
     40          6           0       -4.761807   -4.731522    1.094285
     41          8           0       -5.213526   -5.796297    1.461374
     42          6           0       -3.130004   -4.427275    0.887426
     43          6           0       -2.529375   -4.831922    2.149578
     44          8           0       -3.009556   -4.644352    3.253888
     45          8           0       -1.406372   -5.559171    1.839510
     46          6           0       -0.752133   -6.235438    3.011116
     47          6           0        4.450880   -4.233285   -2.336213
     48          6           0        5.868181   -4.182967   -1.722019
     49          6           0        7.007932   -3.673464   -2.159894
     50          6           0        7.231608   -3.038162   -3.518274
     51          6           0        8.214002   -3.668786   -1.246705
     52          6           0        8.459243   -2.252457   -0.703155
     53          6           0        9.923765   -1.864498   -0.473667
     54          6           0       10.056372   -0.310725   -0.336020
     55          6           0       11.623623   -0.057355   -0.659200
     56          6           0        9.645773    0.154358    1.063183
     57          6           0        9.244496    1.647261    1.085615
     58          6           0        7.925503    1.951524    1.659683
     59          6           0        7.141071    3.184969    1.102640
     60          6           0        8.153542    4.355394    0.962005
     61          6           0        6.038315    3.603065    2.150106
     62          6           0        4.576031    3.613745    1.460614
     63          6           0        3.515470    4.235399    2.429200
     64          6           0        2.841718    5.535941    1.986691
     65          6           0        3.818149    6.684836    2.113246
     66          6           0        1.621386    5.901824    2.918668
     67          1           0        0.454786    1.102972   -0.705634
     68          1           0       -5.152876    4.665890   -1.187242
     69          1           0       -8.310943   -0.678609    0.715538
     70          1           0       -0.221824   -3.095397    1.045425
     71          1           0        0.988259   -0.983244   -0.493898
     72          1           0        0.354271    0.302406    1.956594
     73          1           0        1.798821   -0.658299    1.613757
     74          1           0        0.411742   -1.392635    2.451073
     75          1           0       -0.091474   -2.501119   -1.840001
     76          1           0       -1.143827   -3.868824   -1.413643
     77          1           0        0.387981   -5.212266   -1.192300
     78          1           0        1.287348   -4.160080   -0.068540
     79          1           0        0.534900    4.629614   -0.666754
     80          1           0        0.377006    4.341916   -2.436945
     81          1           0        1.105974    3.085755   -1.362076
     82          1           0       -1.613860    7.550316   -2.426317
     83          1           0       -0.609941    6.112813   -2.758360
     84          1           0       -0.641267    6.800792   -1.111094
     85          1           0       -7.511539    3.366669   -1.767055
     86          1           0       -8.490670    1.992571    0.773828
     87          1           0       -8.483403    4.324700    0.668753
     88          1           0       -7.864873    5.254125   -0.650337
     89          1           0       -6.718145    4.707452    0.640006
     90          1           0      -10.012451    2.297656   -1.001623
     91          1           0       -9.865429    0.577304   -0.489684
     92          1           0       -9.615911   -0.012662   -2.449046
     93          1           0       -8.243301    1.101629   -2.785756
     94          1           0       -9.960695    1.631481   -2.997013
     95          1           0       -8.914397   -2.948834    0.945238
     96          1           0       -8.116024   -3.315345    2.441861
     97          1           0       -7.893660   -4.401215    0.903920
     98          1           0       -2.690160   -5.014362    0.080450
     99          1           0       -0.865378   -5.744564    3.977897
    100          1           0        0.281099   -6.159192    2.671830
    101          1           0       -1.061729   -7.274500    3.120061
    102          1           0        4.437185   -3.320185   -2.931334
    103          1           0        4.395678   -5.119608   -2.968928
    104          1           0        5.824906   -4.588853   -0.710939
    105          1           0        7.354225   -1.955585   -3.502394
    106          1           0        6.424701   -3.256138   -4.217303
    107          1           0        8.079147   -3.455275   -4.061139
    108          1           0        9.105479   -3.875630   -1.839245
    109          1           0        8.005118   -4.262629   -0.357494
    110          1           0        7.980442   -2.244601    0.276167
    111          1           0        8.026498   -1.462543   -1.316580
    112          1           0       10.530968   -2.255167   -1.290871
    113          1           0       10.108523   -2.247214    0.530305
    114          1           0        9.480320    0.209802   -1.100430
    115          1           0       12.236846   -0.511365    0.119517
    116          1           0       11.622953    1.029932   -0.584286
    117          1           0       11.939055   -0.482024   -1.611339
    118          1           0       10.464520    0.125803    1.783201
    119          1           0        8.852813   -0.497829    1.428426
    120          1           0        9.200073    1.885061    0.023270
    121          1           0       10.119498    2.147962    1.499107
    122          1           0        8.168104    2.040533    2.718247
    123          1           0        7.330274    1.040403    1.593852
    124          1           0        6.696930    2.970419    0.130415
    125          1           0        8.773225    4.424761    0.068333
    126          1           0        8.889048    4.552884    1.741185
    127          1           0        7.480409    5.204022    0.841631
    128          1           0        6.167130    4.631301    2.486957
    129          1           0        6.186190    2.949911    3.009796
    130          1           0        4.325197    2.553228    1.457923
    131          1           0        4.511574    4.061634    0.468527
    132          1           0        4.017197    4.393429    3.383246
    133          1           0        2.650575    3.572185    2.388047
    134          1           0        2.465119    5.356523    0.979972
    135          1           0        3.475350    7.663788    1.779763
    136          1           0        4.721819    6.507651    1.530490
    137          1           0        4.102907    6.839827    3.154338
    138          1           0        0.707091    6.221488    2.418325
    139          1           0        1.811943    6.756373    3.567734
    140          1           0        1.454716    5.155905    3.696225
 ---------------------------------------------------------------------

 SCF Done:  E(RB-LYP) =  -3007.35694634     A.U. after   21 cycles

 Excitation energies and oscillator strengths:

 Excited State   1:      Singlet-A      1.7544 eV  706.72 nm  f=0.2855  <S**2>=0.000
     245 -> 248       -0.20011
     246 -> 247        0.68980
     246 <- 247       -0.15242
 This state for optimization and/or second-order correction.
 Total Energy, E(TD-HF/TD-DFT) =  -3007.29247510
 Copying the excited state density for this state as the 1-particle RhoCI density.

 Excited State   2:      Singlet-A      1.8787 eV  659.94 nm  f=0.0017  <S**2>=0.000
     244 -> 247        0.70444

 Excited State   3:      Singlet-A      2.0018 eV  619.35 nm  f=0.0641  <S**2>=0.000
     243 -> 247        0.14382
     245 -> 247        0.62583
     246 -> 248        0.27147

 Excited State   4:      Singlet-A      2.0658 eV  600.19 nm  f=0.0046  <S**2>=0.000
     243 -> 247        0.69066
     245 -> 247       -0.12335

 Excited State   5:      Singlet-A      2.6079 eV  475.42 nm  f=0.0000  <S**2>=0.000
     240 -> 247        0.70707

 The electronic state is 1-A.
 Alpha  occ. eigenvalues --  -46.27150 -18.82512 -18.82348 -18.77114 -18.76257
 Alpha  occ. eigenvalues --  -18.75977 -18.75002 -14.02996 -14.02571 -14.01462
 Alpha  occ. eigenvalues --  -14.00910 -10.04887 -10.03061  -9.99531  -9.99387
 Alpha  occ. eigenvalues --   -9.98237  -9.97804  -9.96679  -9.96351  -9.96324
 Alpha  occ. eigenvalues --   -9.96309  -9.95941  -9.95616  -9.95534  -9.94602
 Alpha  occ. eigenvalues --   -9.94323  -9.94144  -9.94074  -9.94050  -9.93514
 Alpha  occ. eigenvalues --   -9.93406  -9.93394  -9.93302  -9.93279  -9.93220
 Alpha  occ. eigenvalues --   -9.93218  -9.93155  -9.93066  -9.92892  -9.92786
 Alpha  occ. eigenvalues --   -9.92756  -9.92653  -9.92618  -9.92541  -9.92521
 Alpha  occ. eigenvalues --   -9.92505  -9.92435  -9.92275  -9.92236  -9.92156
 Alpha  occ. eigenvalues --   -9.92111  -9.92028  -9.91796  -9.91687  -9.91351
 Alpha  occ. eigenvalues --   -9.91292  -9.91284  -9.91261  -9.91250  -9.91208
 Alpha  occ. eigenvalues --   -9.91201  -9.90969  -9.90941  -9.90888  -9.90843
 Alpha  occ. eigenvalues --   -9.90643  -2.91765  -1.72170  -1.71655  -1.71482
 Alpha  occ. eigenvalues --   -0.97204  -0.97143  -0.91756  -0.91418  -0.89551
 Alpha  occ. eigenvalues --   -0.89367  -0.86940  -0.85339  -0.84832  -0.84297
 Alpha  occ. eigenvalues --   -0.75274  -0.74290  -0.73628  -0.73344  -0.72472
 Alpha  occ. eigenvalues --   -0.72134  -0.71836  -0.71371  -0.71200  -0.70360
 Alpha  occ. eigenvalues --   -0.70043  -0.68976  -0.68395  -0.67812  -0.67093
 Alpha  occ. eigenvalues --   -0.66546  -0.65754  -0.65169  -0.65050  -0.64471
 Alpha  occ. eigenvalues --   -0.64252  -0.63128  -0.62205  -0.61879  -0.61001
 Alpha  occ. eigenvalues --   -0.60752  -0.60043  -0.59899  -0.59773  -0.59253
 Alpha  occ. eigenvalues --   -0.58664  -0.57687  -0.56986  -0.55715  -0.54609
 Alpha  occ. eigenvalues --   -0.54250  -0.54044  -0.52563  -0.52160  -0.51576
 Alpha  occ. eigenvalues --   -0.51183  -0.50400  -0.50332  -0.49944  -0.49784
 Alpha  occ. eigenvalues --   -0.49670  -0.49487  -0.48718  -0.48103  -0.46833
 Alpha  occ. eigenvalues --   -0.46635  -0.45815  -0.45705  -0.44857  -0.44579
 Alpha  occ. eigenvalues --   -0.44049  -0.43691  -0.43022  -0.42876  -0.42786
 Alpha  occ. eigenvalues --   -0.42487  -0.42374  -0.41877  -0.41602  -0.41334
 Alpha  occ. eigenvalues --   -0.41228  -0.40895  -0.40615  -0.40524  -0.40321
 Alpha  occ. eigenvalues --   -0.40242  -0.40081  -0.39856  -0.39659  -0.39299
 Alpha  occ. eigenvalues --   -0.39021  -0.38905  -0.38759  -0.38563  -0.38385
 Alpha  occ. eigenvalues --   -0.38307  -0.38075  -0.37908  -0.37586  -0.37521
 Alpha  occ. eigenvalues --   -0.37251  -0.37170  -0.37140  -0.36795  -0.36689
 Alpha  occ. eigenvalues --   -0.36429  -0.36254  -0.35986  -0.35714  -0.35625
 Alpha  occ. eigenvalues --   -0.35233  -0.35169  -0.35035  -0.34965  -0.34688
 Alpha  occ. eigenvalues --   -0.34605  -0.34523  -0.34195  -0.34065  -0.33794
 Alpha  occ. eigenvalues --   -0.33756  -0.33565  -0.33395  -0.33145  -0.33047
 Alpha  occ. eigenvalues --   -0.32961  -0.32677  -0.32562  -0.32424  -0.32336
 Alpha  occ. eigenvalues --   -0.32240  -0.32059  -0.31819  -0.31744  -0.31535
 Alpha  occ. eigenvalues --   -0.31445  -0.31254  -0.31199  -0.30882  -0.30622
 Alpha  occ. eigenvalues --   -0.30413  -0.30286  -0.30255  -0.30210  -0.29978
 Alpha  occ. eigenvalues --   -0.29635  -0.29518  -0.29410  -0.29353  -0.29076
 Alpha  occ. eigenvalues --   -0.28933  -0.28474  -0.28464  -0.28148  -0.28036
 Alpha  occ. eigenvalues --   -0.27973  -0.27840  -0.27080  -0.26725  -0.26645
 Alpha  occ. eigenvalues --   -0.26635  -0.26005  -0.25871  -0.25591  -0.25221
 Alpha  occ. eigenvalues --   -0.25132  -0.25026  -0.24357  -0.24214  -0.23534
 Alpha  occ. eigenvalues --   -0.22980  -0.22169  -0.22001  -0.21439  -0.20919
 Alpha  occ. eigenvalues --   -0.20807  -0.20486  -0.18771  -0.18174  -0.17180
 Alpha  occ. eigenvalues --   -0.15449
 Alpha virt. eigenvalues --   -0.11335  -0.07019  -0.05944  -0.04287  -0.03986
 Alpha virt. eigenvalues --   -0.02751  -0.02164  -0.01845  -0.01691   0.00432
 Alpha virt. eigenvalues --    0.00747   0.01422   0.01781   0.02355   0.02574

 Mulliken charges:
               1
     1  Mg   0.708442
     2  C   -0.015107
     3  C   -0.045959
     4  C   -0.023390
     5  C   -0.081389
     6  N   -0.163875
     7  C   -0.088531
     8  C    0.073179
     9  C   -0.039941
    10  C   -0.097684
    11  C    0.145216
    12  C    0.120495
    13  C    0.141282
    14  C    0.094295
    15  O   -0.206306
    16  O   -0.280849
    17  N   -0.342028
    18  C    0.198390
    19  C   -0.167389
    20  C    0.033887
    21  C    0.096041
    22  C    0.175709
    23  C   -0.098330
    24  O   -0.172324
    25  C    0.153137
    26  N   -0.270990
    27  C    0.018294
    28  C    0.025026
    29  C    0.067994
    30  C    0.052147
    31  C    0.150552
    32  C    0.046790
    33  C    0.069544
    34  N   -0.244245
    35  C    0.105901
    36  C   -0.159698
    37  C    0.105757
    38  C    0.104607
    39  C    0.163830
    40  C   -0.074488
    41  O   -0.115106
    42  C    0.044263
    43  C    0.105722
    44  O   -0.171828
    45  O   -0.289251
    46  C    0.199773
    47  C    0.300337
    48  C   -0.118248
    49  C   -0.115700
    50  C    0.123483
    51  C    0.216087
    52  C    0.002336
    53  C    0.112082
    54  C   -0.106594
    55  C    0.098581
    56  C    0.109324
    57  C    0.054264
    58  C    0.102428
    59  C   -0.029352
    60  C    0.095717
    61  C    0.080639
    62  C    0.059320
    63  C    0.090615
    64  C   -0.072758
    65  C    0.098051
    66  C    0.098914
    67  H   -0.074886
    68  H   -0.038806
    69  H   -0.071133
    70  H   -0.042994
    71  H   -0.017585
    72  H    0.011971
    73  H   -0.008170
    74  H   -0.004471
    75  H   -0.014100
    76  H   -0.024258
    77  H    0.023854
    78  H   -0.016222
    79  H    0.024067
    80  H    0.002912
    81  H   -0.006359
    82  H   -0.003841
    83  H   -0.010295
    84  H    0.013098
    85  H   -0.015303
    86  H   -0.029444
    87  H   -0.018863
    88  H   -0.009739
    89  H    0.007935
    90  H   -0.029017
    91  H   -0.017487
    92  H   -0.014126
    93  H   -0.000898
    94  H   -0.011560
    95  H   -0.008205
    96  H    0.019800
    97  H    0.027422
    98  H   -0.013446
    99  H    0.029071
   100  H    0.013082
   101  H    0.028251
   102  H    0.005149
   103  H    0.003465
   104  H   -0.041556
   105  H    0.005632
   106  H   -0.017237
   107  H   -0.009664
   108  H   -0.039992
   109  H   -0.030539
   110  H   -0.031575
   111  H   -0.027825
   112  H   -0.030890
   113  H   -0.032143
   114  H   -0.028660
   115  H   -0.014498
   116  H   -0.017964
   117  H   -0.007033
   118  H   -0.036554
   119  H   -0.035745
   120  H   -0.039546
   121  H   -0.025117
   122  H   -0.039397
   123  H   -0.039366
   124  H   -0.034441
   125  H   -0.029246
   126  H   -0.015799
   127  H   -0.021401
   128  H   -0.027714
   129  H   -0.025287
   130  H   -0.028745
   131  H   -0.016706
   132  H   -0.024872
   133  H   -0.031377
   134  H   -0.035981
   135  H   -0.021962
   136  H   -0.021709
   137  H   -0.016855
   138  H   -0.009319
   139  H   -0.034347
   140  H   -0.024518
 Sum of Mulliken charges =  -0.00000

 Dipole moment (field-independent basis, Debye):
    X=              3.7477    Y=              1.4057    Z=             -0.7279  Tot=              4.0684
 Quadrupole moment (field-independent basis, Debye-Ang):
   XX=           -370.0356   YY=           -430.5098   ZZ=           -415.9383
   XY=            -16.5236   XZ=              9.9866   YZ=              7.5363

 Normal termination of Gaussian 16 at Tue Apr 26 19:35:54 2022.
