 Gaussian 16, Revision A.03,
 Gaussian 16:  ES64L-G16RevA.03 25-Dec-2016

 -----------------------------------
 #p cam-b3lyp/Def2SVP td=(nstates=5)
 -----------------------------------

 --------------------------------------------------------
 step_1001_chromophore_12 TDDFT with cam-b3lyp functional
 --------------------------------------------------------
 Symbolic Z-matrix:
 Charge =  0 Multiplicity = 1

                         Standard orientation:
 ---------------------------------------------------------------------
 Center     Atomic      Atomic             Coordinates (Angstroms)
 Number     Number       Type             X           Y           Z
 ---------------------------------------------------------------------
      1         12           0       -4.002303    0.387411   -0.532401
      2          6           0       -3.103870   -2.934136    0.694969
      3          6           0       -0.632086    1.066718   -0.602884
      4          6           0       -4.862530    3.625808   -1.025627
      5          6           0       -7.272161   -0.422348    0.499867
      6          7           0       -2.143013   -0.795495    0.193664
      7          6           0       -2.004437   -2.095131    0.418702
      8          6           0       -0.588090   -2.496188    0.212179
      9          6           0        0.244889   -1.197571    0.274598
     10          6           0       -0.879444   -0.262092   -0.068452
     11          6           0        0.710529   -0.688809    1.674901
     12          6           0       -0.296783   -3.263024   -1.089098
     13          6           0        0.875773   -4.244179   -1.074295
     14          6           0        2.037722   -4.001326   -2.021024
     15          8           0        1.918936   -3.658117   -3.206190
     16          8           0        3.282258   -4.299570   -1.463835
     17          7           0       -2.907516    2.003490   -1.038260
     18          6           0       -1.528207    2.124629   -0.993737
     19          6           0       -1.110140    3.402928   -1.368032
     20          6           0       -2.260109    4.175708   -1.466788
     21          6           0       -3.440536    3.289909   -1.155833
     22          6           0        0.371684    3.886760   -1.446869
     23          6           0       -2.373773    5.680066   -1.775387
     24          8           0       -3.478885    6.194035   -1.858909
     25          6           0       -1.224633    6.619551   -2.013232
     26          7           0       -5.830421    1.422436   -0.316868
     27          6           0       -5.891778    2.786902   -0.660912
     28          6           0       -7.345421    3.176688   -0.706347
     29          6           0       -8.094507    1.885988   -0.236397
     30          6           0       -7.031996    0.838128   -0.089516
     31          6           0       -7.598662    4.459973    0.047335
     32          6           0       -9.365808    1.421666   -0.965628
     33          6           0       -9.267539    1.019571   -2.419819
     34          7           0       -5.008320   -1.285667    0.328981
     35          6           0       -6.355305   -1.476359    0.641472
     36          6           0       -6.651975   -2.881771    1.054381
     37          6           0       -5.385619   -3.476822    0.965241
     38          6           0       -4.418436   -2.484200    0.620331
     39          6           0       -8.024241   -3.420762    1.360969
     40          6           0       -4.761807   -4.731522    1.094285
     41          8           0       -5.213526   -5.796297    1.461374
     42          6           0       -3.130004   -4.427275    0.887426
     43          6           0       -2.529375   -4.831922    2.149578
     44          8           0       -3.009556   -4.644352    3.253888
     45          8           0       -1.406372   -5.559171    1.839510
     46          6           0       -0.752133   -6.235438    3.011116
     47          6           0        4.450880   -4.233285   -2.336213
     48          6           0        5.868181   -4.182967   -1.722019
     49          6           0        7.007932   -3.673464   -2.159894
     50          6           0        7.231608   -3.038162   -3.518274
     51          6           0        8.214002   -3.668786   -1.246705
     52          6           0        8.459243   -2.252457   -0.703155
     53          6           0        9.923765   -1.864498   -0.473667
     54          6           0       10.056372   -0.310725   -0.336020
     55          6           0       11.623623   -0.057355   -0.659200
     56          6           0        9.645773    0.154358    1.063183
     57          6           0        9.244496    1.647261    1.085615
     58          6           0        7.925503    1.951524    1.659683
     59          6           0        7.141071    3.184969    1.102640
     60          6           0        8.153542    4.355394    0.962005
     61          6           0        6.038315    3.603065    2.150106
     62          6           0        4.576031    3.613745    1.460614
     63          6           0        3.515470    4.235399    2.429200
     64          6           0        2.841718    5.535941    1.986691
     65          6           0        3.818149    6.684836    2.113246
     66          6           0        1.621386    5.901824    2.918668
     67          1           0        0.454786    1.102972   -0.705634
     68          1           0       -5.152876    4.665890   -1.187242
     69          1           0       -8.310943   -0.678609    0.715538
     70          1           0       -0.221824   -3.095397    1.045425
     71          1           0        0.988259   -0.983244   -0.493898
     72          1           0        0.354271    0.302406    1.956594
     73          1           0        1.798821   -0.658299    1.613757
     74          1           0        0.411742   -1.392635    2.451073
     75          1           0       -0.091474   -2.501119   -1.840001
     76          1           0       -1.143827   -3.868824   -1.413643
     77          1           0        0.387981   -5.212266   -1.192300
     78          1           0        1.287348   -4.160080   -0.068540
     79          1           0        0.534900    4.629614   -0.666754
     80          1           0        0.377006    4.341916   -2.436945
     81          1           0        1.105974    3.085755   -1.362076
     82          1           0       -1.613860    7.550316   -2.426317
     83          1           0       -0.609941    6.112813   -2.758360
     84          1           0       -0.641267    6.800792   -1.111094
     85          1           0       -7.511539    3.366669   -1.767055
     86          1           0       -8.490670    1.992571    0.773828
     87          1           0       -8.483403    4.324700    0.668753
     88          1           0       -7.864873    5.254125   -0.650337
     89          1           0       -6.718145    4.707452    0.640006
     90          1           0      -10.012451    2.297656   -1.001623
     91          1           0       -9.865429    0.577304   -0.489684
     92          1           0       -9.615911   -0.012662   -2.449046
     93          1           0       -8.243301    1.101629   -2.785756
     94          1           0       -9.960695    1.631481   -2.997013
     95          1           0       -8.914397   -2.948834    0.945238
     96          1           0       -8.116024   -3.315345    2.441861
     97          1           0       -7.893660   -4.401215    0.903920
     98          1           0       -2.690160   -5.014362    0.080450
     99          1           0       -0.865378   -5.744564    3.977897
    100          1           0        0.281099   -6.159192    2.671830
    101          1           0       -1.061729   -7.274500    3.120061
    102          1           0        4.437185   -3.320185   -2.931334
    103          1           0        4.395678   -5.119608   -2.968928
    104          1           0        5.824906   -4.588853   -0.710939
    105          1           0        7.354225   -1.955585   -3.502394
    106          1           0        6.424701   -3.256138   -4.217303
    107          1           0        8.079147   -3.455275   -4.061139
    108          1           0        9.105479   -3.875630   -1.839245
    109          1           0        8.005118   -4.262629   -0.357494
    110          1           0        7.980442   -2.244601    0.276167
    111          1           0        8.026498   -1.462543   -1.316580
    112          1           0       10.530968   -2.255167   -1.290871
    113          1           0       10.108523   -2.247214    0.530305
    114          1           0        9.480320    0.209802   -1.100430
    115          1           0       12.236846   -0.511365    0.119517
    116          1           0       11.622953    1.029932   -0.584286
    117          1           0       11.939055   -0.482024   -1.611339
    118          1           0       10.464520    0.125803    1.783201
    119          1           0        8.852813   -0.497829    1.428426
    120          1           0        9.200073    1.885061    0.023270
    121          1           0       10.119498    2.147962    1.499107
    122          1           0        8.168104    2.040533    2.718247
    123          1           0        7.330274    1.040403    1.593852
    124          1           0        6.696930    2.970419    0.130415
    125          1           0        8.773225    4.424761    0.068333
    126          1           0        8.889048    4.552884    1.741185
    127          1           0        7.480409    5.204022    0.841631
    128          1           0        6.167130    4.631301    2.486957
    129          1           0        6.186190    2.949911    3.009796
    130          1           0        4.325197    2.553228    1.457923
    131          1           0        4.511574    4.061634    0.468527
    132          1           0        4.017197    4.393429    3.383246
    133          1           0        2.650575    3.572185    2.388047
    134          1           0        2.465119    5.356523    0.979972
    135          1           0        3.475350    7.663788    1.779763
    136          1           0        4.721819    6.507651    1.530490
    137          1           0        4.102907    6.839827    3.154338
    138          1           0        0.707091    6.221488    2.418325
    139          1           0        1.811943    6.756373    3.567734
    140          1           0        1.454716    5.155905    3.696225
 ---------------------------------------------------------------------

 SCF Done:  E(RCAM-B3LYP) =  -3007.14920010     A.U. after   17 cycles

 Excitation energies and oscillator strengths:

 Excited State   1:      Singlet-A      1.6632 eV  745.45 nm  f=0.3715  <S**2>=0.000
     245 -> 248       -0.18008
     246 -> 247        0.68599
     245 <- 248       -0.10893
 This state for optimization and/or second-order correction.
 Total Energy, E(TD-HF/TD-DFT) =  -3007.08807807
 Copying the excited state density for this state as the 1-particle RhoCI density.

 Excited State   2:      Singlet-A      2.2444 eV  552.42 nm  f=0.0803  <S**2>=0.000
     245 -> 247        0.61935
     246 -> 248        0.33076

 Excited State   3:      Singlet-A      3.3524 eV  369.84 nm  f=0.2273  <S**2>=0.000
     239 -> 247        0.13063
     239 -> 249        0.10742
     240 -> 247       -0.20670
     240 -> 249       -0.13424
     242 -> 247        0.37202
     243 -> 247       -0.19191
     244 -> 247        0.17472
     245 -> 247       -0.17524
     246 -> 248        0.38924

 Excited State   4:      Singlet-A      3.3997 eV  364.69 nm  f=0.3524  <S**2>=0.000
     239 -> 247       -0.27678
     239 -> 249       -0.16713
     240 -> 247        0.32208
     240 -> 249        0.15530
     245 -> 247       -0.22905
     246 -> 248        0.42518

 Excited State   5:      Singlet-A      3.5480 eV  349.45 nm  f=0.0942  <S**2>=0.000
     239 -> 247       -0.25054
     240 -> 247        0.11645
     242 -> 247        0.16369
     244 -> 247        0.56269
     245 -> 247        0.12426
     246 -> 248       -0.18552

 The electronic state is 1-A.
 Alpha  occ. eigenvalues --  -46.88694 -19.25599 -19.25396 -19.20185 -19.19621
 Alpha  occ. eigenvalues --  -19.19574 -19.17828 -14.41954 -14.41332 -14.39722
 Alpha  occ. eigenvalues --  -14.39554 -10.40341 -10.38737 -10.35192 -10.34309
 Alpha  occ. eigenvalues --  -10.32291 -10.32107 -10.31101 -10.31027 -10.30752
 Alpha  occ. eigenvalues --  -10.30502 -10.30476 -10.30094 -10.29472 -10.29358
 Alpha  occ. eigenvalues --  -10.29195 -10.28115 -10.28107 -10.27984 -10.27972
 Alpha  occ. eigenvalues --  -10.27845 -10.27492 -10.27407 -10.27258 -10.27148
 Alpha  occ. eigenvalues --  -10.27085 -10.27003 -10.26982 -10.26947 -10.26643
 Alpha  occ. eigenvalues --  -10.26524 -10.26478 -10.26339 -10.26298 -10.26283
 Alpha  occ. eigenvalues --  -10.26243 -10.26217 -10.26184 -10.26052 -10.25862
 Alpha  occ. eigenvalues --  -10.25841 -10.25803 -10.25795 -10.25527 -10.25197
 Alpha  occ. eigenvalues --  -10.24990 -10.24917 -10.24908 -10.24900 -10.24875
 Alpha  occ. eigenvalues --  -10.24852 -10.24570 -10.24497 -10.24470 -10.24401
 Alpha  occ. eigenvalues --  -10.24253  -3.17210  -1.92091  -1.91662  -1.91519
 Alpha  occ. eigenvalues --   -1.15975  -1.15646  -1.10558  -1.09464  -1.07782
 Alpha  occ. eigenvalues --   -1.07248  -1.04774  -1.03129  -1.02389  -1.01591
 Alpha  occ. eigenvalues --   -0.92691  -0.91204  -0.90465  -0.90144  -0.89164
 Alpha  occ. eigenvalues --   -0.88807  -0.88397  -0.88038  -0.87808  -0.87016
 Alpha  occ. eigenvalues --   -0.86476  -0.85276  -0.84655  -0.84156  -0.83164
 Alpha  occ. eigenvalues --   -0.82587  -0.81790  -0.81071  -0.80896  -0.80315
 Alpha  occ. eigenvalues --   -0.80046  -0.78900  -0.77694  -0.77322  -0.76415
 Alpha  occ. eigenvalues --   -0.76257  -0.75331  -0.75184  -0.75036  -0.74458
 Alpha  occ. eigenvalues --   -0.73709  -0.72842  -0.71856  -0.70501  -0.69257
 Alpha  occ. eigenvalues --   -0.68916  -0.68759  -0.66876  -0.66451  -0.65792
 Alpha  occ. eigenvalues --   -0.65366  -0.64377  -0.64283  -0.63929  -0.63686
 Alpha  occ. eigenvalues --   -0.63616  -0.63241  -0.62530  -0.62047  -0.60577
 Alpha  occ. eigenvalues --   -0.60221  -0.59293  -0.58982  -0.58247  -0.58038
 Alpha  occ. eigenvalues --   -0.57842  -0.57063  -0.56129  -0.55934  -0.55866
 Alpha  occ. eigenvalues --   -0.55500  -0.55169  -0.55048  -0.54802  -0.54576
 Alpha  occ. eigenvalues --   -0.54381  -0.53858  -0.53374  -0.53178  -0.53067
 Alpha  occ. eigenvalues --   -0.52848  -0.52607  -0.52537  -0.52233  -0.52088
 Alpha  occ. eigenvalues --   -0.51799  -0.51748  -0.51252  -0.50930  -0.50821
 Alpha  occ. eigenvalues --   -0.50544  -0.50341  -0.50257  -0.50097  -0.49767
 Alpha  occ. eigenvalues --   -0.49629  -0.49435  -0.49322  -0.49147  -0.49027
 Alpha  occ. eigenvalues --   -0.48877  -0.48493  -0.48331  -0.48124  -0.47640
 Alpha  occ. eigenvalues --   -0.47438  -0.47280  -0.47117  -0.46918  -0.46642
 Alpha  occ. eigenvalues --   -0.46418  -0.46264  -0.45985  -0.45712  -0.45602
 Alpha  occ. eigenvalues --   -0.45522  -0.45363  -0.45341  -0.44991  -0.44956
 Alpha  occ. eigenvalues --   -0.44680  -0.44303  -0.44251  -0.44139  -0.43915
 Alpha  occ. eigenvalues --   -0.43746  -0.43670  -0.43603  -0.43482  -0.43306
 Alpha  occ. eigenvalues --   -0.43044  -0.42731  -0.42624  -0.42506  -0.42310
 Alpha  occ. eigenvalues --   -0.41678  -0.41593  -0.41553  -0.41471  -0.41341
 Alpha  occ. eigenvalues --   -0.40744  -0.40667  -0.40613  -0.40476  -0.40143
 Alpha  occ. eigenvalues --   -0.39983  -0.39482  -0.39419  -0.39208  -0.39057
 Alpha  occ. eigenvalues --   -0.38904  -0.38719  -0.37921  -0.37816  -0.37527
 Alpha  occ. eigenvalues --   -0.37327  -0.37117  -0.37030  -0.36640  -0.36434
 Alpha  occ. eigenvalues --   -0.36174  -0.35660  -0.34716  -0.34633  -0.34482
 Alpha  occ. eigenvalues --   -0.34372  -0.34036  -0.32589  -0.31203  -0.30852
 Alpha  occ. eigenvalues --   -0.30596  -0.30221  -0.30119  -0.29692  -0.24034
 Alpha  occ. eigenvalues --   -0.20644
 Alpha virt. eigenvalues --   -0.08390  -0.01868   0.00497   0.02137   0.02958
 Alpha virt. eigenvalues --    0.03710   0.05274   0.05448   0.05680   0.06647
 Alpha virt. eigenvalues --    0.07381   0.07828   0.08377   0.08780   0.08858

 Mulliken charges:
               1
     1  Mg   0.838126
     2  C   -0.047901
     3  C   -0.052061
     4  C   -0.039491
     5  C   -0.093900
     6  N   -0.225188
     7  C   -0.038492
     8  C    0.009922
     9  C   -0.092063
    10  C   -0.084516
    11  C    0.089756
    12  C    0.067194
    13  C    0.072107
    14  C    0.177635
    15  O   -0.245752
    16  O   -0.348040
    17  N   -0.427548
    18  C    0.196328
    19  C   -0.172724
    20  C   -0.040715
    21  C    0.115783
    22  C    0.129541
    23  C   -0.021543
    24  O   -0.216367
    25  C    0.075618
    26  N   -0.346136
    27  C    0.040860
    28  C   -0.032478
    29  C   -0.001333
    30  C    0.083749
    31  C    0.085852
    32  C   -0.000132
    33  C    0.006233
    34  N   -0.331891
    35  C    0.115621
    36  C   -0.145714
    37  C    0.023969
    38  C    0.141904
    39  C    0.113468
    40  C    0.024866
    41  O   -0.150757
    42  C   -0.034492
    43  C    0.202189
    44  O   -0.209507
    45  O   -0.354273
    46  C    0.163707
    47  C    0.274926
    48  C   -0.140007
    49  C   -0.143931
    50  C    0.065145
    51  C    0.150848
    52  C   -0.041329
    53  C    0.054968
    54  C   -0.163181
    55  C    0.044934
    56  C    0.057952
    57  C   -0.001332
    58  C    0.053776
    59  C   -0.091963
    60  C    0.035711
    61  C    0.034114
    62  C    0.004567
    63  C    0.036522
    64  C   -0.128237
    65  C    0.038119
    66  C    0.036562
    67  H   -0.041553
    68  H    0.002017
    69  H   -0.036757
    70  H   -0.007077
    71  H    0.016040
    72  H    0.038357
    73  H    0.015297
    74  H    0.018055
    75  H    0.020468
    76  H    0.005991
    77  H    0.054885
    78  H    0.017983
    79  H    0.041966
    80  H    0.025317
    81  H    0.018084
    82  H    0.030317
    83  H    0.014660
    84  H    0.038552
    85  H    0.019043
    86  H    0.008204
    87  H    0.005567
    88  H    0.015743
    89  H    0.034461
    90  H    0.000607
    91  H    0.009103
    92  H    0.009293
    93  H    0.021140
    94  H    0.013482
    95  H    0.019769
    96  H    0.048298
    97  H    0.052743
    98  H    0.031169
    99  H    0.055477
   100  H    0.035424
   101  H    0.050509
   102  H    0.031252
   103  H    0.030523
   104  H   -0.006963
   105  H    0.029584
   106  H    0.008177
   107  H    0.015995
   108  H   -0.009779
   109  H    0.001018
   110  H   -0.005452
   111  H   -0.002859
   112  H   -0.003262
   113  H   -0.003337
   114  H    0.001856
   115  H    0.008574
   116  H    0.005219
   117  H    0.016772
   118  H   -0.006506
   119  H   -0.007647
   120  H   -0.012906
   121  H    0.001785
   122  H   -0.010694
   123  H   -0.010597
   124  H   -0.002007
   125  H   -0.002810
   126  H    0.009189
   127  H    0.001167
   128  H   -0.001605
   129  H    0.004107
   130  H   -0.000537
   131  H    0.009344
   132  H    0.001969
   133  H   -0.001706
   134  H   -0.008544
   135  H    0.004605
   136  H   -0.000602
   137  H    0.006498
   138  H    0.014616
   139  H   -0.008507
   140  H    0.001865
 Sum of Mulliken charges =  -0.00000

 Dipole moment (field-independent basis, Debye):
    X=              3.5566    Y=              0.7287    Z=             -0.4960  Tot=              3.6642
 Quadrupole moment (field-independent basis, Debye-Ang):
   XX=           -365.4012   YY=           -427.5560   ZZ=           -416.1340
   XY=            -13.3439   XZ=              9.4973   YZ=              6.6115

 Normal termination of Gaussian 16 at Tue Apr 26 18:33:30 2022.
