 Gaussian 16, Revision A.03,
 Gaussian 16:  ES64L-G16RevA.03 25-Dec-2016

 ---------------------------------
 #p PBE1PBE/Def2SVP td=(nstates=5)
 ---------------------------------

 ------------------------------------------------------
 step_1001_chromophore_12 TDDFT with PBE1PBE functional
 ------------------------------------------------------
 Symbolic Z-matrix:
 Charge =  0 Multiplicity = 1

                         Standard orientation:
 ---------------------------------------------------------------------
 Center     Atomic      Atomic             Coordinates (Angstroms)
 Number     Number       Type             X           Y           Z
 ---------------------------------------------------------------------
      1         12           0       -4.002303    0.387411   -0.532401
      2          6           0       -3.103870   -2.934136    0.694969
      3          6           0       -0.632086    1.066718   -0.602884
      4          6           0       -4.862530    3.625808   -1.025627
      5          6           0       -7.272161   -0.422348    0.499867
      6          7           0       -2.143013   -0.795495    0.193664
      7          6           0       -2.004437   -2.095131    0.418702
      8          6           0       -0.588090   -2.496188    0.212179
      9          6           0        0.244889   -1.197571    0.274598
     10          6           0       -0.879444   -0.262092   -0.068452
     11          6           0        0.710529   -0.688809    1.674901
     12          6           0       -0.296783   -3.263024   -1.089098
     13          6           0        0.875773   -4.244179   -1.074295
     14          6           0        2.037722   -4.001326   -2.021024
     15          8           0        1.918936   -3.658117   -3.206190
     16          8           0        3.282258   -4.299570   -1.463835
     17          7           0       -2.907516    2.003490   -1.038260
     18          6           0       -1.528207    2.124629   -0.993737
     19          6           0       -1.110140    3.402928   -1.368032
     20          6           0       -2.260109    4.175708   -1.466788
     21          6           0       -3.440536    3.289909   -1.155833
     22          6           0        0.371684    3.886760   -1.446869
     23          6           0       -2.373773    5.680066   -1.775387
     24          8           0       -3.478885    6.194035   -1.858909
     25          6           0       -1.224633    6.619551   -2.013232
     26          7           0       -5.830421    1.422436   -0.316868
     27          6           0       -5.891778    2.786902   -0.660912
     28          6           0       -7.345421    3.176688   -0.706347
     29          6           0       -8.094507    1.885988   -0.236397
     30          6           0       -7.031996    0.838128   -0.089516
     31          6           0       -7.598662    4.459973    0.047335
     32          6           0       -9.365808    1.421666   -0.965628
     33          6           0       -9.267539    1.019571   -2.419819
     34          7           0       -5.008320   -1.285667    0.328981
     35          6           0       -6.355305   -1.476359    0.641472
     36          6           0       -6.651975   -2.881771    1.054381
     37          6           0       -5.385619   -3.476822    0.965241
     38          6           0       -4.418436   -2.484200    0.620331
     39          6           0       -8.024241   -3.420762    1.360969
     40          6           0       -4.761807   -4.731522    1.094285
     41          8           0       -5.213526   -5.796297    1.461374
     42          6           0       -3.130004   -4.427275    0.887426
     43          6           0       -2.529375   -4.831922    2.149578
     44          8           0       -3.009556   -4.644352    3.253888
     45          8           0       -1.406372   -5.559171    1.839510
     46          6           0       -0.752133   -6.235438    3.011116
     47          6           0        4.450880   -4.233285   -2.336213
     48          6           0        5.868181   -4.182967   -1.722019
     49          6           0        7.007932   -3.673464   -2.159894
     50          6           0        7.231608   -3.038162   -3.518274
     51          6           0        8.214002   -3.668786   -1.246705
     52          6           0        8.459243   -2.252457   -0.703155
     53          6           0        9.923765   -1.864498   -0.473667
     54          6           0       10.056372   -0.310725   -0.336020
     55          6           0       11.623623   -0.057355   -0.659200
     56          6           0        9.645773    0.154358    1.063183
     57          6           0        9.244496    1.647261    1.085615
     58          6           0        7.925503    1.951524    1.659683
     59          6           0        7.141071    3.184969    1.102640
     60          6           0        8.153542    4.355394    0.962005
     61          6           0        6.038315    3.603065    2.150106
     62          6           0        4.576031    3.613745    1.460614
     63          6           0        3.515470    4.235399    2.429200
     64          6           0        2.841718    5.535941    1.986691
     65          6           0        3.818149    6.684836    2.113246
     66          6           0        1.621386    5.901824    2.918668
     67          1           0        0.454786    1.102972   -0.705634
     68          1           0       -5.152876    4.665890   -1.187242
     69          1           0       -8.310943   -0.678609    0.715538
     70          1           0       -0.221824   -3.095397    1.045425
     71          1           0        0.988259   -0.983244   -0.493898
     72          1           0        0.354271    0.302406    1.956594
     73          1           0        1.798821   -0.658299    1.613757
     74          1           0        0.411742   -1.392635    2.451073
     75          1           0       -0.091474   -2.501119   -1.840001
     76          1           0       -1.143827   -3.868824   -1.413643
     77          1           0        0.387981   -5.212266   -1.192300
     78          1           0        1.287348   -4.160080   -0.068540
     79          1           0        0.534900    4.629614   -0.666754
     80          1           0        0.377006    4.341916   -2.436945
     81          1           0        1.105974    3.085755   -1.362076
     82          1           0       -1.613860    7.550316   -2.426317
     83          1           0       -0.609941    6.112813   -2.758360
     84          1           0       -0.641267    6.800792   -1.111094
     85          1           0       -7.511539    3.366669   -1.767055
     86          1           0       -8.490670    1.992571    0.773828
     87          1           0       -8.483403    4.324700    0.668753
     88          1           0       -7.864873    5.254125   -0.650337
     89          1           0       -6.718145    4.707452    0.640006
     90          1           0      -10.012451    2.297656   -1.001623
     91          1           0       -9.865429    0.577304   -0.489684
     92          1           0       -9.615911   -0.012662   -2.449046
     93          1           0       -8.243301    1.101629   -2.785756
     94          1           0       -9.960695    1.631481   -2.997013
     95          1           0       -8.914397   -2.948834    0.945238
     96          1           0       -8.116024   -3.315345    2.441861
     97          1           0       -7.893660   -4.401215    0.903920
     98          1           0       -2.690160   -5.014362    0.080450
     99          1           0       -0.865378   -5.744564    3.977897
    100          1           0        0.281099   -6.159192    2.671830
    101          1           0       -1.061729   -7.274500    3.120061
    102          1           0        4.437185   -3.320185   -2.931334
    103          1           0        4.395678   -5.119608   -2.968928
    104          1           0        5.824906   -4.588853   -0.710939
    105          1           0        7.354225   -1.955585   -3.502394
    106          1           0        6.424701   -3.256138   -4.217303
    107          1           0        8.079147   -3.455275   -4.061139
    108          1           0        9.105479   -3.875630   -1.839245
    109          1           0        8.005118   -4.262629   -0.357494
    110          1           0        7.980442   -2.244601    0.276167
    111          1           0        8.026498   -1.462543   -1.316580
    112          1           0       10.530968   -2.255167   -1.290871
    113          1           0       10.108523   -2.247214    0.530305
    114          1           0        9.480320    0.209802   -1.100430
    115          1           0       12.236846   -0.511365    0.119517
    116          1           0       11.622953    1.029932   -0.584286
    117          1           0       11.939055   -0.482024   -1.611339
    118          1           0       10.464520    0.125803    1.783201
    119          1           0        8.852813   -0.497829    1.428426
    120          1           0        9.200073    1.885061    0.023270
    121          1           0       10.119498    2.147962    1.499107
    122          1           0        8.168104    2.040533    2.718247
    123          1           0        7.330274    1.040403    1.593852
    124          1           0        6.696930    2.970419    0.130415
    125          1           0        8.773225    4.424761    0.068333
    126          1           0        8.889048    4.552884    1.741185
    127          1           0        7.480409    5.204022    0.841631
    128          1           0        6.167130    4.631301    2.486957
    129          1           0        6.186190    2.949911    3.009796
    130          1           0        4.325197    2.553228    1.457923
    131          1           0        4.511574    4.061634    0.468527
    132          1           0        4.017197    4.393429    3.383246
    133          1           0        2.650575    3.572185    2.388047
    134          1           0        2.465119    5.356523    0.979972
    135          1           0        3.475350    7.663788    1.779763
    136          1           0        4.721819    6.507651    1.530490
    137          1           0        4.102907    6.839827    3.154338
    138          1           0        0.707091    6.221488    2.418325
    139          1           0        1.811943    6.756373    3.567734
    140          1           0        1.454716    5.155905    3.696225
 ---------------------------------------------------------------------

 SCF Done:  E(RPBE1PBE) =  -3005.33846752     A.U. after   15 cycles

 Excitation energies and oscillator strengths:

 Excited State   1:      Singlet-A      1.8013 eV  688.29 nm  f=0.3594  <S**2>=0.000
     245 -> 248       -0.17652
     246 -> 247        0.69321
     246 <- 247       -0.10863
 This state for optimization and/or second-order correction.
 Total Energy, E(TD-HF/TD-DFT) =  -3005.27226990
 Copying the excited state density for this state as the 1-particle RhoCI density.

 Excited State   2:      Singlet-A      2.2356 eV  554.60 nm  f=0.0815  <S**2>=0.000
     245 -> 247        0.63424
     246 -> 248        0.30253

 Excited State   3:      Singlet-A      2.9725 eV  417.11 nm  f=0.0004  <S**2>=0.000
     240 -> 247       -0.23071
     242 -> 247        0.32998
     243 -> 247        0.53291
     243 -> 249        0.10686
     244 -> 247        0.11053

 Excited State   4:      Singlet-A      3.0873 eV  401.60 nm  f=0.0000  <S**2>=0.000
     243 -> 247       -0.11149
     244 -> 247        0.66777
     244 -> 249       -0.12577
     244 -> 250       -0.11191

 Excited State   5:      Singlet-A      3.1731 eV  390.74 nm  f=0.0710  <S**2>=0.000
     240 -> 247       -0.25670
     242 -> 247        0.44370
     243 -> 247       -0.37957
     245 -> 247       -0.10414
     246 -> 248        0.25207

 The electronic state is 1-A.
 Alpha  occ. eigenvalues --  -46.92104 -19.26113 -19.26103 -19.20462 -19.19675
 Alpha  occ. eigenvalues --  -19.19524 -19.18306 -14.41394 -14.40909 -14.39552
 Alpha  occ. eigenvalues --  -14.39093 -10.37383 -10.35564 -10.32086 -10.31714
 Alpha  occ. eigenvalues --  -10.29702 -10.29215 -10.28822 -10.28566 -10.28529
 Alpha  occ. eigenvalues --  -10.28521 -10.28011 -10.27859 -10.27296 -10.26776
 Alpha  occ. eigenvalues --  -10.26773 -10.25892 -10.25871 -10.25572 -10.25516
 Alpha  occ. eigenvalues --  -10.25395 -10.25266 -10.25068 -10.25031 -10.24854
 Alpha  occ. eigenvalues --  -10.24836 -10.24801 -10.24794 -10.24590 -10.24274
 Alpha  occ. eigenvalues --  -10.24221 -10.24182 -10.24179 -10.23993 -10.23909
 Alpha  occ. eigenvalues --  -10.23893 -10.23783 -10.23677 -10.23615 -10.23479
 Alpha  occ. eigenvalues --  -10.23380 -10.23264 -10.23230 -10.23179 -10.22743
 Alpha  occ. eigenvalues --  -10.22530 -10.22525 -10.22485 -10.22451 -10.22438
 Alpha  occ. eigenvalues --  -10.22253 -10.22146 -10.21973 -10.21924 -10.21826
 Alpha  occ. eigenvalues --  -10.21814  -3.14199  -1.87019  -1.86568  -1.86432
 Alpha  occ. eigenvalues --   -1.10568  -1.10458  -1.05055  -1.04451  -1.02435
 Alpha  occ. eigenvalues --   -1.02112  -0.99334  -0.97623  -0.97031  -0.96409
 Alpha  occ. eigenvalues --   -0.86864  -0.85350  -0.84701  -0.84289  -0.83308
 Alpha  occ. eigenvalues --   -0.83058  -0.82785  -0.82292  -0.81965  -0.81251
 Alpha  occ. eigenvalues --   -0.80886  -0.79583  -0.78895  -0.78363  -0.77477
 Alpha  occ. eigenvalues --   -0.76812  -0.76046  -0.75382  -0.75139  -0.74642
 Alpha  occ. eigenvalues --   -0.74234  -0.73114  -0.72085  -0.71694  -0.70643
 Alpha  occ. eigenvalues --   -0.70461  -0.69544  -0.69460  -0.69202  -0.68664
 Alpha  occ. eigenvalues --   -0.68050  -0.67214  -0.66299  -0.64845  -0.63605
 Alpha  occ. eigenvalues --   -0.63273  -0.63046  -0.61402  -0.60774  -0.60297
 Alpha  occ. eigenvalues --   -0.59593  -0.58976  -0.58867  -0.58129  -0.58079
 Alpha  occ. eigenvalues --   -0.57822  -0.57731  -0.56792  -0.56480  -0.54972
 Alpha  occ. eigenvalues --   -0.54611  -0.53898  -0.53708  -0.52826  -0.52369
 Alpha  occ. eigenvalues --   -0.52191  -0.51649  -0.50551  -0.50429  -0.50291
 Alpha  occ. eigenvalues --   -0.50001  -0.49632  -0.49530  -0.49313  -0.49145
 Alpha  occ. eigenvalues --   -0.48819  -0.48294  -0.47933  -0.47687  -0.47573
 Alpha  occ. eigenvalues --   -0.47391  -0.47214  -0.47098  -0.46763  -0.46696
 Alpha  occ. eigenvalues --   -0.46380  -0.46187  -0.45875  -0.45499  -0.45353
 Alpha  occ. eigenvalues --   -0.45078  -0.44921  -0.44821  -0.44704  -0.44389
 Alpha  occ. eigenvalues --   -0.44320  -0.44014  -0.43935  -0.43739  -0.43661
 Alpha  occ. eigenvalues --   -0.43595  -0.43145  -0.42969  -0.42862  -0.42254
 Alpha  occ. eigenvalues --   -0.42025  -0.41826  -0.41797  -0.41593  -0.41388
 Alpha  occ. eigenvalues --   -0.41128  -0.40946  -0.40791  -0.40395  -0.40365
 Alpha  occ. eigenvalues --   -0.40289  -0.40104  -0.40016  -0.39671  -0.39588
 Alpha  occ. eigenvalues --   -0.39430  -0.39080  -0.38988  -0.38819  -0.38750
 Alpha  occ. eigenvalues --   -0.38497  -0.38332  -0.38325  -0.38220  -0.38116
 Alpha  occ. eigenvalues --   -0.37908  -0.37635  -0.37462  -0.37296  -0.37195
 Alpha  occ. eigenvalues --   -0.36518  -0.36453  -0.36367  -0.36344  -0.36179
 Alpha  occ. eigenvalues --   -0.35624  -0.35479  -0.35462  -0.35262  -0.34959
 Alpha  occ. eigenvalues --   -0.34925  -0.34344  -0.34276  -0.34102  -0.33983
 Alpha  occ. eigenvalues --   -0.33683  -0.33527  -0.32962  -0.32681  -0.32417
 Alpha  occ. eigenvalues --   -0.32281  -0.31991  -0.31935  -0.31497  -0.31446
 Alpha  occ. eigenvalues --   -0.31203  -0.30559  -0.29770  -0.29646  -0.29356
 Alpha  occ. eigenvalues --   -0.29120  -0.29062  -0.28151  -0.26670  -0.26037
 Alpha  occ. eigenvalues --   -0.25885  -0.25554  -0.25328  -0.25101  -0.20908
 Alpha  occ. eigenvalues --   -0.18309
 Alpha virt. eigenvalues --   -0.10895  -0.05379  -0.03673  -0.01626  -0.00846
 Alpha virt. eigenvalues --   -0.00500   0.00786   0.01073   0.01236   0.03421
 Alpha virt. eigenvalues --    0.03452   0.04419   0.04532   0.05218   0.05540

 Mulliken charges:
               1
     1  Mg   0.982762
     2  C   -0.057477
     3  C   -0.044004
     4  C   -0.032748
     5  C   -0.079854
     6  N   -0.323082
     7  C    0.046052
     8  C   -0.074105
     9  C   -0.167794
    10  C   -0.046624
    11  C    0.037778
    12  C    0.024464
    13  C   -0.003656
    14  C    0.241283
    15  O   -0.277442
    16  O   -0.381776
    17  N   -0.542526
    18  C    0.214239
    19  C   -0.190821
    20  C   -0.097812
    21  C    0.153874
    22  C    0.063734
    23  C    0.033570
    24  O   -0.249455
    25  C    0.000619
    26  N   -0.452553
    27  C    0.073374
    28  C   -0.112385
    29  C   -0.083478
    30  C    0.128739
    31  C    0.024805
    32  C   -0.061663
    33  C   -0.063285
    34  N   -0.450816
    35  C    0.124074
    36  C   -0.155854
    37  C   -0.031946
    38  C    0.185154
    39  C    0.059417
    40  C    0.121454
    41  O   -0.197316
    42  C   -0.154177
    43  C    0.301446
    44  O   -0.244403
    45  O   -0.386176
    46  C    0.108669
    47  C    0.240030
    48  C   -0.147734
    49  C   -0.196608
    50  C    0.009812
    51  C    0.079494
    52  C   -0.094930
    53  C   -0.006642
    54  C   -0.250737
    55  C   -0.017828
    56  C    0.011688
    57  C   -0.069339
    58  C    0.007680
    59  C   -0.189440
    60  C   -0.023097
    61  C   -0.014347
    62  C   -0.060057
    63  C   -0.018395
    64  C   -0.231254
    65  C   -0.023571
    66  C   -0.019160
    67  H   -0.008558
    68  H    0.033845
    69  H   -0.003884
    70  H    0.033829
    71  H    0.050989
    72  H    0.065875
    73  H    0.043668
    74  H    0.047102
    75  H    0.051964
    76  H    0.040297
    77  H    0.085661
    78  H    0.050351
    79  H    0.073412
    80  H    0.054794
    81  H    0.046509
    82  H    0.058574
    83  H    0.042962
    84  H    0.065121
    85  H    0.057378
    86  H    0.047247
    87  H    0.034949
    88  H    0.043412
    89  H    0.061845
    90  H    0.034308
    91  H    0.040347
    92  H    0.037371
    93  H    0.049423
    94  H    0.040624
    95  H    0.043785
    96  H    0.074897
    97  H    0.078654
    98  H    0.066963
    99  H    0.075595
   100  H    0.055939
   101  H    0.071748
   102  H    0.056949
   103  H    0.058055
   104  H    0.023408
   105  H    0.055200
   106  H    0.035454
   107  H    0.043002
   108  H    0.024200
   109  H    0.033175
   110  H    0.027564
   111  H    0.030305
   112  H    0.028220
   113  H    0.031641
   114  H    0.037969
   115  H    0.036593
   116  H    0.035056
   117  H    0.044410
   118  H    0.026376
   119  H    0.024538
   120  H    0.022549
   121  H    0.033292
   122  H    0.022560
   123  H    0.023139
   124  H    0.033942
   125  H    0.025320
   126  H    0.036433
   127  H    0.031450
   128  H    0.031614
   129  H    0.035026
   130  H    0.034471
   131  H    0.038836
   132  H    0.034278
   133  H    0.031558
   134  H    0.032454
   135  H    0.033611
   136  H    0.029415
   137  H    0.033952
   138  H    0.041487
   139  H    0.018871
   140  H    0.028782
 Sum of Mulliken charges =  -0.00000

 Dipole moment (field-independent basis, Debye):
    X=              3.8420    Y=              1.4155    Z=             -0.6454  Tot=              4.1450
 Quadrupole moment (field-independent basis, Debye-Ang):
   XX=           -361.5346   YY=           -424.9164   ZZ=           -413.5856
   XY=            -15.9533   XZ=             10.3897   YZ=              6.6102

 Normal termination of Gaussian 16 at Tue Apr 26 18:54:35 2022.
