 Gaussian 16, Revision A.03,
 Gaussian 16:  ES64L-G16RevA.03 25-Dec-2016

 --------------------------------
 #p wB97XD/Def2SVP td=(nstates=5)
 --------------------------------

 -----------------------------------------------------
 step_1001_chromophore_12 TDDFT with wB97XD functional
 -----------------------------------------------------
 Symbolic Z-matrix:
 Charge =  0 Multiplicity = 1

                         Standard orientation:
 ---------------------------------------------------------------------
 Center     Atomic      Atomic             Coordinates (Angstroms)
 Number     Number       Type             X           Y           Z
 ---------------------------------------------------------------------
      1         12           0       -4.002303    0.387411   -0.532401
      2          6           0       -3.103870   -2.934136    0.694969
      3          6           0       -0.632086    1.066718   -0.602884
      4          6           0       -4.862530    3.625808   -1.025627
      5          6           0       -7.272161   -0.422348    0.499867
      6          7           0       -2.143013   -0.795495    0.193664
      7          6           0       -2.004437   -2.095131    0.418702
      8          6           0       -0.588090   -2.496188    0.212179
      9          6           0        0.244889   -1.197571    0.274598
     10          6           0       -0.879444   -0.262092   -0.068452
     11          6           0        0.710529   -0.688809    1.674901
     12          6           0       -0.296783   -3.263024   -1.089098
     13          6           0        0.875773   -4.244179   -1.074295
     14          6           0        2.037722   -4.001326   -2.021024
     15          8           0        1.918936   -3.658117   -3.206190
     16          8           0        3.282258   -4.299570   -1.463835
     17          7           0       -2.907516    2.003490   -1.038260
     18          6           0       -1.528207    2.124629   -0.993737
     19          6           0       -1.110140    3.402928   -1.368032
     20          6           0       -2.260109    4.175708   -1.466788
     21          6           0       -3.440536    3.289909   -1.155833
     22          6           0        0.371684    3.886760   -1.446869
     23          6           0       -2.373773    5.680066   -1.775387
     24          8           0       -3.478885    6.194035   -1.858909
     25          6           0       -1.224633    6.619551   -2.013232
     26          7           0       -5.830421    1.422436   -0.316868
     27          6           0       -5.891778    2.786902   -0.660912
     28          6           0       -7.345421    3.176688   -0.706347
     29          6           0       -8.094507    1.885988   -0.236397
     30          6           0       -7.031996    0.838128   -0.089516
     31          6           0       -7.598662    4.459973    0.047335
     32          6           0       -9.365808    1.421666   -0.965628
     33          6           0       -9.267539    1.019571   -2.419819
     34          7           0       -5.008320   -1.285667    0.328981
     35          6           0       -6.355305   -1.476359    0.641472
     36          6           0       -6.651975   -2.881771    1.054381
     37          6           0       -5.385619   -3.476822    0.965241
     38          6           0       -4.418436   -2.484200    0.620331
     39          6           0       -8.024241   -3.420762    1.360969
     40          6           0       -4.761807   -4.731522    1.094285
     41          8           0       -5.213526   -5.796297    1.461374
     42          6           0       -3.130004   -4.427275    0.887426
     43          6           0       -2.529375   -4.831922    2.149578
     44          8           0       -3.009556   -4.644352    3.253888
     45          8           0       -1.406372   -5.559171    1.839510
     46          6           0       -0.752133   -6.235438    3.011116
     47          6           0        4.450880   -4.233285   -2.336213
     48          6           0        5.868181   -4.182967   -1.722019
     49          6           0        7.007932   -3.673464   -2.159894
     50          6           0        7.231608   -3.038162   -3.518274
     51          6           0        8.214002   -3.668786   -1.246705
     52          6           0        8.459243   -2.252457   -0.703155
     53          6           0        9.923765   -1.864498   -0.473667
     54          6           0       10.056372   -0.310725   -0.336020
     55          6           0       11.623623   -0.057355   -0.659200
     56          6           0        9.645773    0.154358    1.063183
     57          6           0        9.244496    1.647261    1.085615
     58          6           0        7.925503    1.951524    1.659683
     59          6           0        7.141071    3.184969    1.102640
     60          6           0        8.153542    4.355394    0.962005
     61          6           0        6.038315    3.603065    2.150106
     62          6           0        4.576031    3.613745    1.460614
     63          6           0        3.515470    4.235399    2.429200
     64          6           0        2.841718    5.535941    1.986691
     65          6           0        3.818149    6.684836    2.113246
     66          6           0        1.621386    5.901824    2.918668
     67          1           0        0.454786    1.102972   -0.705634
     68          1           0       -5.152876    4.665890   -1.187242
     69          1           0       -8.310943   -0.678609    0.715538
     70          1           0       -0.221824   -3.095397    1.045425
     71          1           0        0.988259   -0.983244   -0.493898
     72          1           0        0.354271    0.302406    1.956594
     73          1           0        1.798821   -0.658299    1.613757
     74          1           0        0.411742   -1.392635    2.451073
     75          1           0       -0.091474   -2.501119   -1.840001
     76          1           0       -1.143827   -3.868824   -1.413643
     77          1           0        0.387981   -5.212266   -1.192300
     78          1           0        1.287348   -4.160080   -0.068540
     79          1           0        0.534900    4.629614   -0.666754
     80          1           0        0.377006    4.341916   -2.436945
     81          1           0        1.105974    3.085755   -1.362076
     82          1           0       -1.613860    7.550316   -2.426317
     83          1           0       -0.609941    6.112813   -2.758360
     84          1           0       -0.641267    6.800792   -1.111094
     85          1           0       -7.511539    3.366669   -1.767055
     86          1           0       -8.490670    1.992571    0.773828
     87          1           0       -8.483403    4.324700    0.668753
     88          1           0       -7.864873    5.254125   -0.650337
     89          1           0       -6.718145    4.707452    0.640006
     90          1           0      -10.012451    2.297656   -1.001623
     91          1           0       -9.865429    0.577304   -0.489684
     92          1           0       -9.615911   -0.012662   -2.449046
     93          1           0       -8.243301    1.101629   -2.785756
     94          1           0       -9.960695    1.631481   -2.997013
     95          1           0       -8.914397   -2.948834    0.945238
     96          1           0       -8.116024   -3.315345    2.441861
     97          1           0       -7.893660   -4.401215    0.903920
     98          1           0       -2.690160   -5.014362    0.080450
     99          1           0       -0.865378   -5.744564    3.977897
    100          1           0        0.281099   -6.159192    2.671830
    101          1           0       -1.061729   -7.274500    3.120061
    102          1           0        4.437185   -3.320185   -2.931334
    103          1           0        4.395678   -5.119608   -2.968928
    104          1           0        5.824906   -4.588853   -0.710939
    105          1           0        7.354225   -1.955585   -3.502394
    106          1           0        6.424701   -3.256138   -4.217303
    107          1           0        8.079147   -3.455275   -4.061139
    108          1           0        9.105479   -3.875630   -1.839245
    109          1           0        8.005118   -4.262629   -0.357494
    110          1           0        7.980442   -2.244601    0.276167
    111          1           0        8.026498   -1.462543   -1.316580
    112          1           0       10.530968   -2.255167   -1.290871
    113          1           0       10.108523   -2.247214    0.530305
    114          1           0        9.480320    0.209802   -1.100430
    115          1           0       12.236846   -0.511365    0.119517
    116          1           0       11.622953    1.029932   -0.584286
    117          1           0       11.939055   -0.482024   -1.611339
    118          1           0       10.464520    0.125803    1.783201
    119          1           0        8.852813   -0.497829    1.428426
    120          1           0        9.200073    1.885061    0.023270
    121          1           0       10.119498    2.147962    1.499107
    122          1           0        8.168104    2.040533    2.718247
    123          1           0        7.330274    1.040403    1.593852
    124          1           0        6.696930    2.970419    0.130415
    125          1           0        8.773225    4.424761    0.068333
    126          1           0        8.889048    4.552884    1.741185
    127          1           0        7.480409    5.204022    0.841631
    128          1           0        6.167130    4.631301    2.486957
    129          1           0        6.186190    2.949911    3.009796
    130          1           0        4.325197    2.553228    1.457923
    131          1           0        4.511574    4.061634    0.468527
    132          1           0        4.017197    4.393429    3.383246
    133          1           0        2.650575    3.572185    2.388047
    134          1           0        2.465119    5.356523    0.979972
    135          1           0        3.475350    7.663788    1.779763
    136          1           0        4.721819    6.507651    1.530490
    137          1           0        4.102907    6.839827    3.154338
    138          1           0        0.707091    6.221488    2.418325
    139          1           0        1.811943    6.756373    3.567734
    140          1           0        1.454716    5.155905    3.696225
 ---------------------------------------------------------------------

 SCF Done:  E(RwB97XD) =  -3007.84785688     A.U. after   17 cycles

 Excitation energies and oscillator strengths:

 Excited State   1:      Singlet-A      1.6158 eV  767.31 nm  f=0.3699  <S**2>=0.000
     245 -> 248       -0.18431
     246 -> 247        0.68361
     245 <- 248       -0.11750
 This state for optimization and/or second-order correction.
 Total Energy, E(TD-HF/TD-DFT) =  -3007.78847651
 Copying the excited state density for this state as the 1-particle RhoCI density.

 Excited State   2:      Singlet-A      2.1909 eV  565.90 nm  f=0.0802  <S**2>=0.000
     245 -> 247        0.61839
     246 -> 248        0.33023

 Excited State   3:      Singlet-A      3.3500 eV  370.10 nm  f=0.2510  <S**2>=0.000
     240 -> 247        0.17071
     240 -> 249        0.13838
     242 -> 247        0.44457
     242 -> 249        0.10025
     244 -> 247       -0.15055
     245 -> 247        0.17881
     246 -> 248       -0.41114

 Excited State   4:      Singlet-A      3.4107 eV  363.52 nm  f=0.2964  <S**2>=0.000
     239 -> 247       -0.23120
     239 -> 249       -0.15495
     240 -> 247        0.37679
     240 -> 249        0.20168
     242 -> 247        0.13368
     242 -> 249        0.10311
     245 -> 247       -0.20801
     246 -> 248        0.38487

 Excited State   5:      Singlet-A      3.5744 eV  346.87 nm  f=0.1532  <S**2>=0.000
     239 -> 247       -0.25707
     240 -> 247        0.16651
     242 -> 247       -0.22902
     244 -> 247        0.49139
     245 -> 247        0.15552
     246 -> 248       -0.22514

 The electronic state is 1-A.
 Alpha  occ. eigenvalues --  -46.95028 -19.30860 -19.30672 -19.25150 -19.24734
 Alpha  occ. eigenvalues --  -19.24607 -19.22749 -14.46553 -14.45920 -14.44280
 Alpha  occ. eigenvalues --  -14.44214 -10.44181 -10.42604 -10.39309 -10.38179
 Alpha  occ. eigenvalues --  -10.36196 -10.35881 -10.35177 -10.35078 -10.34731
 Alpha  occ. eigenvalues --  -10.34655 -10.34448 -10.34071 -10.33740 -10.33460
 Alpha  occ. eigenvalues --  -10.33102 -10.32185 -10.32080 -10.32026 -10.32019
 Alpha  occ. eigenvalues --  -10.32012 -10.31544 -10.31411 -10.31248 -10.31137
 Alpha  occ. eigenvalues --  -10.31009 -10.30995 -10.30950 -10.30949 -10.30707
 Alpha  occ. eigenvalues --  -10.30515 -10.30453 -10.30349 -10.30225 -10.30185
 Alpha  occ. eigenvalues --  -10.30135 -10.30127 -10.30108 -10.30020 -10.29997
 Alpha  occ. eigenvalues --  -10.29774 -10.29751 -10.29586 -10.29484 -10.29036
 Alpha  occ. eigenvalues --  -10.28861 -10.28852 -10.28821 -10.28815 -10.28791
 Alpha  occ. eigenvalues --  -10.28707 -10.28487 -10.28318 -10.28300 -10.28210
 Alpha  occ. eigenvalues --  -10.28167  -3.20994  -1.94561  -1.94115  -1.93968
 Alpha  occ. eigenvalues --   -1.18179  -1.17849  -1.12901  -1.11577  -1.10020
 Alpha  occ. eigenvalues --   -1.09471  -1.06778  -1.05186  -1.04409  -1.03565
 Alpha  occ. eigenvalues --   -0.94734  -0.93010  -0.92325  -0.91924  -0.90917
 Alpha  occ. eigenvalues --   -0.90671  -0.90297  -0.89978  -0.89602  -0.88985
 Alpha  occ. eigenvalues --   -0.88345  -0.87163  -0.86510  -0.86092  -0.85056
 Alpha  occ. eigenvalues --   -0.84454  -0.83719  -0.82949  -0.82784  -0.82245
 Alpha  occ. eigenvalues --   -0.81894  -0.80833  -0.79602  -0.79214  -0.78341
 Alpha  occ. eigenvalues --   -0.78151  -0.77122  -0.77091  -0.76850  -0.76283
 Alpha  occ. eigenvalues --   -0.75644  -0.74867  -0.73807  -0.72430  -0.71176
 Alpha  occ. eigenvalues --   -0.70934  -0.70646  -0.68829  -0.68341  -0.67779
 Alpha  occ. eigenvalues --   -0.67223  -0.66363  -0.66300  -0.65731  -0.65622
 Alpha  occ. eigenvalues --   -0.65440  -0.65227  -0.64361  -0.64058  -0.62538
 Alpha  occ. eigenvalues --   -0.62139  -0.61286  -0.60943  -0.60264  -0.60019
 Alpha  occ. eigenvalues --   -0.59775  -0.59061  -0.58032  -0.57876  -0.57754
 Alpha  occ. eigenvalues --   -0.57453  -0.57003  -0.56975  -0.56734  -0.56560
 Alpha  occ. eigenvalues --   -0.56362  -0.55708  -0.55342  -0.55055  -0.54951
 Alpha  occ. eigenvalues --   -0.54776  -0.54559  -0.54423  -0.54091  -0.54007
 Alpha  occ. eigenvalues --   -0.53797  -0.53657  -0.53184  -0.52821  -0.52755
 Alpha  occ. eigenvalues --   -0.52430  -0.52275  -0.52170  -0.52014  -0.51673
 Alpha  occ. eigenvalues --   -0.51561  -0.51368  -0.51208  -0.51061  -0.50922
 Alpha  occ. eigenvalues --   -0.50762  -0.50394  -0.50204  -0.49995  -0.49542
 Alpha  occ. eigenvalues --   -0.49421  -0.49229  -0.49053  -0.48792  -0.48573
 Alpha  occ. eigenvalues --   -0.48356  -0.48110  -0.47917  -0.47564  -0.47546
 Alpha  occ. eigenvalues --   -0.47475  -0.47308  -0.47260  -0.46942  -0.46767
 Alpha  occ. eigenvalues --   -0.46586  -0.46201  -0.46148  -0.45995  -0.45817
 Alpha  occ. eigenvalues --   -0.45703  -0.45559  -0.45524  -0.45405  -0.45233
 Alpha  occ. eigenvalues --   -0.44951  -0.44637  -0.44550  -0.44412  -0.44188
 Alpha  occ. eigenvalues --   -0.43630  -0.43504  -0.43443  -0.43384  -0.43220
 Alpha  occ. eigenvalues --   -0.42630  -0.42521  -0.42510  -0.42347  -0.42015
 Alpha  occ. eigenvalues --   -0.41932  -0.41330  -0.41299  -0.41106  -0.40949
 Alpha  occ. eigenvalues --   -0.40734  -0.40544  -0.39833  -0.39638  -0.39441
 Alpha  occ. eigenvalues --   -0.39185  -0.39160  -0.39032  -0.38489  -0.38351
 Alpha  occ. eigenvalues --   -0.38326  -0.37497  -0.36561  -0.36507  -0.36471
 Alpha  occ. eigenvalues --   -0.36295  -0.36027  -0.34831  -0.33398  -0.33002
 Alpha  occ. eigenvalues --   -0.32612  -0.32393  -0.31973  -0.31801  -0.25963
 Alpha  occ. eigenvalues --   -0.22446
 Alpha virt. eigenvalues --   -0.06736   0.00068   0.02531   0.04962   0.05436
 Alpha virt. eigenvalues --    0.06021   0.07385   0.07788   0.07948   0.10033
 Alpha virt. eigenvalues --    0.10281   0.10928   0.11360   0.11955   0.12292

 Mulliken charges:
               1
     1  Mg   0.973163
     2  C   -0.063999
     3  C   -0.057385
     4  C   -0.050464
     5  C   -0.101101
     6  N   -0.288951
     7  C    0.008746
     8  C   -0.038415
     9  C   -0.141634
    10  C   -0.061328
    11  C    0.045007
    12  C    0.030334
    13  C    0.012587
    14  C    0.232556
    15  O   -0.274688
    16  O   -0.380635
    17  N   -0.511875
    18  C    0.204845
    19  C   -0.184704
    20  C   -0.090314
    21  C    0.139408
    22  C    0.083330
    23  C    0.026131
    24  O   -0.247607
    25  C    0.013594
    26  N   -0.418753
    27  C    0.064676
    28  C   -0.087353
    29  C   -0.054973
    30  C    0.115123
    31  C    0.035204
    32  C   -0.046391
    33  C   -0.050011
    34  N   -0.417464
    35  C    0.126332
    36  C   -0.151711
    37  C   -0.025215
    38  C    0.175014
    39  C    0.069401
    40  C    0.104349
    41  O   -0.185533
    42  C   -0.109108
    43  C    0.275666
    44  O   -0.239839
    45  O   -0.384615
    46  C    0.124020
    47  C    0.254495
    48  C   -0.160129
    49  C   -0.178206
    50  C    0.018647
    51  C    0.100686
    52  C   -0.079109
    53  C    0.014183
    54  C   -0.219879
    55  C   -0.002529
    56  C    0.021876
    57  C   -0.045944
    58  C    0.018889
    59  C   -0.158400
    60  C   -0.010543
    61  C    0.001392
    62  C   -0.045238
    63  C   -0.001849
    64  C   -0.195390
    65  C   -0.009824
    66  C   -0.010618
    67  H   -0.017957
    68  H    0.029044
    69  H   -0.012766
    70  H    0.016196
    71  H    0.041094
    72  H    0.059458
    73  H    0.037973
    74  H    0.039974
    75  H    0.044156
    76  H    0.031044
    77  H    0.081667
    78  H    0.043273
    79  H    0.063142
    80  H    0.045970
    81  H    0.040932
    82  H    0.056516
    83  H    0.034978
    84  H    0.060235
    85  H    0.046167
    86  H    0.036256
    87  H    0.028015
    88  H    0.038792
    89  H    0.055890
    90  H    0.026366
    91  H    0.032774
    92  H    0.031506
    93  H    0.041675
    94  H    0.036390
    95  H    0.041852
    96  H    0.072229
    97  H    0.075043
    98  H    0.061212
    99  H    0.072622
   100  H    0.053031
   101  H    0.068480
   102  H    0.049808
   103  H    0.053385
   104  H    0.020386
   105  H    0.050839
   106  H    0.030132
   107  H    0.038173
   108  H    0.014336
   109  H    0.027005
   110  H    0.017904
   111  H    0.016464
   112  H    0.018657
   113  H    0.020830
   114  H    0.025495
   115  H    0.029256
   116  H    0.027502
   117  H    0.038901
   118  H    0.018523
   119  H    0.011951
   120  H    0.006061
   121  H    0.025652
   122  H    0.013159
   123  H    0.013161
   124  H    0.025073
   125  H    0.019588
   126  H    0.030629
   127  H    0.022037
   128  H    0.017471
   129  H    0.027491
   130  H    0.025372
   131  H    0.031375
   132  H    0.023553
   133  H    0.022798
   134  H    0.019474
   135  H    0.028141
   136  H    0.019963
   137  H    0.026067
   138  H    0.037129
   139  H    0.012027
   140  H    0.023067
 Sum of Mulliken charges =  -0.00000

 Dipole moment (field-independent basis, Debye):
    X=              3.5065    Y=              0.5973    Z=             -0.4448  Tot=              3.5848
 Quadrupole moment (field-independent basis, Debye-Ang):
   XX=           -358.9240   YY=           -423.6718   ZZ=           -413.4271
   XY=            -12.6149   XZ=              9.4528   YZ=              6.3492

 Normal termination of Gaussian 16 at Tue Apr 26 19:23:24 2022.
