 Gaussian 16, Revision A.03,
 Gaussian 16:  ES64L-G16RevA.03 25-Dec-2016

 --------------------
 #p ZINDO=(nstates=5)
 --------------------

 ------------------------------
 step_1001_chromophore_12 ZINDO
 ------------------------------
 Symbolic Z-matrix:
 Charge =  0 Multiplicity = 1

                         Standard orientation:
 ---------------------------------------------------------------------
 Center     Atomic      Atomic             Coordinates (Angstroms)
 Number     Number       Type             X           Y           Z
 ---------------------------------------------------------------------
      1         12           0       -4.002303    0.387411   -0.532401
      2          6           0       -3.103870   -2.934136    0.694969
      3          6           0       -0.632086    1.066718   -0.602884
      4          6           0       -4.862530    3.625808   -1.025627
      5          6           0       -7.272161   -0.422348    0.499867
      6          7           0       -2.143013   -0.795495    0.193664
      7          6           0       -2.004437   -2.095131    0.418702
      8          6           0       -0.588090   -2.496188    0.212179
      9          6           0        0.244889   -1.197571    0.274598
     10          6           0       -0.879444   -0.262092   -0.068452
     11          6           0        0.710529   -0.688809    1.674901
     12          6           0       -0.296783   -3.263024   -1.089098
     13          6           0        0.875773   -4.244179   -1.074295
     14          6           0        2.037722   -4.001326   -2.021024
     15          8           0        1.918936   -3.658117   -3.206190
     16          8           0        3.282258   -4.299570   -1.463835
     17          7           0       -2.907516    2.003490   -1.038260
     18          6           0       -1.528207    2.124629   -0.993737
     19          6           0       -1.110140    3.402928   -1.368032
     20          6           0       -2.260109    4.175708   -1.466788
     21          6           0       -3.440536    3.289909   -1.155833
     22          6           0        0.371684    3.886760   -1.446869
     23          6           0       -2.373773    5.680066   -1.775387
     24          8           0       -3.478885    6.194035   -1.858909
     25          6           0       -1.224633    6.619551   -2.013232
     26          7           0       -5.830421    1.422436   -0.316868
     27          6           0       -5.891778    2.786902   -0.660912
     28          6           0       -7.345421    3.176688   -0.706347
     29          6           0       -8.094507    1.885988   -0.236397
     30          6           0       -7.031996    0.838128   -0.089516
     31          6           0       -7.598662    4.459973    0.047335
     32          6           0       -9.365808    1.421666   -0.965628
     33          6           0       -9.267539    1.019571   -2.419819
     34          7           0       -5.008320   -1.285667    0.328981
     35          6           0       -6.355305   -1.476359    0.641472
     36          6           0       -6.651975   -2.881771    1.054381
     37          6           0       -5.385619   -3.476822    0.965241
     38          6           0       -4.418436   -2.484200    0.620331
     39          6           0       -8.024241   -3.420762    1.360969
     40          6           0       -4.761807   -4.731522    1.094285
     41          8           0       -5.213526   -5.796297    1.461374
     42          6           0       -3.130004   -4.427275    0.887426
     43          6           0       -2.529375   -4.831922    2.149578
     44          8           0       -3.009556   -4.644352    3.253888
     45          8           0       -1.406372   -5.559171    1.839510
     46          6           0       -0.752133   -6.235438    3.011116
     47          6           0        4.450880   -4.233285   -2.336213
     48          6           0        5.868181   -4.182967   -1.722019
     49          6           0        7.007932   -3.673464   -2.159894
     50          6           0        7.231608   -3.038162   -3.518274
     51          6           0        8.214002   -3.668786   -1.246705
     52          6           0        8.459243   -2.252457   -0.703155
     53          6           0        9.923765   -1.864498   -0.473667
     54          6           0       10.056372   -0.310725   -0.336020
     55          6           0       11.623623   -0.057355   -0.659200
     56          6           0        9.645773    0.154358    1.063183
     57          6           0        9.244496    1.647261    1.085615
     58          6           0        7.925503    1.951524    1.659683
     59          6           0        7.141071    3.184969    1.102640
     60          6           0        8.153542    4.355394    0.962005
     61          6           0        6.038315    3.603065    2.150106
     62          6           0        4.576031    3.613745    1.460614
     63          6           0        3.515470    4.235399    2.429200
     64          6           0        2.841718    5.535941    1.986691
     65          6           0        3.818149    6.684836    2.113246
     66          6           0        1.621386    5.901824    2.918668
     67          1           0        0.454786    1.102972   -0.705634
     68          1           0       -5.152876    4.665890   -1.187242
     69          1           0       -8.310943   -0.678609    0.715538
     70          1           0       -0.221824   -3.095397    1.045425
     71          1           0        0.988259   -0.983244   -0.493898
     72          1           0        0.354271    0.302406    1.956594
     73          1           0        1.798821   -0.658299    1.613757
     74          1           0        0.411742   -1.392635    2.451073
     75          1           0       -0.091474   -2.501119   -1.840001
     76          1           0       -1.143827   -3.868824   -1.413643
     77          1           0        0.387981   -5.212266   -1.192300
     78          1           0        1.287348   -4.160080   -0.068540
     79          1           0        0.534900    4.629614   -0.666754
     80          1           0        0.377006    4.341916   -2.436945
     81          1           0        1.105974    3.085755   -1.362076
     82          1           0       -1.613860    7.550316   -2.426317
     83          1           0       -0.609941    6.112813   -2.758360
     84          1           0       -0.641267    6.800792   -1.111094
     85          1           0       -7.511539    3.366669   -1.767055
     86          1           0       -8.490670    1.992571    0.773828
     87          1           0       -8.483403    4.324700    0.668753
     88          1           0       -7.864873    5.254125   -0.650337
     89          1           0       -6.718145    4.707452    0.640006
     90          1           0      -10.012451    2.297656   -1.001623
     91          1           0       -9.865429    0.577304   -0.489684
     92          1           0       -9.615911   -0.012662   -2.449046
     93          1           0       -8.243301    1.101629   -2.785756
     94          1           0       -9.960695    1.631481   -2.997013
     95          1           0       -8.914397   -2.948834    0.945238
     96          1           0       -8.116024   -3.315345    2.441861
     97          1           0       -7.893660   -4.401215    0.903920
     98          1           0       -2.690160   -5.014362    0.080450
     99          1           0       -0.865378   -5.744564    3.977897
    100          1           0        0.281099   -6.159192    2.671830
    101          1           0       -1.061729   -7.274500    3.120061
    102          1           0        4.437185   -3.320185   -2.931334
    103          1           0        4.395678   -5.119608   -2.968928
    104          1           0        5.824906   -4.588853   -0.710939
    105          1           0        7.354225   -1.955585   -3.502394
    106          1           0        6.424701   -3.256138   -4.217303
    107          1           0        8.079147   -3.455275   -4.061139
    108          1           0        9.105479   -3.875630   -1.839245
    109          1           0        8.005118   -4.262629   -0.357494
    110          1           0        7.980442   -2.244601    0.276167
    111          1           0        8.026498   -1.462543   -1.316580
    112          1           0       10.530968   -2.255167   -1.290871
    113          1           0       10.108523   -2.247214    0.530305
    114          1           0        9.480320    0.209802   -1.100430
    115          1           0       12.236846   -0.511365    0.119517
    116          1           0       11.622953    1.029932   -0.584286
    117          1           0       11.939055   -0.482024   -1.611339
    118          1           0       10.464520    0.125803    1.783201
    119          1           0        8.852813   -0.497829    1.428426
    120          1           0        9.200073    1.885061    0.023270
    121          1           0       10.119498    2.147962    1.499107
    122          1           0        8.168104    2.040533    2.718247
    123          1           0        7.330274    1.040403    1.593852
    124          1           0        6.696930    2.970419    0.130415
    125          1           0        8.773225    4.424761    0.068333
    126          1           0        8.889048    4.552884    1.741185
    127          1           0        7.480409    5.204022    0.841631
    128          1           0        6.167130    4.631301    2.486957
    129          1           0        6.186190    2.949911    3.009796
    130          1           0        4.325197    2.553228    1.457923
    131          1           0        4.511574    4.061634    0.468527
    132          1           0        4.017197    4.393429    3.383246
    133          1           0        2.650575    3.572185    2.388047
    134          1           0        2.465119    5.356523    0.979972
    135          1           0        3.475350    7.663788    1.779763
    136          1           0        4.721819    6.507651    1.530490
    137          1           0        4.102907    6.839827    3.154338
    138          1           0        0.707091    6.221488    2.418325
    139          1           0        1.811943    6.756373    3.567734
    140          1           0        1.454716    5.155905    3.696225
 ---------------------------------------------------------------------

 SCF Done:  E(RZINDO/S) =  -474.275519822     A.U. after   19 cycles

 Excitation energies and oscillator strengths:

 Excited State   1:      Singlet-A      1.2368 eV 1002.44 nm  f=0.5547  <S**2>=0.000
     175 ->178        -0.17510
     176 ->177         0.66824
 This state for optimization and/or second-order correction.
 Total Energy, E(CIS/TDA) =  -474.230067384
 Copying the excited state density for this state as the 1-particle RhoCI density.

 Excited State   2:      Singlet-A      1.9035 eV  651.33 nm  f=0.0098  <S**2>=0.000
     175 ->177         0.50154
     176 ->178         0.47076

 Excited State   3:      Singlet-A      2.8819 eV  430.22 nm  f=0.5517  <S**2>=0.000
     168 ->177         0.23247
     168 ->179        -0.24476
     175 ->177        -0.30502
     176 ->178         0.36706
     176 ->179         0.28494

 Excited State   4:      Singlet-A      2.8925 eV  428.64 nm  f=0.2562  <S**2>=0.000
     168 ->177        -0.30760
     168 ->178         0.10347
     168 ->179         0.33509
     168 ->183         0.11305
     168 ->186        -0.12747
     171 ->177        -0.16717
     175 ->177        -0.20834
     176 ->178         0.25626
     176 ->179         0.16586

 Excited State   5:      Singlet-A      2.9778 eV  416.37 nm  f=0.3687  <S**2>=0.000
     175 ->177         0.22829
     176 ->178        -0.19463
     176 ->179         0.47552
     176 ->181         0.27205
     176 ->183        -0.11742

 The electronic state is 1-A.
 Alpha  occ. eigenvalues --   -1.84911  -1.81226  -1.79124  -1.73222  -1.71594
 Alpha  occ. eigenvalues --   -1.70440  -1.66281  -1.61321  -1.58761  -1.58289
 Alpha  occ. eigenvalues --   -1.56907  -1.51896  -1.49655  -1.48776  -1.47571
 Alpha  occ. eigenvalues --   -1.45378  -1.43236  -1.41663  -1.39372  -1.38293
 Alpha  occ. eigenvalues --   -1.36976  -1.34654  -1.32379  -1.29767  -1.28589
 Alpha  occ. eigenvalues --   -1.27583  -1.24797  -1.21041  -1.19986  -1.19165
 Alpha  occ. eigenvalues --   -1.18285  -1.16159  -1.14940  -1.14452  -1.13393
 Alpha  occ. eigenvalues --   -1.13258  -1.10729  -1.09327  -1.04751  -1.04200
 Alpha  occ. eigenvalues --   -1.02947  -1.01032  -0.99293  -0.98179  -0.96110
 Alpha  occ. eigenvalues --   -0.95211  -0.94005  -0.93712  -0.92377  -0.91851
 Alpha  occ. eigenvalues --   -0.89918  -0.89737  -0.88897  -0.87137  -0.85932
 Alpha  occ. eigenvalues --   -0.84742  -0.83687  -0.83274  -0.81594  -0.81095
 Alpha  occ. eigenvalues --   -0.80632  -0.79936  -0.79044  -0.77863  -0.76358
 Alpha  occ. eigenvalues --   -0.75795  -0.75300  -0.74756  -0.74658  -0.74355
 Alpha  occ. eigenvalues --   -0.73104  -0.72936  -0.71769  -0.71647  -0.70997
 Alpha  occ. eigenvalues --   -0.69799  -0.69325  -0.69287  -0.68252  -0.68112
 Alpha  occ. eigenvalues --   -0.67624  -0.67001  -0.66809  -0.66407  -0.65968
 Alpha  occ. eigenvalues --   -0.65699  -0.65511  -0.65158  -0.64699  -0.64515
 Alpha  occ. eigenvalues --   -0.64000  -0.63184  -0.62469  -0.62266  -0.61324
 Alpha  occ. eigenvalues --   -0.60955  -0.60892  -0.60723  -0.60283  -0.59931
 Alpha  occ. eigenvalues --   -0.59662  -0.59099  -0.59063  -0.58504  -0.58199
 Alpha  occ. eigenvalues --   -0.57305  -0.56818  -0.56718  -0.56193  -0.55963
 Alpha  occ. eigenvalues --   -0.55865  -0.55739  -0.54905  -0.54484  -0.54343
 Alpha  occ. eigenvalues --   -0.54086  -0.53424  -0.53224  -0.53171  -0.52758
 Alpha  occ. eigenvalues --   -0.52472  -0.52077  -0.51997  -0.51843  -0.51645
 Alpha  occ. eigenvalues --   -0.51196  -0.50707  -0.50656  -0.50645  -0.50363
 Alpha  occ. eigenvalues --   -0.49928  -0.49757  -0.49546  -0.49336  -0.49281
 Alpha  occ. eigenvalues --   -0.49001  -0.48718  -0.48500  -0.48263  -0.47677
 Alpha  occ. eigenvalues --   -0.47469  -0.46897  -0.46774  -0.46719  -0.46481
 Alpha  occ. eigenvalues --   -0.46327  -0.46070  -0.45860  -0.45775  -0.45720
 Alpha  occ. eigenvalues --   -0.44919  -0.44801  -0.44530  -0.44077  -0.44036
 Alpha  occ. eigenvalues --   -0.43456  -0.42913  -0.42754  -0.42377  -0.42233
 Alpha  occ. eigenvalues --   -0.41993  -0.41958  -0.41872  -0.39547  -0.39210
 Alpha  occ. eigenvalues --   -0.37712  -0.37288  -0.35576  -0.34302  -0.33696
 Alpha  occ. eigenvalues --   -0.33604  -0.32954  -0.32049  -0.31828  -0.26661
 Alpha  occ. eigenvalues --   -0.21123
 Alpha virt. eigenvalues --   -0.08056  -0.02017  -0.00472   0.00852   0.01780
 Alpha virt. eigenvalues --    0.02000   0.02262   0.03008   0.04934   0.05037
 Alpha virt. eigenvalues --    0.06511   0.06983   0.07586   0.07788   0.08203

 Mulliken charges:
               1
     1  Mg   0.429584
     2  C   -0.060388
     3  C   -0.094004
     4  C   -0.055483
     5  C   -0.085522
     6  N   -0.285296
     7  C    0.169643
     8  C    0.025751
     9  C   -0.008055
    10  C    0.089203
    11  C   -0.045238
    12  C   -0.019167
    13  C    0.007167
    14  C    0.468959
    15  O   -0.516286
    16  O   -0.272899
    17  N   -0.312277
    18  C    0.085192
    19  C   -0.011604
    20  C   -0.059530
    21  C    0.106390
    22  C   -0.051608
    23  C    0.315532
    24  O   -0.538881
    25  C   -0.026225
    26  N   -0.284038
    27  C    0.103245
    28  C    0.010426
    29  C    0.010315
    30  C    0.172745
    31  C   -0.048341
    32  C   -0.030804
    33  C   -0.058183
    34  N   -0.345411
    35  C    0.126705
    36  C    0.059146
    37  C   -0.031806
    38  C    0.137637
    39  C   -0.036300
    40  C    0.329920
    41  O   -0.502718
    42  C    0.046048
    43  C    0.493808
    44  O   -0.514593
    45  O   -0.281744
    46  C    0.070685
    47  C    0.102186
    48  C   -0.087744
    49  C    0.005339
    50  C   -0.043368
    51  C   -0.025231
    52  C   -0.041328
    53  C   -0.045640
    54  C   -0.022643
    55  C   -0.070736
    56  C   -0.035169
    57  C   -0.037753
    58  C   -0.027150
    59  C   -0.008787
    60  C   -0.062649
    61  C   -0.044277
    62  C   -0.047995
    63  C   -0.040411
    64  C   -0.003079
    65  C   -0.048991
    66  C   -0.067889
    67  H    0.024911
    68  H    0.053202
    69  H    0.024710
    70  H    0.021389
    71  H    0.042183
    72  H    0.035331
    73  H    0.014065
    74  H    0.022037
    75  H    0.034678
    76  H    0.021234
    77  H    0.055110
    78  H    0.029407
    79  H    0.029503
    80  H    0.029789
    81  H    0.027447
    82  H    0.039563
    83  H    0.030196
    84  H    0.039451
    85  H    0.033358
    86  H    0.026474
    87  H    0.012878
    88  H    0.022987
    89  H    0.034425
    90  H    0.013042
    91  H    0.023672
    92  H    0.015807
    93  H    0.026108
    94  H    0.020930
    95  H    0.031529
    96  H    0.048699
    97  H    0.045585
    98  H    0.053793
    99  H    0.055684
   100  H    0.025789
   101  H    0.048663
   102  H    0.047702
   103  H    0.046676
   104  H    0.019952
   105  H    0.032842
   106  H    0.015593
   107  H    0.022797
   108  H    0.029817
   109  H    0.030785
   110  H    0.013517
   111  H    0.021177
   112  H    0.027333
   113  H    0.023881
   114  H    0.027779
   115  H    0.020872
   116  H    0.018783
   117  H    0.026146
   118  H    0.016676
   119  H    0.020006
   120  H    0.009410
   121  H    0.022031
   122  H    0.015091
   123  H    0.011615
   124  H    0.032370
   125  H    0.012019
   126  H    0.027071
   127  H    0.005684
   128  H    0.019857
   129  H    0.030344
   130  H    0.012827
   131  H    0.036321
   132  H    0.030421
   133  H    0.016179
   134  H    0.024142
   135  H    0.011612
   136  H    0.007014
   137  H    0.019078
   138  H    0.023991
   139  H    0.010184
   140  H    0.018391
 Sum of Mulliken charges =  -0.00000

 Dipole moment (field-independent basis, Debye):
    X=              4.1640    Y=             -1.1826    Z=             -0.2365  Tot=              4.3352
 N-N= 4.522741985700D+03 E-N= 0.000000000000D+00  KE=-9.719692752607D+03
 Leave Link  601 at Tue Apr 26 19:36:01 2022, MaxMem=  6710886400 cpu:               0.8 elap:               0.0
 (Enter /sw/apps/gaussian-16.0/g16/l9999.exe)
 1\1\GINC-BP1-COMPUTE148\SP\RZINDO CIS\STO-3G\C55H74Mg1N4O6\OF15641\26-
 Apr-2022\0\\#p ZINDO=(nstates=5)\\step_1001_chromophore_12 ZINDO\\0,1\
 Mg,0,47.571,15.372,28.44\C,0,45.228,15.038,31.223\C,0,49.37,17.499,30.
 456\C,0,49.347,16.181,25.672\C,0,45.038,13.884,26.495\N,0,47.154,16.28
 7,30.531\C,0,46.337,15.868,31.488\C,0,46.848,16.301,32.815\C,0,47.851,
 17.443,32.543\C,0,48.153,17.064,31.121\C,0,47.294,18.895,32.409\C,0,47
 .501,15.2,33.668\C,0,47.434,15.361,35.187\C,0,48.734,15.476,35.963\O,0

 Normal termination of Gaussian 16 at Tue Apr 26 19:36:01 2022.
