 Gaussian 16, Revision A.03,
 Gaussian 16:  ES64L-G16RevA.03 25-Dec-2016

 ------------------------------
 #p blyp/Def2SVP td=(nstates=5)
 ------------------------------

 --------------------------------------------------
 step_551_chromophore_25 TDDFT with blyp functional
 --------------------------------------------------
 Symbolic Z-matrix:
 Charge =  0 Multiplicity = 1

                         Standard orientation:
 ---------------------------------------------------------------------
 Center     Atomic      Atomic             Coordinates (Angstroms)
 Number     Number       Type             X           Y           Z
 ---------------------------------------------------------------------
      1         12           0        6.045515    0.325790    0.044710
      2          6           0        3.723007   -2.338041    0.138507
      3          6           0        3.288311    2.456903   -0.505757
      4          6           0        8.241003    2.747135   -0.072258
      5          6           0        8.633744   -2.013748    0.088046
      6          7           0        3.763351    0.095667   -0.222880
      7          6           0        3.074963   -1.070965    0.108260
      8          6           0        1.651839   -0.817221    0.180116
      9          6           0        1.517888    0.684506   -0.229935
     10          6           0        2.921128    1.136767   -0.359455
     11          6           0        0.571930    1.044435   -1.406229
     12          6           0        0.871926   -1.214350    1.400028
     13          6           0       -0.523775   -1.837834    1.208676
     14          6           0       -1.733857   -1.037446    1.828984
     15          8           0       -1.600381   -0.418107    2.850339
     16          8           0       -2.850924   -1.097264    1.092429
     17          7           0        5.798333    2.313776   -0.266890
     18          6           0        4.638907    3.017017   -0.400397
     19          6           0        4.961307    4.426168   -0.377405
     20          6           0        6.388699    4.563837   -0.341489
     21          6           0        6.856583    3.145425   -0.292339
     22          6           0        3.910051    5.592169   -0.459515
     23          6           0        7.233468    5.792612   -0.349968
     24          8           0        8.438382    5.747470   -0.545982
     25          6           0        6.682502    7.195060   -0.273164
     26          7           0        8.122896    0.431632   -0.033643
     27          6           0        8.853739    1.558693    0.069878
     28          6           0       10.412725    1.268091    0.058452
     29          6           0       10.474671   -0.242937    0.272012
     30          6           0        8.982913   -0.637865    0.010422
     31          6           0       11.160148    1.756126   -1.228120
     32          6           0       11.018898   -0.618428    1.685669
     33          6           0       10.090271   -0.347970    2.917721
     34          7           0        6.177340   -1.755056    0.126507
     35          6           0        7.338253   -2.579546    0.091389
     36          6           0        6.858425   -3.929561    0.223822
     37          6           0        5.434077   -3.846693    0.149429
     38          6           0        5.076904   -2.511271    0.087435
     39          6           0        7.669569   -5.134218    0.213087
     40          6           0        4.147007   -4.670488    0.105936
     41          8           0        3.925265   -5.867297    0.053717
     42          6           0        2.986006   -3.691523    0.074291
     43          6           0        2.248270   -3.893165   -1.186467
     44          8           0        2.692391   -3.468465   -2.250959
     45          8           0        0.992427   -4.375377   -1.036869
     46          6           0        0.122846   -4.487452   -2.253540
     47          6           0       -3.873551   -0.176868    1.527813
     48          6           0       -4.741215   -0.033593    0.316491
     49          6           0       -5.753073   -0.858693   -0.155107
     50          6           0       -6.121206   -2.137277    0.604628
     51          6           0       -6.595965   -0.650674   -1.400109
     52          6           0       -7.961860    0.122386   -1.252517
     53          6           0       -8.362333    0.945252   -2.624115
     54          6           0       -9.883060    0.727447   -3.165562
     55          6           0      -10.152330    1.714069   -4.362263
     56          6           0      -11.002067    0.919733   -2.040438
     57          6           0      -12.201175   -0.094928   -2.199981
     58          6           0      -13.518818    0.462898   -1.683510
     59          6           0      -13.837678   -0.058988   -0.342636
     60          6           0      -15.000977   -1.134556   -0.584076
     61          6           0      -14.253337    0.979780    0.634492
     62          6           0      -14.005329    0.595246    2.094714
     63          6           0      -13.188299    1.610084    2.956987
     64          6           0      -11.819399    1.112782    3.417235
     65          6           0      -11.332350    2.007665    4.619555
     66          6           0      -10.747464    0.907045    2.385370
     67          1           0        2.443819    3.150080   -0.514737
     68          1           0        8.891942    3.623235   -0.041596
     69          1           0        9.456833   -2.730641    0.134207
     70          1           0        1.258847   -1.289955   -0.719771
     71          1           0        1.189612    1.201604    0.671871
     72          1           0        0.202849    0.136320   -1.883097
     73          1           0        1.183475    1.539896   -2.160008
     74          1           0       -0.233461    1.730234   -1.145827
     75          1           0        0.895126   -0.462082    2.189577
     76          1           0        1.510557   -2.010970    1.782304
     77          1           0       -0.465110   -2.813919    1.689267
     78          1           0       -0.750252   -2.095663    0.173552
     79          1           0        2.905623    5.202707   -0.294913
     80          1           0        4.036975    6.022697   -1.451873
     81          1           0        4.143144    6.287236    0.347971
     82          1           0        7.503925    7.910437   -0.260514
     83          1           0        6.133931    7.258591    0.666541
     84          1           0        5.963346    7.366752   -1.074908
     85          1           0       10.786613    1.846353    0.903386
     86          1           0       11.132947   -0.627096   -0.507285
     87          1           0       11.322405    0.905915   -1.890920
     88          1           0       12.067846    2.345666   -1.098253
     89          1           0       10.514950    2.447291   -1.769550
     90          1           0       12.053143   -0.347468    1.896897
     91          1           0       11.075999   -1.706496    1.651447
     92          1           0       10.692670    0.164438    3.667263
     93          1           0        9.830250   -1.299208    3.381508
     94          1           0        9.235553    0.274794    2.654048
     95          1           0        7.570274   -5.579919    1.202716
     96          1           0        8.717306   -5.074583   -0.081612
     97          1           0        7.259350   -5.706682   -0.618563
     98          1           0        2.211405   -3.830785    0.827145
     99          1           0       -0.454357   -3.563891   -2.212233
    100          1           0       -0.645578   -5.221986   -2.010118
    101          1           0        0.634830   -4.692004   -3.194039
    102          1           0       -3.494503    0.800830    1.824282
    103          1           0       -4.525694   -0.479496    2.347009
    104          1           0       -4.687333    0.945521   -0.160233
    105          1           0       -5.328408   -2.442421    1.288201
    106          1           0       -6.192635   -3.017649   -0.032811
    107          1           0       -6.970771   -2.030084    1.279980
    108          1           0       -6.540747   -1.553426   -2.009095
    109          1           0       -6.031507    0.006331   -2.062301
    110          1           0       -7.907916    0.826533   -0.422469
    111          1           0       -8.721344   -0.628858   -1.033810
    112          1           0       -7.778763    0.473495   -3.415474
    113          1           0       -8.073249    1.978291   -2.434342
    114          1           0       -9.945107   -0.305126   -3.507872
    115          1           0      -10.881510    2.473924   -4.081353
    116          1           0      -10.605693    1.095513   -5.136642
    117          1           0       -9.226971    2.142075   -4.746849
    118          1           0      -11.336427    1.950376   -1.923036
    119          1           0      -10.522526    0.785001   -1.071623
    120          1           0      -11.851908   -0.948704   -1.620049
    121          1           0      -12.327333   -0.429115   -3.230256
    122          1           0      -14.270528    0.220335   -2.434347
    123          1           0      -13.545847    1.547927   -1.782297
    124          1           0      -13.007841   -0.635690    0.065273
    125          1           0      -15.167308   -1.408089    0.457818
    126          1           0      -14.683719   -1.953426   -1.230043
    127          1           0      -15.847534   -0.698799   -1.113056
    128          1           0      -15.324330    1.125686    0.491304
    129          1           0      -13.803147    1.935027    0.362051
    130          1           0      -13.656422   -0.436548    2.075643
    131          1           0      -14.951029    0.479406    2.624587
    132          1           0      -13.922349    1.719192    3.755248
    133          1           0      -12.942049    2.586033    2.538474
    134          1           0      -12.076561    0.147267    3.851936
    135          1           0      -11.258639    3.006508    4.188455
    136          1           0      -10.357411    1.659520    4.959371
    137          1           0      -11.988651    2.026796    5.489740
    138          1           0       -9.929241    1.627268    2.391442
    139          1           0      -11.259538    0.901740    1.423482
    140          1           0      -10.288375   -0.071542    2.525632
 ---------------------------------------------------------------------

 SCF Done:  E(RB-LYP) =  -3007.36903479     A.U. after   21 cycles

 Excitation energies and oscillator strengths:

 Excited State   1:      Singlet-A      1.8003 eV  688.67 nm  f=0.0708  <S**2>=0.000
     244 -> 247        0.60134
     245 -> 247       -0.12012
     246 -> 247       -0.34406
 This state for optimization and/or second-order correction.
 Total Energy, E(TD-HF/TD-DFT) =  -3007.30287370
 Copying the excited state density for this state as the 1-particle RhoCI density.

 Excited State   2:      Singlet-A      1.8524 eV  669.30 nm  f=0.2312  <S**2>=0.000
     244 -> 247        0.33988
     245 -> 248        0.18127
     246 -> 247        0.59565
     246 <- 247       -0.12754

 Excited State   3:      Singlet-A      2.0201 eV  613.74 nm  f=0.0234  <S**2>=0.000
     243 -> 247        0.59876
     245 -> 247       -0.33763
     246 -> 248        0.11468

 Excited State   4:      Singlet-A      2.0737 eV  597.89 nm  f=0.0643  <S**2>=0.000
     243 -> 247        0.37322
     244 -> 247        0.11604
     245 -> 247        0.53335
     246 -> 248       -0.22328

 Excited State   5:      Singlet-A      2.4336 eV  509.46 nm  f=0.0099  <S**2>=0.000
     242 -> 247        0.68877

 The electronic state is 1-A.
 Alpha  occ. eigenvalues --  -46.26371 -18.83474 -18.82888 -18.77200 -18.75921
 Alpha  occ. eigenvalues --  -18.75788 -18.74766 -14.03025 -14.02624 -14.01224
 Alpha  occ. eigenvalues --  -14.00192 -10.04448 -10.03771 -10.00036  -9.99238
 Alpha  occ. eigenvalues --   -9.98802  -9.98328  -9.96658  -9.96198  -9.96021
 Alpha  occ. eigenvalues --   -9.95765  -9.95477  -9.95415  -9.95400  -9.94083
 Alpha  occ. eigenvalues --   -9.93945  -9.93919  -9.93808  -9.93703  -9.93650
 Alpha  occ. eigenvalues --   -9.93533  -9.93496  -9.93330  -9.93224  -9.93121
 Alpha  occ. eigenvalues --   -9.93112  -9.93089  -9.93068  -9.92930  -9.92922
 Alpha  occ. eigenvalues --   -9.92920  -9.92628  -9.92621  -9.92579  -9.92538
 Alpha  occ. eigenvalues --   -9.92432  -9.92247  -9.92058  -9.91799  -9.91773
 Alpha  occ. eigenvalues --   -9.91752  -9.91734  -9.91556  -9.91312  -9.91287
 Alpha  occ. eigenvalues --   -9.91246  -9.91245  -9.91234  -9.91219  -9.91199
 Alpha  occ. eigenvalues --   -9.91160  -9.91120  -9.91096  -9.90949  -9.90509
 Alpha  occ. eigenvalues --   -9.90197  -2.91090  -1.71520  -1.70982  -1.70790
 Alpha  occ. eigenvalues --   -1.00231  -0.97918  -0.91692  -0.91678  -0.91298
 Alpha  occ. eigenvalues --   -0.89248  -0.86455  -0.85950  -0.85446  -0.84796
 Alpha  occ. eigenvalues --   -0.75643  -0.73987  -0.73334  -0.72823  -0.72108
 Alpha  occ. eigenvalues --   -0.72001  -0.71079  -0.70592  -0.70467  -0.70035
 Alpha  occ. eigenvalues --   -0.69474  -0.69073  -0.68029  -0.67625  -0.67163
 Alpha  occ. eigenvalues --   -0.66567  -0.65806  -0.65146  -0.64925  -0.64196
 Alpha  occ. eigenvalues --   -0.63943  -0.62501  -0.62305  -0.61979  -0.60890
 Alpha  occ. eigenvalues --   -0.60677  -0.60154  -0.59838  -0.59523  -0.59111
 Alpha  occ. eigenvalues --   -0.58332  -0.57598  -0.56666  -0.55875  -0.55013
 Alpha  occ. eigenvalues --   -0.54334  -0.53649  -0.53231  -0.52722  -0.51381
 Alpha  occ. eigenvalues --   -0.51303  -0.51015  -0.50718  -0.50396  -0.50234
 Alpha  occ. eigenvalues --   -0.50040  -0.49091  -0.48615  -0.48313  -0.46549
 Alpha  occ. eigenvalues --   -0.46135  -0.45812  -0.45632  -0.44806  -0.44744
 Alpha  occ. eigenvalues --   -0.44625  -0.43733  -0.43582  -0.42646  -0.42563
 Alpha  occ. eigenvalues --   -0.42203  -0.42169  -0.41703  -0.41385  -0.41182
 Alpha  occ. eigenvalues --   -0.41128  -0.40855  -0.40415  -0.40309  -0.40221
 Alpha  occ. eigenvalues --   -0.39932  -0.39680  -0.39408  -0.39261  -0.39027
 Alpha  occ. eigenvalues --   -0.38928  -0.38845  -0.38667  -0.38367  -0.38099
 Alpha  occ. eigenvalues --   -0.37753  -0.37455  -0.37361  -0.37247  -0.37103
 Alpha  occ. eigenvalues --   -0.36841  -0.36685  -0.36616  -0.36584  -0.36468
 Alpha  occ. eigenvalues --   -0.36324  -0.36192  -0.36030  -0.35964  -0.35810
 Alpha  occ. eigenvalues --   -0.35666  -0.35341  -0.35030  -0.34992  -0.34632
 Alpha  occ. eigenvalues --   -0.34471  -0.34346  -0.34224  -0.34138  -0.33959
 Alpha  occ. eigenvalues --   -0.33824  -0.33722  -0.33311  -0.33108  -0.32986
 Alpha  occ. eigenvalues --   -0.32728  -0.32633  -0.32490  -0.32148  -0.32100
 Alpha  occ. eigenvalues --   -0.32025  -0.31778  -0.31743  -0.31660  -0.31555
 Alpha  occ. eigenvalues --   -0.31354  -0.31227  -0.31191  -0.31026  -0.30989
 Alpha  occ. eigenvalues --   -0.30733  -0.30598  -0.30519  -0.30230  -0.30128
 Alpha  occ. eigenvalues --   -0.29972  -0.29867  -0.29690  -0.29338  -0.29053
 Alpha  occ. eigenvalues --   -0.28962  -0.28496  -0.28356  -0.28280  -0.27962
 Alpha  occ. eigenvalues --   -0.27321  -0.27240  -0.27034  -0.26931  -0.26433
 Alpha  occ. eigenvalues --   -0.26124  -0.25904  -0.25728  -0.25563  -0.25229
 Alpha  occ. eigenvalues --   -0.25158  -0.25067  -0.24474  -0.23441  -0.23178
 Alpha  occ. eigenvalues --   -0.23034  -0.22823  -0.21778  -0.21189  -0.20672
 Alpha  occ. eigenvalues --   -0.20477  -0.19732  -0.18732  -0.17970  -0.17022
 Alpha  occ. eigenvalues --   -0.15776
 Alpha virt. eigenvalues --   -0.11370  -0.06548  -0.05805  -0.04571  -0.04013
 Alpha virt. eigenvalues --   -0.02747  -0.02185  -0.01635  -0.01000  -0.00177
 Alpha virt. eigenvalues --    0.01362   0.01666   0.01791   0.02327   0.02944

 Mulliken charges:
               1
     1  Mg   0.693205
     2  C   -0.065093
     3  C   -0.058791
     4  C   -0.050881
     5  C   -0.065584
     6  N   -0.189237
     7  C   -0.109142
     8  C    0.059762
     9  C   -0.004211
    10  C   -0.018274
    11  C    0.156058
    12  C    0.181592
    13  C    0.128130
    14  C    0.047731
    15  O   -0.175974
    16  O   -0.219817
    17  N   -0.278598
    18  C    0.130372
    19  C   -0.186271
    20  C    0.060338
    21  C    0.078883
    22  C    0.170974
    23  C   -0.104023
    24  O   -0.172419
    25  C    0.145299
    26  N   -0.231173
    27  C    0.012918
    28  C    0.050259
    29  C    0.048587
    30  C    0.037204
    31  C    0.128921
    32  C    0.068512
    33  C    0.063352
    34  N   -0.299706
    35  C    0.139670
    36  C   -0.181487
    37  C    0.036373
    38  C    0.169292
    39  C    0.161738
    40  C   -0.023552
    41  O   -0.123792
    42  C    0.121874
    43  C    0.092634
    44  O   -0.204387
    45  O   -0.270196
    46  C    0.217468
    47  C    0.329796
    48  C   -0.109105
    49  C   -0.146200
    50  C    0.114434
    51  C    0.132601
    52  C    0.061286
    53  C    0.056546
    54  C   -0.075469
    55  C    0.116938
    56  C    0.067496
    57  C    0.057034
    58  C    0.150211
    59  C   -0.093805
    60  C    0.089915
    61  C    0.135637
    62  C    0.073816
    63  C    0.089194
    64  C   -0.082564
    65  C    0.089574
    66  C    0.114757
    67  H   -0.068844
    68  H   -0.047600
    69  H   -0.059465
    70  H   -0.024135
    71  H   -0.029924
    72  H   -0.010322
    73  H   -0.011991
    74  H   -0.004923
    75  H   -0.012897
    76  H   -0.046754
    77  H    0.003118
    78  H   -0.022633
    79  H   -0.013703
    80  H    0.019905
    81  H    0.001391
    82  H   -0.004199
    83  H   -0.005410
    84  H    0.005307
    85  H   -0.027286
    86  H   -0.034151
    87  H   -0.013717
    88  H   -0.002217
    89  H   -0.007759
    90  H   -0.017424
    91  H   -0.037244
    92  H   -0.015024
    93  H   -0.003824
    94  H    0.015828
    95  H    0.013919
    96  H   -0.022324
    97  H    0.016171
    98  H   -0.012415
    99  H    0.012060
   100  H    0.013973
   101  H    0.048311
   102  H   -0.009151
   103  H    0.002473
   104  H   -0.040393
   105  H   -0.021111
   106  H   -0.010404
   107  H    0.006990
   108  H   -0.021908
   109  H   -0.045991
   110  H   -0.014598
   111  H   -0.012494
   112  H   -0.017932
   113  H   -0.011488
   114  H   -0.029812
   115  H   -0.009304
   116  H   -0.017582
   117  H   -0.012422
   118  H   -0.040021
   119  H   -0.032026
   120  H   -0.024658
   121  H   -0.032199
   122  H   -0.056938
   123  H   -0.051227
   124  H   -0.031144
   125  H   -0.019040
   126  H   -0.017488
   127  H   -0.010653
   128  H   -0.046666
   129  H   -0.036318
   130  H   -0.033032
   131  H   -0.041414
   132  H   -0.035160
   133  H   -0.029742
   134  H   -0.046164
   135  H   -0.018911
   136  H   -0.018632
   137  H   -0.016323
   138  H   -0.014333
   139  H   -0.002474
   140  H   -0.014738
 Sum of Mulliken charges =  -0.00000

 Dipole moment (field-independent basis, Debye):
    X=             -4.2990    Y=              1.2841    Z=              0.2888  Tot=              4.4959
 Quadrupole moment (field-independent basis, Debye-Ang):
   XX=           -376.0861   YY=           -425.4999   ZZ=           -411.0845
   XY=             -5.8195   XZ=             20.1328   YZ=              2.1255

 Normal termination of Gaussian 16 at Thu May  5 04:20:39 2022.
