 Gaussian 16, Revision A.03,
 Gaussian 16:  ES64L-G16RevA.03 25-Dec-2016

 -----------------------------------
 #p cam-b3lyp/Def2SVP td=(nstates=5)
 -----------------------------------

 -------------------------------------------------------
 step_551_chromophore_25 TDDFT with cam-b3lyp functional
 -------------------------------------------------------
 Symbolic Z-matrix:
 Charge =  0 Multiplicity = 1

                         Standard orientation:
 ---------------------------------------------------------------------
 Center     Atomic      Atomic             Coordinates (Angstroms)
 Number     Number       Type             X           Y           Z
 ---------------------------------------------------------------------
      1         12           0        6.045515    0.325790    0.044710
      2          6           0        3.723007   -2.338041    0.138507
      3          6           0        3.288311    2.456903   -0.505757
      4          6           0        8.241003    2.747135   -0.072258
      5          6           0        8.633744   -2.013748    0.088046
      6          7           0        3.763351    0.095667   -0.222880
      7          6           0        3.074963   -1.070965    0.108260
      8          6           0        1.651839   -0.817221    0.180116
      9          6           0        1.517888    0.684506   -0.229935
     10          6           0        2.921128    1.136767   -0.359455
     11          6           0        0.571930    1.044435   -1.406229
     12          6           0        0.871926   -1.214350    1.400028
     13          6           0       -0.523775   -1.837834    1.208676
     14          6           0       -1.733857   -1.037446    1.828984
     15          8           0       -1.600381   -0.418107    2.850339
     16          8           0       -2.850924   -1.097264    1.092429
     17          7           0        5.798333    2.313776   -0.266890
     18          6           0        4.638907    3.017017   -0.400397
     19          6           0        4.961307    4.426168   -0.377405
     20          6           0        6.388699    4.563837   -0.341489
     21          6           0        6.856583    3.145425   -0.292339
     22          6           0        3.910051    5.592169   -0.459515
     23          6           0        7.233468    5.792612   -0.349968
     24          8           0        8.438382    5.747470   -0.545982
     25          6           0        6.682502    7.195060   -0.273164
     26          7           0        8.122896    0.431632   -0.033643
     27          6           0        8.853739    1.558693    0.069878
     28          6           0       10.412725    1.268091    0.058452
     29          6           0       10.474671   -0.242937    0.272012
     30          6           0        8.982913   -0.637865    0.010422
     31          6           0       11.160148    1.756126   -1.228120
     32          6           0       11.018898   -0.618428    1.685669
     33          6           0       10.090271   -0.347970    2.917721
     34          7           0        6.177340   -1.755056    0.126507
     35          6           0        7.338253   -2.579546    0.091389
     36          6           0        6.858425   -3.929561    0.223822
     37          6           0        5.434077   -3.846693    0.149429
     38          6           0        5.076904   -2.511271    0.087435
     39          6           0        7.669569   -5.134218    0.213087
     40          6           0        4.147007   -4.670488    0.105936
     41          8           0        3.925265   -5.867297    0.053717
     42          6           0        2.986006   -3.691523    0.074291
     43          6           0        2.248270   -3.893165   -1.186467
     44          8           0        2.692391   -3.468465   -2.250959
     45          8           0        0.992427   -4.375377   -1.036869
     46          6           0        0.122846   -4.487452   -2.253540
     47          6           0       -3.873551   -0.176868    1.527813
     48          6           0       -4.741215   -0.033593    0.316491
     49          6           0       -5.753073   -0.858693   -0.155107
     50          6           0       -6.121206   -2.137277    0.604628
     51          6           0       -6.595965   -0.650674   -1.400109
     52          6           0       -7.961860    0.122386   -1.252517
     53          6           0       -8.362333    0.945252   -2.624115
     54          6           0       -9.883060    0.727447   -3.165562
     55          6           0      -10.152330    1.714069   -4.362263
     56          6           0      -11.002067    0.919733   -2.040438
     57          6           0      -12.201175   -0.094928   -2.199981
     58          6           0      -13.518818    0.462898   -1.683510
     59          6           0      -13.837678   -0.058988   -0.342636
     60          6           0      -15.000977   -1.134556   -0.584076
     61          6           0      -14.253337    0.979780    0.634492
     62          6           0      -14.005329    0.595246    2.094714
     63          6           0      -13.188299    1.610084    2.956987
     64          6           0      -11.819399    1.112782    3.417235
     65          6           0      -11.332350    2.007665    4.619555
     66          6           0      -10.747464    0.907045    2.385370
     67          1           0        2.443819    3.150080   -0.514737
     68          1           0        8.891942    3.623235   -0.041596
     69          1           0        9.456833   -2.730641    0.134207
     70          1           0        1.258847   -1.289955   -0.719771
     71          1           0        1.189612    1.201604    0.671871
     72          1           0        0.202849    0.136320   -1.883097
     73          1           0        1.183475    1.539896   -2.160008
     74          1           0       -0.233461    1.730234   -1.145827
     75          1           0        0.895126   -0.462082    2.189577
     76          1           0        1.510557   -2.010970    1.782304
     77          1           0       -0.465110   -2.813919    1.689267
     78          1           0       -0.750252   -2.095663    0.173552
     79          1           0        2.905623    5.202707   -0.294913
     80          1           0        4.036975    6.022697   -1.451873
     81          1           0        4.143144    6.287236    0.347971
     82          1           0        7.503925    7.910437   -0.260514
     83          1           0        6.133931    7.258591    0.666541
     84          1           0        5.963346    7.366752   -1.074908
     85          1           0       10.786613    1.846353    0.903386
     86          1           0       11.132947   -0.627096   -0.507285
     87          1           0       11.322405    0.905915   -1.890920
     88          1           0       12.067846    2.345666   -1.098253
     89          1           0       10.514950    2.447291   -1.769550
     90          1           0       12.053143   -0.347468    1.896897
     91          1           0       11.075999   -1.706496    1.651447
     92          1           0       10.692670    0.164438    3.667263
     93          1           0        9.830250   -1.299208    3.381508
     94          1           0        9.235553    0.274794    2.654048
     95          1           0        7.570274   -5.579919    1.202716
     96          1           0        8.717306   -5.074583   -0.081612
     97          1           0        7.259350   -5.706682   -0.618563
     98          1           0        2.211405   -3.830785    0.827145
     99          1           0       -0.454357   -3.563891   -2.212233
    100          1           0       -0.645578   -5.221986   -2.010118
    101          1           0        0.634830   -4.692004   -3.194039
    102          1           0       -3.494503    0.800830    1.824282
    103          1           0       -4.525694   -0.479496    2.347009
    104          1           0       -4.687333    0.945521   -0.160233
    105          1           0       -5.328408   -2.442421    1.288201
    106          1           0       -6.192635   -3.017649   -0.032811
    107          1           0       -6.970771   -2.030084    1.279980
    108          1           0       -6.540747   -1.553426   -2.009095
    109          1           0       -6.031507    0.006331   -2.062301
    110          1           0       -7.907916    0.826533   -0.422469
    111          1           0       -8.721344   -0.628858   -1.033810
    112          1           0       -7.778763    0.473495   -3.415474
    113          1           0       -8.073249    1.978291   -2.434342
    114          1           0       -9.945107   -0.305126   -3.507872
    115          1           0      -10.881510    2.473924   -4.081353
    116          1           0      -10.605693    1.095513   -5.136642
    117          1           0       -9.226971    2.142075   -4.746849
    118          1           0      -11.336427    1.950376   -1.923036
    119          1           0      -10.522526    0.785001   -1.071623
    120          1           0      -11.851908   -0.948704   -1.620049
    121          1           0      -12.327333   -0.429115   -3.230256
    122          1           0      -14.270528    0.220335   -2.434347
    123          1           0      -13.545847    1.547927   -1.782297
    124          1           0      -13.007841   -0.635690    0.065273
    125          1           0      -15.167308   -1.408089    0.457818
    126          1           0      -14.683719   -1.953426   -1.230043
    127          1           0      -15.847534   -0.698799   -1.113056
    128          1           0      -15.324330    1.125686    0.491304
    129          1           0      -13.803147    1.935027    0.362051
    130          1           0      -13.656422   -0.436548    2.075643
    131          1           0      -14.951029    0.479406    2.624587
    132          1           0      -13.922349    1.719192    3.755248
    133          1           0      -12.942049    2.586033    2.538474
    134          1           0      -12.076561    0.147267    3.851936
    135          1           0      -11.258639    3.006508    4.188455
    136          1           0      -10.357411    1.659520    4.959371
    137          1           0      -11.988651    2.026796    5.489740
    138          1           0       -9.929241    1.627268    2.391442
    139          1           0      -11.259538    0.901740    1.423482
    140          1           0      -10.288375   -0.071542    2.525632
 ---------------------------------------------------------------------

 SCF Done:  E(RCAM-B3LYP) =  -3007.16505417     A.U. after   19 cycles

 Excitation energies and oscillator strengths:

 Excited State   1:      Singlet-A      1.7195 eV  721.04 nm  f=0.3697  <S**2>=0.000
     245 -> 248       -0.18691
     246 -> 247        0.68461
     245 <- 248       -0.11075
 This state for optimization and/or second-order correction.
 Total Energy, E(TD-HF/TD-DFT) =  -3007.10186313
 Copying the excited state density for this state as the 1-particle RhoCI density.

 Excited State   2:      Singlet-A      2.2329 eV  555.25 nm  f=0.1467  <S**2>=0.000
     245 -> 247        0.64668
     246 -> 248        0.27574

 Excited State   3:      Singlet-A      3.2482 eV  381.70 nm  f=0.0017  <S**2>=0.000
     244 -> 247        0.69068

 Excited State   4:      Singlet-A      3.5358 eV  350.65 nm  f=0.0253  <S**2>=0.000
     241 -> 250        0.11538
     243 -> 247        0.62074
     243 -> 249       -0.10111
     246 -> 248       -0.22040

 Excited State   5:      Singlet-A      3.5846 eV  345.88 nm  f=0.0324  <S**2>=0.000
     239 -> 247        0.38241
     239 -> 249        0.22967
     239 -> 250       -0.11653
     240 -> 247        0.39865
     240 -> 249        0.21445
     240 -> 250       -0.11376
     241 -> 247        0.10999
     246 -> 248        0.14562

 The electronic state is 1-A.
 Alpha  occ. eigenvalues --  -46.87864 -19.26379 -19.25921 -19.20143 -19.19307
 Alpha  occ. eigenvalues --  -19.19073 -19.17819 -14.41894 -14.41531 -14.39619
 Alpha  occ. eigenvalues --  -14.38596 -10.39668 -10.39244 -10.35599 -10.34253
 Alpha  occ. eigenvalues --  -10.32932 -10.32418 -10.31266 -10.30880 -10.30289
 Alpha  occ. eigenvalues --  -10.29878 -10.29866 -10.29696 -10.29649 -10.28371
 Alpha  occ. eigenvalues --  -10.28306 -10.28217 -10.28115 -10.27957 -10.27933
 Alpha  occ. eigenvalues --  -10.27873 -10.27611 -10.27398 -10.27095 -10.27077
 Alpha  occ. eigenvalues --  -10.27070 -10.27015 -10.26988 -10.26984 -10.26951
 Alpha  occ. eigenvalues --  -10.26705 -10.26568 -10.26462 -10.26375 -10.26316
 Alpha  occ. eigenvalues --  -10.26213 -10.26203 -10.25709 -10.25567 -10.25522
 Alpha  occ. eigenvalues --  -10.25520 -10.25441 -10.25354 -10.25324 -10.25154
 Alpha  occ. eigenvalues --  -10.24994 -10.24977 -10.24965 -10.24880 -10.24840
 Alpha  occ. eigenvalues --  -10.24822 -10.24799 -10.24730 -10.24561 -10.24116
 Alpha  occ. eigenvalues --  -10.23796  -3.16492  -1.91397  -1.90954  -1.90792
 Alpha  occ. eigenvalues --   -1.18742  -1.16528  -1.10395  -1.09610  -1.09575
 Alpha  occ. eigenvalues --   -1.07272  -1.04196  -1.03637  -1.02986  -1.02351
 Alpha  occ. eigenvalues --   -0.92908  -0.90857  -0.90155  -0.89609  -0.88794
 Alpha  occ. eigenvalues --   -0.88675  -0.87680  -0.87154  -0.87020  -0.86641
 Alpha  occ. eigenvalues --   -0.86012  -0.85352  -0.84274  -0.83817  -0.83264
 Alpha  occ. eigenvalues --   -0.82624  -0.81755  -0.81061  -0.80839  -0.80123
 Alpha  occ. eigenvalues --   -0.79723  -0.78222  -0.77916  -0.77605  -0.76311
 Alpha  occ. eigenvalues --   -0.76049  -0.75475  -0.75078  -0.74800  -0.74359
 Alpha  occ. eigenvalues --   -0.73367  -0.72629  -0.71551  -0.70690  -0.69662
 Alpha  occ. eigenvalues --   -0.68965  -0.68267  -0.67663  -0.67145  -0.65546
 Alpha  occ. eigenvalues --   -0.65400  -0.65007  -0.64743  -0.64351  -0.64218
 Alpha  occ. eigenvalues --   -0.64070  -0.63002  -0.62498  -0.62036  -0.60138
 Alpha  occ. eigenvalues --   -0.59794  -0.59500  -0.59129  -0.58481  -0.58190
 Alpha  occ. eigenvalues --   -0.58096  -0.57080  -0.57045  -0.55868  -0.55597
 Alpha  occ. eigenvalues --   -0.55092  -0.54950  -0.54915  -0.54598  -0.54477
 Alpha  occ. eigenvalues --   -0.54183  -0.53751  -0.53249  -0.53130  -0.52868
 Alpha  occ. eigenvalues --   -0.52502  -0.52466  -0.52072  -0.51939  -0.51637
 Alpha  occ. eigenvalues --   -0.51584  -0.51249  -0.51097  -0.50824  -0.50426
 Alpha  occ. eigenvalues --   -0.50260  -0.49889  -0.49796  -0.49587  -0.49445
 Alpha  occ. eigenvalues --   -0.49157  -0.48972  -0.48879  -0.48786  -0.48761
 Alpha  occ. eigenvalues --   -0.48526  -0.48349  -0.48089  -0.48017  -0.47892
 Alpha  occ. eigenvalues --   -0.47593  -0.47517  -0.47322  -0.47115  -0.46646
 Alpha  occ. eigenvalues --   -0.46368  -0.46188  -0.46102  -0.45981  -0.45810
 Alpha  occ. eigenvalues --   -0.45483  -0.45468  -0.45089  -0.45044  -0.44699
 Alpha  occ. eigenvalues --   -0.44619  -0.44440  -0.44043  -0.43813  -0.43708
 Alpha  occ. eigenvalues --   -0.43642  -0.43516  -0.43472  -0.43299  -0.43119
 Alpha  occ. eigenvalues --   -0.42944  -0.42765  -0.42672  -0.42504  -0.42338
 Alpha  occ. eigenvalues --   -0.42320  -0.42063  -0.41966  -0.41781  -0.41467
 Alpha  occ. eigenvalues --   -0.41284  -0.41175  -0.40798  -0.40490  -0.40222
 Alpha  occ. eigenvalues --   -0.39961  -0.39501  -0.39249  -0.39205  -0.38847
 Alpha  occ. eigenvalues --   -0.38542  -0.38161  -0.37942  -0.37679  -0.37413
 Alpha  occ. eigenvalues --   -0.37090  -0.36827  -0.36651  -0.36554  -0.36387
 Alpha  occ. eigenvalues --   -0.35997  -0.35709  -0.34957  -0.34824  -0.34152
 Alpha  occ. eigenvalues --   -0.33749  -0.33327  -0.32768  -0.31103  -0.30816
 Alpha  occ. eigenvalues --   -0.30285  -0.30143  -0.29805  -0.29174  -0.23675
 Alpha  occ. eigenvalues --   -0.21151
 Alpha virt. eigenvalues --   -0.08555  -0.01354   0.00729   0.02428   0.03370
 Alpha virt. eigenvalues --    0.03409   0.04987   0.05664   0.05860   0.07025
 Alpha virt. eigenvalues --    0.07612   0.07719   0.08211   0.08915   0.09353

 Mulliken charges:
               1
     1  Mg   0.827631
     2  C   -0.090777
     3  C   -0.063041
     4  C   -0.073537
     5  C   -0.076361
     6  N   -0.257367
     7  C   -0.056233
     8  C   -0.005833
     9  C   -0.053440
    10  C    0.001114
    11  C    0.093120
    12  C    0.117340
    13  C    0.063760
    14  C    0.128910
    15  O   -0.218930
    16  O   -0.282652
    17  N   -0.368149
    18  C    0.132890
    19  C   -0.191269
    20  C   -0.017054
    21  C    0.110281
    22  C    0.119917
    23  C   -0.027420
    24  O   -0.215368
    25  C    0.067173
    26  N   -0.302017
    27  C    0.027740
    28  C   -0.001196
    29  C   -0.010106
    30  C    0.055885
    31  C    0.069960
    32  C    0.016621
    33  C    0.002451
    34  N   -0.390381
    35  C    0.145783
    36  C   -0.176113
    37  C   -0.042449
    38  C    0.211044
    39  C    0.103628
    40  C    0.077259
    41  O   -0.160090
    42  C    0.045469
    43  C    0.182726
    44  O   -0.239892
    45  O   -0.335622
    46  C    0.180877
    47  C    0.290264
    48  C   -0.128644
    49  C   -0.164903
    50  C    0.052740
    51  C    0.073055
    52  C    0.009937
    53  C    0.007244
    54  C   -0.127090
    55  C    0.058271
    56  C    0.021152
    57  C    0.006441
    58  C    0.086248
    59  C   -0.152490
    60  C    0.040366
    61  C    0.079366
    62  C    0.016686
    63  C    0.037159
    64  C   -0.144296
    65  C    0.033608
    66  C    0.060011
    67  H   -0.034410
    68  H   -0.006792
    69  H   -0.024025
    70  H    0.009842
    71  H    0.005790
    72  H    0.013337
    73  H    0.015400
    74  H    0.019451
    75  H    0.023514
    76  H   -0.014457
    77  H    0.034951
    78  H    0.009175
    79  H    0.012286
    80  H    0.043905
    81  H    0.025168
    82  H    0.030857
    83  H    0.020937
    84  H    0.031471
    85  H    0.008486
    86  H    0.003269
    87  H    0.009686
    88  H    0.022756
    89  H    0.018849
    90  H    0.012245
    91  H   -0.008668
    92  H    0.009440
    93  H    0.020250
    94  H    0.034912
    95  H    0.040364
    96  H    0.005703
    97  H    0.042030
    98  H    0.030615
    99  H    0.031367
   100  H    0.038069
   101  H    0.073412
   102  H    0.023987
   103  H    0.029554
   104  H   -0.008974
   105  H    0.005159
   106  H    0.014458
   107  H    0.030138
   108  H    0.007383
   109  H   -0.013811
   110  H    0.012119
   111  H    0.012022
   112  H    0.009048
   113  H    0.014962
   114  H    0.000328
   115  H    0.013766
   116  H    0.005803
   117  H    0.012079
   118  H   -0.012963
   119  H   -0.007780
   120  H    0.001600
   121  H   -0.004045
   122  H   -0.023952
   123  H   -0.019565
   124  H   -0.001658
   125  H    0.002756
   126  H    0.006826
   127  H    0.011916
   128  H   -0.015428
   129  H   -0.007279
   130  H   -0.005462
   131  H   -0.010370
   132  H   -0.004388
   133  H   -0.003205
   134  H   -0.014491
   135  H    0.002783
   136  H    0.006128
   137  H    0.008315
   138  H    0.009954
   139  H    0.012539
   140  H    0.009153
 Sum of Mulliken charges =  -0.00000

 Dipole moment (field-independent basis, Debye):
    X=             -4.4063    Y=              1.2638    Z=              0.3270  Tot=              4.5956
 Quadrupole moment (field-independent basis, Debye-Ang):
   XX=           -374.7755   YY=           -421.2317   ZZ=           -411.4826
   XY=             -6.5508   XZ=             21.3302   YZ=              2.3191

 Normal termination of Gaussian 16 at Thu May  5 03:21:16 2022.
