 Gaussian 16, Revision A.03,
 Gaussian 16:  ES64L-G16RevA.03 25-Dec-2016

 ---------------------------------
 #p PBE1PBE/Def2SVP td=(nstates=5)
 ---------------------------------

 -----------------------------------------------------
 step_551_chromophore_25 TDDFT with PBE1PBE functional
 -----------------------------------------------------
 Symbolic Z-matrix:
 Charge =  0 Multiplicity = 1

                         Standard orientation:
 ---------------------------------------------------------------------
 Center     Atomic      Atomic             Coordinates (Angstroms)
 Number     Number       Type             X           Y           Z
 ---------------------------------------------------------------------
      1         12           0        6.045515    0.325790    0.044710
      2          6           0        3.723007   -2.338041    0.138507
      3          6           0        3.288311    2.456903   -0.505757
      4          6           0        8.241003    2.747135   -0.072258
      5          6           0        8.633744   -2.013748    0.088046
      6          7           0        3.763351    0.095667   -0.222880
      7          6           0        3.074963   -1.070965    0.108260
      8          6           0        1.651839   -0.817221    0.180116
      9          6           0        1.517888    0.684506   -0.229935
     10          6           0        2.921128    1.136767   -0.359455
     11          6           0        0.571930    1.044435   -1.406229
     12          6           0        0.871926   -1.214350    1.400028
     13          6           0       -0.523775   -1.837834    1.208676
     14          6           0       -1.733857   -1.037446    1.828984
     15          8           0       -1.600381   -0.418107    2.850339
     16          8           0       -2.850924   -1.097264    1.092429
     17          7           0        5.798333    2.313776   -0.266890
     18          6           0        4.638907    3.017017   -0.400397
     19          6           0        4.961307    4.426168   -0.377405
     20          6           0        6.388699    4.563837   -0.341489
     21          6           0        6.856583    3.145425   -0.292339
     22          6           0        3.910051    5.592169   -0.459515
     23          6           0        7.233468    5.792612   -0.349968
     24          8           0        8.438382    5.747470   -0.545982
     25          6           0        6.682502    7.195060   -0.273164
     26          7           0        8.122896    0.431632   -0.033643
     27          6           0        8.853739    1.558693    0.069878
     28          6           0       10.412725    1.268091    0.058452
     29          6           0       10.474671   -0.242937    0.272012
     30          6           0        8.982913   -0.637865    0.010422
     31          6           0       11.160148    1.756126   -1.228120
     32          6           0       11.018898   -0.618428    1.685669
     33          6           0       10.090271   -0.347970    2.917721
     34          7           0        6.177340   -1.755056    0.126507
     35          6           0        7.338253   -2.579546    0.091389
     36          6           0        6.858425   -3.929561    0.223822
     37          6           0        5.434077   -3.846693    0.149429
     38          6           0        5.076904   -2.511271    0.087435
     39          6           0        7.669569   -5.134218    0.213087
     40          6           0        4.147007   -4.670488    0.105936
     41          8           0        3.925265   -5.867297    0.053717
     42          6           0        2.986006   -3.691523    0.074291
     43          6           0        2.248270   -3.893165   -1.186467
     44          8           0        2.692391   -3.468465   -2.250959
     45          8           0        0.992427   -4.375377   -1.036869
     46          6           0        0.122846   -4.487452   -2.253540
     47          6           0       -3.873551   -0.176868    1.527813
     48          6           0       -4.741215   -0.033593    0.316491
     49          6           0       -5.753073   -0.858693   -0.155107
     50          6           0       -6.121206   -2.137277    0.604628
     51          6           0       -6.595965   -0.650674   -1.400109
     52          6           0       -7.961860    0.122386   -1.252517
     53          6           0       -8.362333    0.945252   -2.624115
     54          6           0       -9.883060    0.727447   -3.165562
     55          6           0      -10.152330    1.714069   -4.362263
     56          6           0      -11.002067    0.919733   -2.040438
     57          6           0      -12.201175   -0.094928   -2.199981
     58          6           0      -13.518818    0.462898   -1.683510
     59          6           0      -13.837678   -0.058988   -0.342636
     60          6           0      -15.000977   -1.134556   -0.584076
     61          6           0      -14.253337    0.979780    0.634492
     62          6           0      -14.005329    0.595246    2.094714
     63          6           0      -13.188299    1.610084    2.956987
     64          6           0      -11.819399    1.112782    3.417235
     65          6           0      -11.332350    2.007665    4.619555
     66          6           0      -10.747464    0.907045    2.385370
     67          1           0        2.443819    3.150080   -0.514737
     68          1           0        8.891942    3.623235   -0.041596
     69          1           0        9.456833   -2.730641    0.134207
     70          1           0        1.258847   -1.289955   -0.719771
     71          1           0        1.189612    1.201604    0.671871
     72          1           0        0.202849    0.136320   -1.883097
     73          1           0        1.183475    1.539896   -2.160008
     74          1           0       -0.233461    1.730234   -1.145827
     75          1           0        0.895126   -0.462082    2.189577
     76          1           0        1.510557   -2.010970    1.782304
     77          1           0       -0.465110   -2.813919    1.689267
     78          1           0       -0.750252   -2.095663    0.173552
     79          1           0        2.905623    5.202707   -0.294913
     80          1           0        4.036975    6.022697   -1.451873
     81          1           0        4.143144    6.287236    0.347971
     82          1           0        7.503925    7.910437   -0.260514
     83          1           0        6.133931    7.258591    0.666541
     84          1           0        5.963346    7.366752   -1.074908
     85          1           0       10.786613    1.846353    0.903386
     86          1           0       11.132947   -0.627096   -0.507285
     87          1           0       11.322405    0.905915   -1.890920
     88          1           0       12.067846    2.345666   -1.098253
     89          1           0       10.514950    2.447291   -1.769550
     90          1           0       12.053143   -0.347468    1.896897
     91          1           0       11.075999   -1.706496    1.651447
     92          1           0       10.692670    0.164438    3.667263
     93          1           0        9.830250   -1.299208    3.381508
     94          1           0        9.235553    0.274794    2.654048
     95          1           0        7.570274   -5.579919    1.202716
     96          1           0        8.717306   -5.074583   -0.081612
     97          1           0        7.259350   -5.706682   -0.618563
     98          1           0        2.211405   -3.830785    0.827145
     99          1           0       -0.454357   -3.563891   -2.212233
    100          1           0       -0.645578   -5.221986   -2.010118
    101          1           0        0.634830   -4.692004   -3.194039
    102          1           0       -3.494503    0.800830    1.824282
    103          1           0       -4.525694   -0.479496    2.347009
    104          1           0       -4.687333    0.945521   -0.160233
    105          1           0       -5.328408   -2.442421    1.288201
    106          1           0       -6.192635   -3.017649   -0.032811
    107          1           0       -6.970771   -2.030084    1.279980
    108          1           0       -6.540747   -1.553426   -2.009095
    109          1           0       -6.031507    0.006331   -2.062301
    110          1           0       -7.907916    0.826533   -0.422469
    111          1           0       -8.721344   -0.628858   -1.033810
    112          1           0       -7.778763    0.473495   -3.415474
    113          1           0       -8.073249    1.978291   -2.434342
    114          1           0       -9.945107   -0.305126   -3.507872
    115          1           0      -10.881510    2.473924   -4.081353
    116          1           0      -10.605693    1.095513   -5.136642
    117          1           0       -9.226971    2.142075   -4.746849
    118          1           0      -11.336427    1.950376   -1.923036
    119          1           0      -10.522526    0.785001   -1.071623
    120          1           0      -11.851908   -0.948704   -1.620049
    121          1           0      -12.327333   -0.429115   -3.230256
    122          1           0      -14.270528    0.220335   -2.434347
    123          1           0      -13.545847    1.547927   -1.782297
    124          1           0      -13.007841   -0.635690    0.065273
    125          1           0      -15.167308   -1.408089    0.457818
    126          1           0      -14.683719   -1.953426   -1.230043
    127          1           0      -15.847534   -0.698799   -1.113056
    128          1           0      -15.324330    1.125686    0.491304
    129          1           0      -13.803147    1.935027    0.362051
    130          1           0      -13.656422   -0.436548    2.075643
    131          1           0      -14.951029    0.479406    2.624587
    132          1           0      -13.922349    1.719192    3.755248
    133          1           0      -12.942049    2.586033    2.538474
    134          1           0      -12.076561    0.147267    3.851936
    135          1           0      -11.258639    3.006508    4.188455
    136          1           0      -10.357411    1.659520    4.959371
    137          1           0      -11.988651    2.026796    5.489740
    138          1           0       -9.929241    1.627268    2.391442
    139          1           0      -11.259538    0.901740    1.423482
    140          1           0      -10.288375   -0.071542    2.525632
 ---------------------------------------------------------------------

 SCF Done:  E(RPBE1PBE) =  -3005.35347521     A.U. after   15 cycles

 Excitation energies and oscillator strengths:

 Excited State   1:      Singlet-A      1.8815 eV  658.96 nm  f=0.3563  <S**2>=0.000
     245 -> 248       -0.18169
     246 -> 247        0.69098
     246 <- 247       -0.10380
 This state for optimization and/or second-order correction.
 Total Energy, E(TD-HF/TD-DFT) =  -3005.28433119
 Copying the excited state density for this state as the 1-particle RhoCI density.

 Excited State   2:      Singlet-A      2.2557 eV  549.65 nm  f=0.1345  <S**2>=0.000
     245 -> 247        0.65333
     246 -> 248        0.25951

 Excited State   3:      Singlet-A      2.9360 eV  422.29 nm  f=0.0060  <S**2>=0.000
     244 -> 247        0.69300

 Excited State   4:      Singlet-A      2.9860 eV  415.22 nm  f=0.0013  <S**2>=0.000
     243 -> 247        0.67134
     243 -> 249       -0.11312
     243 -> 250        0.10162

 Excited State   5:      Singlet-A      3.0944 eV  400.67 nm  f=0.0003  <S**2>=0.000
     240 -> 247        0.48393
     240 -> 249        0.13825
     241 -> 247        0.46953

 The electronic state is 1-A.
 Alpha  occ. eigenvalues --  -46.91268 -19.27046 -19.26521 -19.20426 -19.19377
 Alpha  occ. eigenvalues --  -19.19254 -19.18147 -14.41412 -14.41026 -14.39319
 Alpha  occ. eigenvalues --  -14.38252 -10.36697 -10.36204 -10.32656 -10.31470
 Alpha  occ. eigenvalues --  -10.30134 -10.29802 -10.28958 -10.28505 -10.28131
 Alpha  occ. eigenvalues --  -10.27739 -10.27486 -10.27451 -10.27441 -10.26009
 Alpha  occ. eigenvalues --  -10.25960 -10.25931 -10.25744 -10.25639 -10.25479
 Alpha  occ. eigenvalues --  -10.25438 -10.25424 -10.25229 -10.24832 -10.24763
 Alpha  occ. eigenvalues --  -10.24734 -10.24707 -10.24697 -10.24586 -10.24583
 Alpha  occ. eigenvalues --  -10.24454 -10.24308 -10.24090 -10.24003 -10.23899
 Alpha  occ. eigenvalues --  -10.23805 -10.23689 -10.23150 -10.23107 -10.23081
 Alpha  occ. eigenvalues --  -10.22895 -10.22870 -10.22868 -10.22861 -10.22722
 Alpha  occ. eigenvalues --  -10.22584 -10.22530 -10.22523 -10.22502 -10.22435
 Alpha  occ. eigenvalues --  -10.22247 -10.22158 -10.22132 -10.21954 -10.21645
 Alpha  occ. eigenvalues --  -10.21349  -3.13475  -1.86322  -1.85856  -1.85698
 Alpha  occ. eigenvalues --   -1.13581  -1.11244  -1.05012  -1.04485  -1.04404
 Alpha  occ. eigenvalues --   -1.02023  -0.98806  -0.98243  -0.97699  -0.97013
 Alpha  occ. eigenvalues --   -0.87200  -0.84960  -0.84389  -0.83780  -0.83077
 Alpha  occ. eigenvalues --   -0.82767  -0.82021  -0.81353  -0.81247  -0.80906
 Alpha  occ. eigenvalues --   -0.80344  -0.79583  -0.78533  -0.78039  -0.77462
 Alpha  occ. eigenvalues --   -0.76852  -0.76025  -0.75359  -0.75029  -0.74403
 Alpha  occ. eigenvalues --   -0.73884  -0.72476  -0.72238  -0.71909  -0.70612
 Alpha  occ. eigenvalues --   -0.70123  -0.69643  -0.69441  -0.68935  -0.68506
 Alpha  occ. eigenvalues --   -0.67711  -0.67058  -0.65965  -0.65029  -0.63970
 Alpha  occ. eigenvalues --   -0.63179  -0.62682  -0.61927  -0.61672  -0.59935
 Alpha  occ. eigenvalues --   -0.59762  -0.59497  -0.59297  -0.58813  -0.58773
 Alpha  occ. eigenvalues --   -0.58192  -0.57188  -0.56668  -0.56592  -0.54518
 Alpha  occ. eigenvalues --   -0.54315  -0.53973  -0.53756  -0.52921  -0.52753
 Alpha  occ. eigenvalues --   -0.52526  -0.51631  -0.51474  -0.50374  -0.50199
 Alpha  occ. eigenvalues --   -0.49638  -0.49460  -0.49322  -0.49156  -0.49017
 Alpha  occ. eigenvalues --   -0.48783  -0.48144  -0.47867  -0.47621  -0.47304
 Alpha  occ. eigenvalues --   -0.47113  -0.46939  -0.46549  -0.46426  -0.46182
 Alpha  occ. eigenvalues --   -0.46040  -0.45806  -0.45613  -0.45395  -0.45011
 Alpha  occ. eigenvalues --   -0.44768  -0.44442  -0.44342  -0.44166  -0.44034
 Alpha  occ. eigenvalues --   -0.43790  -0.43603  -0.43483  -0.43391  -0.43382
 Alpha  occ. eigenvalues --   -0.43116  -0.42974  -0.42744  -0.42684  -0.42505
 Alpha  occ. eigenvalues --   -0.42257  -0.42134  -0.41992  -0.41773  -0.41327
 Alpha  occ. eigenvalues --   -0.41068  -0.40861  -0.40777  -0.40660  -0.40564
 Alpha  occ. eigenvalues --   -0.40235  -0.40030  -0.39770  -0.39720  -0.39404
 Alpha  occ. eigenvalues --   -0.39289  -0.39231  -0.38793  -0.38578  -0.38512
 Alpha  occ. eigenvalues --   -0.38400  -0.38244  -0.38189  -0.38088  -0.37790
 Alpha  occ. eigenvalues --   -0.37772  -0.37552  -0.37377  -0.37249  -0.37230
 Alpha  occ. eigenvalues --   -0.37103  -0.36940  -0.36757  -0.36646  -0.36320
 Alpha  occ. eigenvalues --   -0.36163  -0.36060  -0.35556  -0.35423  -0.35097
 Alpha  occ. eigenvalues --   -0.34780  -0.34439  -0.34005  -0.33991  -0.33599
 Alpha  occ. eigenvalues --   -0.33460  -0.33012  -0.32868  -0.32601  -0.32336
 Alpha  occ. eigenvalues --   -0.32136  -0.31824  -0.31543  -0.31351  -0.31247
 Alpha  occ. eigenvalues --   -0.31045  -0.30612  -0.29893  -0.29664  -0.29293
 Alpha  occ. eigenvalues --   -0.28505  -0.28331  -0.28281  -0.26645  -0.25749
 Alpha  occ. eigenvalues --   -0.25635  -0.25498  -0.24948  -0.24710  -0.20666
 Alpha  occ. eigenvalues --   -0.18748
 Alpha virt. eigenvalues --   -0.10986  -0.04877  -0.03484  -0.02005  -0.01110
 Alpha virt. eigenvalues --    0.00233   0.00729   0.01157   0.01713   0.02805
 Alpha virt. eigenvalues --    0.04271   0.04424   0.04612   0.05175   0.05876

 Mulliken charges:
               1
     1  Mg   0.979485
     2  C   -0.087198
     3  C   -0.049956
     4  C   -0.076498
     5  C   -0.071532
     6  N   -0.362939
     7  C    0.018066
     8  C   -0.086135
     9  C   -0.123074
    10  C    0.042884
    11  C    0.032068
    12  C    0.058819
    13  C   -0.013801
    14  C    0.199276
    15  O   -0.251498
    16  O   -0.314477
    17  N   -0.491708
    18  C    0.157721
    19  C   -0.211839
    20  C   -0.069717
    21  C    0.150931
    22  C    0.057369
    23  C    0.020124
    24  O   -0.250317
    25  C   -0.006863
    26  N   -0.406881
    27  C    0.062887
    28  C   -0.070622
    29  C   -0.088223
    30  C    0.092857
    31  C    0.013322
    32  C   -0.042701
    33  C   -0.071877
    34  N   -0.515661
    35  C    0.168125
    36  C   -0.204560
    37  C   -0.089256
    38  C    0.260114
    39  C    0.051861
    40  C    0.174181
    41  O   -0.207524
    42  C   -0.072783
    43  C    0.281671
    44  O   -0.272661
    45  O   -0.371232
    46  C    0.125696
    47  C    0.239513
    48  C   -0.140875
    49  C   -0.203249
    50  C   -0.005980
    51  C    0.009114
    52  C   -0.054138
    53  C   -0.048613
    54  C   -0.210663
    55  C   -0.000266
    56  C   -0.031890
    57  C   -0.058575
    58  C    0.033645
    59  C   -0.242223
    60  C   -0.022420
    61  C    0.029748
    62  C   -0.045974
    63  C   -0.016862
    64  C   -0.236945
    65  C   -0.029603
    66  C   -0.007578
    67  H   -0.002014
    68  H    0.026018
    69  H    0.007716
    70  H    0.054384
    71  H    0.045236
    72  H    0.040499
    73  H    0.043343
    74  H    0.046142
    75  H    0.053659
    76  H    0.023057
    77  H    0.066881
    78  H    0.043446
    79  H    0.040837
    80  H    0.071893
    81  H    0.053638
    82  H    0.058467
    83  H    0.048606
    84  H    0.058569
    85  H    0.045840
    86  H    0.039969
    87  H    0.037105
    88  H    0.049853
    89  H    0.046936
    90  H    0.044022
    91  H    0.025929
    92  H    0.037656
    93  H    0.047758
    94  H    0.065370
    95  H    0.067675
    96  H    0.031697
    97  H    0.068835
    98  H    0.067373
    99  H    0.052821
   100  H    0.059614
   101  H    0.093125
   102  H    0.050843
   103  H    0.055706
   104  H    0.021243
   105  H    0.033579
   106  H    0.041555
   107  H    0.057457
   108  H    0.038520
   109  H    0.020632
   110  H    0.044319
   111  H    0.045325
   112  H    0.042409
   113  H    0.046151
   114  H    0.037019
   115  H    0.040499
   116  H    0.033587
   117  H    0.038935
   118  H    0.017553
   119  H    0.031042
   120  H    0.034198
   121  H    0.027980
   122  H    0.009334
   123  H    0.011632
   124  H    0.034789
   125  H    0.032756
   126  H    0.035843
   127  H    0.039177
   128  H    0.018306
   129  H    0.024024
   130  H    0.024919
   131  H    0.022494
   132  H    0.027669
   133  H    0.028290
   134  H    0.025267
   135  H    0.031030
   136  H    0.034652
   137  H    0.035983
   138  H    0.036327
   139  H    0.048716
   140  H    0.036193
 Sum of Mulliken charges =  -0.00000

 Dipole moment (field-independent basis, Debye):
    X=             -4.4076    Y=              1.5007    Z=              0.3088  Tot=              4.6663
 Quadrupole moment (field-independent basis, Debye-Ang):
   XX=           -368.3357   YY=           -418.5490   ZZ=           -408.9635
   XY=             -5.5982   XZ=             21.7064   YZ=              2.2494

 Normal termination of Gaussian 16 at Thu May  5 03:37:38 2022.
