 Gaussian 16, Revision A.03,
 Gaussian 16:  ES64L-G16RevA.03 25-Dec-2016

 --------------------------------
 #p wB97XD/Def2SVP td=(nstates=5)
 --------------------------------

 ----------------------------------------------------
 step_551_chromophore_25 TDDFT with wB97XD functional
 ----------------------------------------------------
 Symbolic Z-matrix:
 Charge =  0 Multiplicity = 1

                         Standard orientation:
 ---------------------------------------------------------------------
 Center     Atomic      Atomic             Coordinates (Angstroms)
 Number     Number       Type             X           Y           Z
 ---------------------------------------------------------------------
      1         12           0        6.045515    0.325790    0.044710
      2          6           0        3.723007   -2.338041    0.138507
      3          6           0        3.288311    2.456903   -0.505757
      4          6           0        8.241003    2.747135   -0.072258
      5          6           0        8.633744   -2.013748    0.088046
      6          7           0        3.763351    0.095667   -0.222880
      7          6           0        3.074963   -1.070965    0.108260
      8          6           0        1.651839   -0.817221    0.180116
      9          6           0        1.517888    0.684506   -0.229935
     10          6           0        2.921128    1.136767   -0.359455
     11          6           0        0.571930    1.044435   -1.406229
     12          6           0        0.871926   -1.214350    1.400028
     13          6           0       -0.523775   -1.837834    1.208676
     14          6           0       -1.733857   -1.037446    1.828984
     15          8           0       -1.600381   -0.418107    2.850339
     16          8           0       -2.850924   -1.097264    1.092429
     17          7           0        5.798333    2.313776   -0.266890
     18          6           0        4.638907    3.017017   -0.400397
     19          6           0        4.961307    4.426168   -0.377405
     20          6           0        6.388699    4.563837   -0.341489
     21          6           0        6.856583    3.145425   -0.292339
     22          6           0        3.910051    5.592169   -0.459515
     23          6           0        7.233468    5.792612   -0.349968
     24          8           0        8.438382    5.747470   -0.545982
     25          6           0        6.682502    7.195060   -0.273164
     26          7           0        8.122896    0.431632   -0.033643
     27          6           0        8.853739    1.558693    0.069878
     28          6           0       10.412725    1.268091    0.058452
     29          6           0       10.474671   -0.242937    0.272012
     30          6           0        8.982913   -0.637865    0.010422
     31          6           0       11.160148    1.756126   -1.228120
     32          6           0       11.018898   -0.618428    1.685669
     33          6           0       10.090271   -0.347970    2.917721
     34          7           0        6.177340   -1.755056    0.126507
     35          6           0        7.338253   -2.579546    0.091389
     36          6           0        6.858425   -3.929561    0.223822
     37          6           0        5.434077   -3.846693    0.149429
     38          6           0        5.076904   -2.511271    0.087435
     39          6           0        7.669569   -5.134218    0.213087
     40          6           0        4.147007   -4.670488    0.105936
     41          8           0        3.925265   -5.867297    0.053717
     42          6           0        2.986006   -3.691523    0.074291
     43          6           0        2.248270   -3.893165   -1.186467
     44          8           0        2.692391   -3.468465   -2.250959
     45          8           0        0.992427   -4.375377   -1.036869
     46          6           0        0.122846   -4.487452   -2.253540
     47          6           0       -3.873551   -0.176868    1.527813
     48          6           0       -4.741215   -0.033593    0.316491
     49          6           0       -5.753073   -0.858693   -0.155107
     50          6           0       -6.121206   -2.137277    0.604628
     51          6           0       -6.595965   -0.650674   -1.400109
     52          6           0       -7.961860    0.122386   -1.252517
     53          6           0       -8.362333    0.945252   -2.624115
     54          6           0       -9.883060    0.727447   -3.165562
     55          6           0      -10.152330    1.714069   -4.362263
     56          6           0      -11.002067    0.919733   -2.040438
     57          6           0      -12.201175   -0.094928   -2.199981
     58          6           0      -13.518818    0.462898   -1.683510
     59          6           0      -13.837678   -0.058988   -0.342636
     60          6           0      -15.000977   -1.134556   -0.584076
     61          6           0      -14.253337    0.979780    0.634492
     62          6           0      -14.005329    0.595246    2.094714
     63          6           0      -13.188299    1.610084    2.956987
     64          6           0      -11.819399    1.112782    3.417235
     65          6           0      -11.332350    2.007665    4.619555
     66          6           0      -10.747464    0.907045    2.385370
     67          1           0        2.443819    3.150080   -0.514737
     68          1           0        8.891942    3.623235   -0.041596
     69          1           0        9.456833   -2.730641    0.134207
     70          1           0        1.258847   -1.289955   -0.719771
     71          1           0        1.189612    1.201604    0.671871
     72          1           0        0.202849    0.136320   -1.883097
     73          1           0        1.183475    1.539896   -2.160008
     74          1           0       -0.233461    1.730234   -1.145827
     75          1           0        0.895126   -0.462082    2.189577
     76          1           0        1.510557   -2.010970    1.782304
     77          1           0       -0.465110   -2.813919    1.689267
     78          1           0       -0.750252   -2.095663    0.173552
     79          1           0        2.905623    5.202707   -0.294913
     80          1           0        4.036975    6.022697   -1.451873
     81          1           0        4.143144    6.287236    0.347971
     82          1           0        7.503925    7.910437   -0.260514
     83          1           0        6.133931    7.258591    0.666541
     84          1           0        5.963346    7.366752   -1.074908
     85          1           0       10.786613    1.846353    0.903386
     86          1           0       11.132947   -0.627096   -0.507285
     87          1           0       11.322405    0.905915   -1.890920
     88          1           0       12.067846    2.345666   -1.098253
     89          1           0       10.514950    2.447291   -1.769550
     90          1           0       12.053143   -0.347468    1.896897
     91          1           0       11.075999   -1.706496    1.651447
     92          1           0       10.692670    0.164438    3.667263
     93          1           0        9.830250   -1.299208    3.381508
     94          1           0        9.235553    0.274794    2.654048
     95          1           0        7.570274   -5.579919    1.202716
     96          1           0        8.717306   -5.074583   -0.081612
     97          1           0        7.259350   -5.706682   -0.618563
     98          1           0        2.211405   -3.830785    0.827145
     99          1           0       -0.454357   -3.563891   -2.212233
    100          1           0       -0.645578   -5.221986   -2.010118
    101          1           0        0.634830   -4.692004   -3.194039
    102          1           0       -3.494503    0.800830    1.824282
    103          1           0       -4.525694   -0.479496    2.347009
    104          1           0       -4.687333    0.945521   -0.160233
    105          1           0       -5.328408   -2.442421    1.288201
    106          1           0       -6.192635   -3.017649   -0.032811
    107          1           0       -6.970771   -2.030084    1.279980
    108          1           0       -6.540747   -1.553426   -2.009095
    109          1           0       -6.031507    0.006331   -2.062301
    110          1           0       -7.907916    0.826533   -0.422469
    111          1           0       -8.721344   -0.628858   -1.033810
    112          1           0       -7.778763    0.473495   -3.415474
    113          1           0       -8.073249    1.978291   -2.434342
    114          1           0       -9.945107   -0.305126   -3.507872
    115          1           0      -10.881510    2.473924   -4.081353
    116          1           0      -10.605693    1.095513   -5.136642
    117          1           0       -9.226971    2.142075   -4.746849
    118          1           0      -11.336427    1.950376   -1.923036
    119          1           0      -10.522526    0.785001   -1.071623
    120          1           0      -11.851908   -0.948704   -1.620049
    121          1           0      -12.327333   -0.429115   -3.230256
    122          1           0      -14.270528    0.220335   -2.434347
    123          1           0      -13.545847    1.547927   -1.782297
    124          1           0      -13.007841   -0.635690    0.065273
    125          1           0      -15.167308   -1.408089    0.457818
    126          1           0      -14.683719   -1.953426   -1.230043
    127          1           0      -15.847534   -0.698799   -1.113056
    128          1           0      -15.324330    1.125686    0.491304
    129          1           0      -13.803147    1.935027    0.362051
    130          1           0      -13.656422   -0.436548    2.075643
    131          1           0      -14.951029    0.479406    2.624587
    132          1           0      -13.922349    1.719192    3.755248
    133          1           0      -12.942049    2.586033    2.538474
    134          1           0      -12.076561    0.147267    3.851936
    135          1           0      -11.258639    3.006508    4.188455
    136          1           0      -10.357411    1.659520    4.959371
    137          1           0      -11.988651    2.026796    5.489740
    138          1           0       -9.929241    1.627268    2.391442
    139          1           0      -11.259538    0.901740    1.423482
    140          1           0      -10.288375   -0.071542    2.525632
 ---------------------------------------------------------------------

 SCF Done:  E(RwB97XD) =  -3007.86438321     A.U. after   19 cycles

 Excitation energies and oscillator strengths:

 Excited State   1:      Singlet-A      1.6609 eV  746.47 nm  f=0.3681  <S**2>=0.000
     245 -> 248       -0.19230
     246 -> 247        0.68262
     245 <- 248       -0.12023
 This state for optimization and/or second-order correction.
 Total Energy, E(TD-HF/TD-DFT) =  -3007.80334451
 Copying the excited state density for this state as the 1-particle RhoCI density.

 Excited State   2:      Singlet-A      2.1768 eV  569.57 nm  f=0.1428  <S**2>=0.000
     245 -> 247        0.64452
     246 -> 248        0.27792

 Excited State   3:      Singlet-A      3.2541 eV  381.01 nm  f=0.0008  <S**2>=0.000
     244 -> 247        0.68407

 Excited State   4:      Singlet-A      3.5692 eV  347.37 nm  f=0.0604  <S**2>=0.000
     240 -> 247       -0.12843
     241 -> 247       -0.17714
     243 -> 247        0.54695
     243 -> 249       -0.13344
     246 -> 248        0.27069

 Excited State   5:      Singlet-A      3.6035 eV  344.06 nm  f=0.0460  <S**2>=0.000
     239 -> 247        0.22465
     239 -> 249        0.15141
     240 -> 247        0.48446
     240 -> 249        0.29129
     240 -> 250        0.14319
     243 -> 247        0.10153
     246 -> 248        0.17497

 The electronic state is 1-A.
 Alpha  occ. eigenvalues --  -46.94210 -19.31622 -19.31157 -19.25093 -19.24399
 Alpha  occ. eigenvalues --  -19.24042 -19.22805 -14.46503 -14.46140 -14.44197
 Alpha  occ. eigenvalues --  -14.43227 -10.43481 -10.43109 -10.39665 -10.38174
 Alpha  occ. eigenvalues --  -10.36699 -10.36325 -10.35327 -10.34928 -10.34308
 Alpha  occ. eigenvalues --  -10.33964 -10.33878 -10.33662 -10.33650 -10.32452
 Alpha  occ. eigenvalues --  -10.32353 -10.32234 -10.32227 -10.32086 -10.32014
 Alpha  occ. eigenvalues --  -10.31885 -10.31664 -10.31428 -10.31154 -10.31119
 Alpha  occ. eigenvalues --  -10.31067 -10.31004 -10.30995 -10.30987 -10.30974
 Alpha  occ. eigenvalues --  -10.30673 -10.30634 -10.30437 -10.30324 -10.30277
 Alpha  occ. eigenvalues --  -10.30173 -10.30054 -10.29634 -10.29555 -10.29445
 Alpha  occ. eigenvalues --  -10.29362 -10.29360 -10.29199 -10.29183 -10.29148
 Alpha  occ. eigenvalues --  -10.28945 -10.28894 -10.28886 -10.28794 -10.28779
 Alpha  occ. eigenvalues --  -10.28669 -10.28587 -10.28576 -10.28382 -10.28020
 Alpha  occ. eigenvalues --  -10.27706  -3.20262  -1.93861  -1.93398  -1.93233
 Alpha  occ. eigenvalues --   -1.20951  -1.18721  -1.12674  -1.11817  -1.11748
 Alpha  occ. eigenvalues --   -1.09480  -1.06195  -1.05640  -1.05026  -1.04401
 Alpha  occ. eigenvalues --   -0.94919  -0.92609  -0.92027  -0.91453  -0.90666
 Alpha  occ. eigenvalues --   -0.90426  -0.89610  -0.88949  -0.88928  -0.88598
 Alpha  occ. eigenvalues --   -0.87928  -0.87232  -0.86182  -0.85712  -0.85109
 Alpha  occ. eigenvalues --   -0.84481  -0.83680  -0.82989  -0.82698  -0.82044
 Alpha  occ. eigenvalues --   -0.81557  -0.80163  -0.79862  -0.79554  -0.78224
 Alpha  occ. eigenvalues --   -0.77821  -0.77325  -0.77003  -0.76613  -0.76186
 Alpha  occ. eigenvalues --   -0.75309  -0.74618  -0.73509  -0.72630  -0.71561
 Alpha  occ. eigenvalues --   -0.70820  -0.70270  -0.69561  -0.69148  -0.67406
 Alpha  occ. eigenvalues --   -0.67380  -0.66973  -0.66750  -0.66295  -0.66231
 Alpha  occ. eigenvalues --   -0.65866  -0.64847  -0.64308  -0.64047  -0.62045
 Alpha  occ. eigenvalues --   -0.61772  -0.61478  -0.61125  -0.60460  -0.60161
 Alpha  occ. eigenvalues --   -0.60028  -0.59064  -0.58974  -0.57819  -0.57572
 Alpha  occ. eigenvalues --   -0.57034  -0.56875  -0.56777  -0.56558  -0.56454
 Alpha  occ. eigenvalues --   -0.56142  -0.55608  -0.55223  -0.55034  -0.54744
 Alpha  occ. eigenvalues --   -0.54407  -0.54357  -0.53966  -0.53858  -0.53579
 Alpha  occ. eigenvalues --   -0.53513  -0.53141  -0.52970  -0.52739  -0.52335
 Alpha  occ. eigenvalues --   -0.52189  -0.51800  -0.51725  -0.51489  -0.51362
 Alpha  occ. eigenvalues --   -0.51078  -0.50895  -0.50799  -0.50676  -0.50644
 Alpha  occ. eigenvalues --   -0.50394  -0.50242  -0.50012  -0.49922  -0.49769
 Alpha  occ. eigenvalues --   -0.49511  -0.49403  -0.49256  -0.49078  -0.48578
 Alpha  occ. eigenvalues --   -0.48304  -0.48046  -0.48029  -0.47886  -0.47725
 Alpha  occ. eigenvalues --   -0.47403  -0.47296  -0.47018  -0.46963  -0.46612
 Alpha  occ. eigenvalues --   -0.46479  -0.46372  -0.45925  -0.45699  -0.45671
 Alpha  occ. eigenvalues --   -0.45586  -0.45467  -0.45328  -0.45228  -0.44968
 Alpha  occ. eigenvalues --   -0.44901  -0.44695  -0.44549  -0.44433  -0.44251
 Alpha  occ. eigenvalues --   -0.44223  -0.43961  -0.43860  -0.43682  -0.43427
 Alpha  occ. eigenvalues --   -0.43226  -0.43077  -0.42638  -0.42458  -0.42105
 Alpha  occ. eigenvalues --   -0.41807  -0.41390  -0.41066  -0.41051  -0.40687
 Alpha  occ. eigenvalues --   -0.40437  -0.40067  -0.39858  -0.39566  -0.39388
 Alpha  occ. eigenvalues --   -0.39177  -0.38784  -0.38671  -0.38372  -0.38229
 Alpha  occ. eigenvalues --   -0.37961  -0.37566  -0.36783  -0.36758  -0.36145
 Alpha  occ. eigenvalues --   -0.35679  -0.35168  -0.35053  -0.33255  -0.32906
 Alpha  occ. eigenvalues --   -0.32268  -0.32198  -0.31874  -0.31370  -0.25590
 Alpha  occ. eigenvalues --   -0.22962
 Alpha virt. eigenvalues --   -0.06907   0.00551   0.02796   0.04534   0.05571
 Alpha virt. eigenvalues --    0.06395   0.07146   0.08013   0.08344   0.09508
 Alpha virt. eigenvalues --    0.10571   0.11170   0.11300   0.11945   0.12619

 Mulliken charges:
               1
     1  Mg   0.967740
     2  C   -0.097210
     3  C   -0.070084
     4  C   -0.085174
     5  C   -0.086310
     6  N   -0.326928
     7  C   -0.009513
     8  C   -0.051926
     9  C   -0.101390
    10  C    0.029411
    11  C    0.044299
    12  C    0.073997
    13  C    0.002161
    14  C    0.190232
    15  O   -0.249967
    16  O   -0.313090
    17  N   -0.456457
    18  C    0.147957
    19  C   -0.205934
    20  C   -0.064007
    21  C    0.136964
    22  C    0.073487
    23  C    0.017664
    24  O   -0.246741
    25  C    0.005641
    26  N   -0.373559
    27  C    0.047126
    28  C   -0.051844
    29  C   -0.059321
    30  C    0.078253
    31  C    0.024185
    32  C   -0.029536
    33  C   -0.052948
    34  N   -0.479451
    35  C    0.160750
    36  C   -0.192730
    37  C   -0.085578
    38  C    0.244187
    39  C    0.059450
    40  C    0.155001
    41  O   -0.196920
    42  C   -0.026878
    43  C    0.252111
    44  O   -0.267018
    45  O   -0.367962
    46  C    0.140968
    47  C    0.253542
    48  C   -0.146598
    49  C   -0.193466
    50  C    0.005303
    51  C    0.029533
    52  C   -0.038792
    53  C   -0.033212
    54  C   -0.183091
    55  C    0.010558
    56  C   -0.012506
    57  C   -0.038735
    58  C    0.047040
    59  C   -0.208186
    60  C   -0.006308
    61  C    0.041955
    62  C   -0.029822
    63  C   -0.002302
    64  C   -0.207079
    65  C   -0.015589
    66  C    0.012608
    67  H   -0.009291
    68  H    0.020157
    69  H    0.001620
    70  H    0.031485
    71  H    0.033080
    72  H    0.034656
    73  H    0.036687
    74  H    0.041740
    75  H    0.048814
    76  H    0.009728
    77  H    0.062073
    78  H    0.035574
    79  H    0.035684
    80  H    0.065989
    81  H    0.046282
    82  H    0.057358
    83  H    0.042013
    84  H    0.052556
    85  H    0.036322
    86  H    0.030608
    87  H    0.030300
    88  H    0.045319
    89  H    0.040224
    90  H    0.038174
    91  H    0.015425
    92  H    0.032500
    93  H    0.042599
    94  H    0.054066
    95  H    0.063798
    96  H    0.028130
    97  H    0.064202
    98  H    0.059366
    99  H    0.048285
   100  H    0.056356
   101  H    0.090804
   102  H    0.047250
   103  H    0.050645
   104  H    0.017543
   105  H    0.026968
   106  H    0.036590
   107  H    0.052282
   108  H    0.032220
   109  H    0.009942
   110  H    0.036518
   111  H    0.034698
   112  H    0.032016
   113  H    0.039381
   114  H    0.025756
   115  H    0.034388
   116  H    0.027689
   117  H    0.033730
   118  H    0.007707
   119  H    0.013194
   120  H    0.023647
   121  H    0.020120
   122  H    0.000992
   123  H    0.002626
   124  H    0.017823
   125  H    0.024421
   126  H    0.029500
   127  H    0.032146
   128  H    0.009666
   129  H    0.013846
   130  H    0.014140
   131  H    0.015856
   132  H    0.020651
   133  H    0.018490
   134  H    0.012801
   135  H    0.022735
   136  H    0.028866
   137  H    0.030744
   138  H    0.031469
   139  H    0.029281
   140  H    0.031020
 Sum of Mulliken charges =  -0.00000

 Dipole moment (field-independent basis, Debye):
    X=             -4.4769    Y=              1.2400    Z=              0.3357  Tot=              4.6576
 Quadrupole moment (field-independent basis, Debye-Ang):
   XX=           -369.5282   YY=           -416.9597   ZZ=           -408.6105
   XY=             -6.8787   XZ=             22.0508   YZ=              2.3192

 Normal termination of Gaussian 16 at Thu May  5 04:07:19 2022.
