 Gaussian 16, Revision A.03,
 Gaussian 16:  ES64L-G16RevA.03 25-Dec-2016

 --------------------
 #p ZINDO=(nstates=5)
 --------------------

 -----------------------------
 step_551_chromophore_25 ZINDO
 -----------------------------
 Symbolic Z-matrix:
 Charge =  0 Multiplicity = 1

                         Standard orientation:
 ---------------------------------------------------------------------
 Center     Atomic      Atomic             Coordinates (Angstroms)
 Number     Number       Type             X           Y           Z
 ---------------------------------------------------------------------
      1         12           0        6.045515    0.325790    0.044710
      2          6           0        3.723007   -2.338041    0.138507
      3          6           0        3.288311    2.456903   -0.505757
      4          6           0        8.241003    2.747135   -0.072258
      5          6           0        8.633744   -2.013748    0.088046
      6          7           0        3.763351    0.095667   -0.222880
      7          6           0        3.074963   -1.070965    0.108260
      8          6           0        1.651839   -0.817221    0.180116
      9          6           0        1.517888    0.684506   -0.229935
     10          6           0        2.921128    1.136767   -0.359455
     11          6           0        0.571930    1.044435   -1.406229
     12          6           0        0.871926   -1.214350    1.400028
     13          6           0       -0.523775   -1.837834    1.208676
     14          6           0       -1.733857   -1.037446    1.828984
     15          8           0       -1.600381   -0.418107    2.850339
     16          8           0       -2.850924   -1.097264    1.092429
     17          7           0        5.798333    2.313776   -0.266890
     18          6           0        4.638907    3.017017   -0.400397
     19          6           0        4.961307    4.426168   -0.377405
     20          6           0        6.388699    4.563837   -0.341489
     21          6           0        6.856583    3.145425   -0.292339
     22          6           0        3.910051    5.592169   -0.459515
     23          6           0        7.233468    5.792612   -0.349968
     24          8           0        8.438382    5.747470   -0.545982
     25          6           0        6.682502    7.195060   -0.273164
     26          7           0        8.122896    0.431632   -0.033643
     27          6           0        8.853739    1.558693    0.069878
     28          6           0       10.412725    1.268091    0.058452
     29          6           0       10.474671   -0.242937    0.272012
     30          6           0        8.982913   -0.637865    0.010422
     31          6           0       11.160148    1.756126   -1.228120
     32          6           0       11.018898   -0.618428    1.685669
     33          6           0       10.090271   -0.347970    2.917721
     34          7           0        6.177340   -1.755056    0.126507
     35          6           0        7.338253   -2.579546    0.091389
     36          6           0        6.858425   -3.929561    0.223822
     37          6           0        5.434077   -3.846693    0.149429
     38          6           0        5.076904   -2.511271    0.087435
     39          6           0        7.669569   -5.134218    0.213087
     40          6           0        4.147007   -4.670488    0.105936
     41          8           0        3.925265   -5.867297    0.053717
     42          6           0        2.986006   -3.691523    0.074291
     43          6           0        2.248270   -3.893165   -1.186467
     44          8           0        2.692391   -3.468465   -2.250959
     45          8           0        0.992427   -4.375377   -1.036869
     46          6           0        0.122846   -4.487452   -2.253540
     47          6           0       -3.873551   -0.176868    1.527813
     48          6           0       -4.741215   -0.033593    0.316491
     49          6           0       -5.753073   -0.858693   -0.155107
     50          6           0       -6.121206   -2.137277    0.604628
     51          6           0       -6.595965   -0.650674   -1.400109
     52          6           0       -7.961860    0.122386   -1.252517
     53          6           0       -8.362333    0.945252   -2.624115
     54          6           0       -9.883060    0.727447   -3.165562
     55          6           0      -10.152330    1.714069   -4.362263
     56          6           0      -11.002067    0.919733   -2.040438
     57          6           0      -12.201175   -0.094928   -2.199981
     58          6           0      -13.518818    0.462898   -1.683510
     59          6           0      -13.837678   -0.058988   -0.342636
     60          6           0      -15.000977   -1.134556   -0.584076
     61          6           0      -14.253337    0.979780    0.634492
     62          6           0      -14.005329    0.595246    2.094714
     63          6           0      -13.188299    1.610084    2.956987
     64          6           0      -11.819399    1.112782    3.417235
     65          6           0      -11.332350    2.007665    4.619555
     66          6           0      -10.747464    0.907045    2.385370
     67          1           0        2.443819    3.150080   -0.514737
     68          1           0        8.891942    3.623235   -0.041596
     69          1           0        9.456833   -2.730641    0.134207
     70          1           0        1.258847   -1.289955   -0.719771
     71          1           0        1.189612    1.201604    0.671871
     72          1           0        0.202849    0.136320   -1.883097
     73          1           0        1.183475    1.539896   -2.160008
     74          1           0       -0.233461    1.730234   -1.145827
     75          1           0        0.895126   -0.462082    2.189577
     76          1           0        1.510557   -2.010970    1.782304
     77          1           0       -0.465110   -2.813919    1.689267
     78          1           0       -0.750252   -2.095663    0.173552
     79          1           0        2.905623    5.202707   -0.294913
     80          1           0        4.036975    6.022697   -1.451873
     81          1           0        4.143144    6.287236    0.347971
     82          1           0        7.503925    7.910437   -0.260514
     83          1           0        6.133931    7.258591    0.666541
     84          1           0        5.963346    7.366752   -1.074908
     85          1           0       10.786613    1.846353    0.903386
     86          1           0       11.132947   -0.627096   -0.507285
     87          1           0       11.322405    0.905915   -1.890920
     88          1           0       12.067846    2.345666   -1.098253
     89          1           0       10.514950    2.447291   -1.769550
     90          1           0       12.053143   -0.347468    1.896897
     91          1           0       11.075999   -1.706496    1.651447
     92          1           0       10.692670    0.164438    3.667263
     93          1           0        9.830250   -1.299208    3.381508
     94          1           0        9.235553    0.274794    2.654048
     95          1           0        7.570274   -5.579919    1.202716
     96          1           0        8.717306   -5.074583   -0.081612
     97          1           0        7.259350   -5.706682   -0.618563
     98          1           0        2.211405   -3.830785    0.827145
     99          1           0       -0.454357   -3.563891   -2.212233
    100          1           0       -0.645578   -5.221986   -2.010118
    101          1           0        0.634830   -4.692004   -3.194039
    102          1           0       -3.494503    0.800830    1.824282
    103          1           0       -4.525694   -0.479496    2.347009
    104          1           0       -4.687333    0.945521   -0.160233
    105          1           0       -5.328408   -2.442421    1.288201
    106          1           0       -6.192635   -3.017649   -0.032811
    107          1           0       -6.970771   -2.030084    1.279980
    108          1           0       -6.540747   -1.553426   -2.009095
    109          1           0       -6.031507    0.006331   -2.062301
    110          1           0       -7.907916    0.826533   -0.422469
    111          1           0       -8.721344   -0.628858   -1.033810
    112          1           0       -7.778763    0.473495   -3.415474
    113          1           0       -8.073249    1.978291   -2.434342
    114          1           0       -9.945107   -0.305126   -3.507872
    115          1           0      -10.881510    2.473924   -4.081353
    116          1           0      -10.605693    1.095513   -5.136642
    117          1           0       -9.226971    2.142075   -4.746849
    118          1           0      -11.336427    1.950376   -1.923036
    119          1           0      -10.522526    0.785001   -1.071623
    120          1           0      -11.851908   -0.948704   -1.620049
    121          1           0      -12.327333   -0.429115   -3.230256
    122          1           0      -14.270528    0.220335   -2.434347
    123          1           0      -13.545847    1.547927   -1.782297
    124          1           0      -13.007841   -0.635690    0.065273
    125          1           0      -15.167308   -1.408089    0.457818
    126          1           0      -14.683719   -1.953426   -1.230043
    127          1           0      -15.847534   -0.698799   -1.113056
    128          1           0      -15.324330    1.125686    0.491304
    129          1           0      -13.803147    1.935027    0.362051
    130          1           0      -13.656422   -0.436548    2.075643
    131          1           0      -14.951029    0.479406    2.624587
    132          1           0      -13.922349    1.719192    3.755248
    133          1           0      -12.942049    2.586033    2.538474
    134          1           0      -12.076561    0.147267    3.851936
    135          1           0      -11.258639    3.006508    4.188455
    136          1           0      -10.357411    1.659520    4.959371
    137          1           0      -11.988651    2.026796    5.489740
    138          1           0       -9.929241    1.627268    2.391442
    139          1           0      -11.259538    0.901740    1.423482
    140          1           0      -10.288375   -0.071542    2.525632
 ---------------------------------------------------------------------

 SCF Done:  E(RZINDO/S) =  -474.353353820     A.U. after   19 cycles

 Excitation energies and oscillator strengths:

 Excited State   1:      Singlet-A      1.2515 eV  990.69 nm  f=0.5888  <S**2>=0.000
     175 ->178         0.19454
     176 ->177         0.66213
 This state for optimization and/or second-order correction.
 Total Energy, E(CIS/TDA) =  -474.307362132
 Copying the excited state density for this state as the 1-particle RhoCI density.

 Excited State   2:      Singlet-A      1.9049 eV  650.88 nm  f=0.0866  <S**2>=0.000
     175 ->177         0.56952
     176 ->178        -0.39042

 Excited State   3:      Singlet-A      2.9000 eV  427.53 nm  f=0.0092  <S**2>=0.000
     170 ->177         0.27271
     170 ->178        -0.10142
     170 ->179         0.27049
     170 ->180         0.40214
     170 ->182         0.12853
     170 ->186         0.17744
     170 ->187         0.19842
     170 ->199        -0.10224

 Excited State   4:      Singlet-A      3.0196 eV  410.60 nm  f=0.0601  <S**2>=0.000
     167 ->179        -0.16414
     168 ->177         0.31517
     168 ->178        -0.12783
     168 ->179        -0.37286
     168 ->180         0.16065
     168 ->182         0.13708
     168 ->186        -0.20344
     176 ->178         0.13915
     176 ->179         0.11156

 Excited State   5:      Singlet-A      3.0447 eV  407.21 nm  f=0.7187  <S**2>=0.000
     168 ->179         0.11559
     171 ->177        -0.23018
     172 ->177         0.11305
     175 ->177         0.28062
     176 ->178         0.47167
     176 ->179         0.24172

 The electronic state is 1-A.
 Alpha  occ. eigenvalues --   -1.85170  -1.81307  -1.80848  -1.76009  -1.73043
 Alpha  occ. eigenvalues --   -1.71612  -1.67199  -1.59567  -1.59349  -1.58044
 Alpha  occ. eigenvalues --   -1.55213  -1.52776  -1.49523  -1.48068  -1.46192
 Alpha  occ. eigenvalues --   -1.44391  -1.43122  -1.38645  -1.38587  -1.37461
 Alpha  occ. eigenvalues --   -1.35411  -1.34675  -1.32337  -1.30877  -1.28982
 Alpha  occ. eigenvalues --   -1.26831  -1.24074  -1.21783  -1.20153  -1.18875
 Alpha  occ. eigenvalues --   -1.17601  -1.16890  -1.15523  -1.13438  -1.12554
 Alpha  occ. eigenvalues --   -1.12477  -1.10966  -1.10309  -1.05928  -1.03832
 Alpha  occ. eigenvalues --   -1.01978  -1.01455  -0.99361  -0.98291  -0.98071
 Alpha  occ. eigenvalues --   -0.96670  -0.94168  -0.93770  -0.93208  -0.92285
 Alpha  occ. eigenvalues --   -0.90458  -0.90061  -0.88041  -0.87916  -0.87347
 Alpha  occ. eigenvalues --   -0.85803  -0.84960  -0.83295  -0.81276  -0.79960
 Alpha  occ. eigenvalues --   -0.79447  -0.79106  -0.77510  -0.77073  -0.76400
 Alpha  occ. eigenvalues --   -0.75928  -0.75617  -0.75082  -0.74331  -0.74184
 Alpha  occ. eigenvalues --   -0.73167  -0.72857  -0.72450  -0.71577  -0.70624
 Alpha  occ. eigenvalues --   -0.70191  -0.69145  -0.68498  -0.68032  -0.67904
 Alpha  occ. eigenvalues --   -0.67102  -0.66456  -0.65965  -0.65721  -0.65626
 Alpha  occ. eigenvalues --   -0.65360  -0.65182  -0.64358  -0.64211  -0.63969
 Alpha  occ. eigenvalues --   -0.63742  -0.62989  -0.62575  -0.62229  -0.61263
 Alpha  occ. eigenvalues --   -0.60995  -0.60847  -0.60512  -0.60369  -0.60072
 Alpha  occ. eigenvalues --   -0.59900  -0.59469  -0.58659  -0.58363  -0.58077
 Alpha  occ. eigenvalues --   -0.57816  -0.57472  -0.57235  -0.57076  -0.56429
 Alpha  occ. eigenvalues --   -0.55803  -0.55579  -0.55251  -0.55222  -0.54765
 Alpha  occ. eigenvalues --   -0.54407  -0.54199  -0.53778  -0.53331  -0.53089
 Alpha  occ. eigenvalues --   -0.52683  -0.52624  -0.52432  -0.51794  -0.51461
 Alpha  occ. eigenvalues --   -0.51165  -0.51093  -0.50852  -0.50537  -0.50166
 Alpha  occ. eigenvalues --   -0.50037  -0.49995  -0.49574  -0.49334  -0.49277
 Alpha  occ. eigenvalues --   -0.48746  -0.48710  -0.48229  -0.48010  -0.47928
 Alpha  occ. eigenvalues --   -0.47720  -0.47536  -0.47306  -0.46987  -0.46706
 Alpha  occ. eigenvalues --   -0.46265  -0.46138  -0.45856  -0.45368  -0.45011
 Alpha  occ. eigenvalues --   -0.44542  -0.44432  -0.44177  -0.43977  -0.43789
 Alpha  occ. eigenvalues --   -0.43385  -0.43316  -0.42544  -0.42400  -0.42167
 Alpha  occ. eigenvalues --   -0.41707  -0.41255  -0.40673  -0.39394  -0.38728
 Alpha  occ. eigenvalues --   -0.38249  -0.36889  -0.35380  -0.34406  -0.33964
 Alpha  occ. eigenvalues --   -0.32733  -0.32398  -0.32349  -0.31882  -0.26211
 Alpha  occ. eigenvalues --   -0.21783
 Alpha virt. eigenvalues --   -0.08499  -0.01788  -0.00280   0.01534   0.01969
 Alpha virt. eigenvalues --    0.02338   0.03194   0.03508   0.03713   0.04571
 Alpha virt. eigenvalues --    0.06628   0.07052   0.07568   0.07965   0.08255

 Mulliken charges:
               1
     1  Mg   0.422631
     2  C   -0.047262
     3  C   -0.085575
     4  C   -0.051154
     5  C   -0.059820
     6  N   -0.297012
     7  C    0.146841
     8  C    0.012777
     9  C   -0.001557
    10  C    0.137055
    11  C   -0.050491
    12  C   -0.015460
    13  C    0.000895
    14  C    0.464843
    15  O   -0.515798
    16  O   -0.242684
    17  N   -0.289962
    18  C    0.090699
    19  C   -0.016474
    20  C   -0.059724
    21  C    0.123249
    22  C   -0.050800
    23  C    0.328079
    24  O   -0.534642
    25  C   -0.027189
    26  N   -0.255920
    27  C    0.114358
    28  C    0.005034
    29  C    0.008989
    30  C    0.129152
    31  C   -0.055429
    32  C   -0.032716
    33  C   -0.055669
    34  N   -0.346124
    35  C    0.093092
    36  C    0.053700
    37  C   -0.062790
    38  C    0.147960
    39  C   -0.038634
    40  C    0.339770
    41  O   -0.512275
    42  C    0.058412
    43  C    0.495383
    44  O   -0.538247
    45  O   -0.271762
    46  C    0.075080
    47  C    0.114615
    48  C   -0.094725
    49  C   -0.001939
    50  C   -0.050515
    51  C   -0.024001
    52  C   -0.035168
    53  C   -0.048930
    54  C   -0.020067
    55  C   -0.059486
    56  C   -0.044634
    57  C   -0.035708
    58  C   -0.026444
    59  C   -0.005692
    60  C   -0.068400
    61  C   -0.026966
    62  C   -0.040747
    63  C   -0.033938
    64  C   -0.007902
    65  C   -0.062474
    66  C   -0.048131
    67  H    0.026791
    68  H    0.038574
    69  H    0.028553
    70  H    0.035500
    71  H    0.023873
    72  H    0.023015
    73  H    0.021341
    74  H    0.026158
    75  H    0.042841
    76  H    0.009931
    77  H    0.041620
    78  H    0.033317
    79  H    0.025216
    80  H    0.035952
    81  H    0.028608
    82  H    0.041531
    83  H    0.027244
    84  H    0.038347
    85  H    0.027759
    86  H    0.031399
    87  H    0.020811
    88  H    0.027976
    89  H    0.021759
    90  H    0.027994
    91  H    0.003013
    92  H    0.014415
    93  H    0.023380
    94  H    0.033464
    95  H    0.040922
    96  H    0.022457
    97  H    0.036615
    98  H    0.055127
    99  H    0.033841
   100  H    0.032895
   101  H    0.068925
   102  H    0.045848
   103  H    0.049704
   104  H    0.021167
   105  H    0.011502
   106  H    0.024200
   107  H    0.033553
   108  H    0.032758
   109  H    0.005502
   110  H    0.027440
   111  H    0.021309
   112  H    0.019318
   113  H    0.032223
   114  H    0.026090
   115  H    0.025337
   116  H    0.014854
   117  H    0.023908
   118  H    0.021571
   119  H    0.011772
   120  H    0.018816
   121  H    0.018468
   122  H    0.008540
   123  H    0.013712
   124  H    0.021933
   125  H    0.020299
   126  H    0.018645
   127  H    0.025147
   128  H    0.012787
   129  H    0.016460
   130  H    0.022456
   131  H    0.009732
   132  H    0.018033
   133  H    0.024698
   134  H    0.008672
   135  H    0.018089
   136  H    0.014936
   137  H    0.020359
   138  H    0.023681
   139  H    0.018127
   140  H    0.015611
 Sum of Mulliken charges =  -0.00000

 Dipole moment (field-independent basis, Debye):
    X=             -5.4369    Y=              0.7356    Z=              1.5964  Tot=              5.7140
 N-N= 4.278783524930D+03 E-N= 0.000000000000D+00  KE=-9.231976301167D+03
 Leave Link  601 at Thu May  5 04:20:46 2022, MaxMem=  6710886400 cpu:               0.8 elap:               0.0
 (Enter /sw/apps/gaussian-16.0/g16/l9999.exe)
 1\1\GINC-BP1-COMPUTE067\SP\RZINDO CIS\STO-3G\C55H74Mg1N4O6\OF15641\05-
 May-2022\0\\#p ZINDO=(nstates=5)\\step_551_chromophore_25 ZINDO\\0,1\M
 g,0,-1.993,34.241,27.503\C,0,-2.949,32.215,30.238\C,0,-0.718,36.515,29
 .88\C,0,-1.166,36.094,24.938\C,0,-3.761,32.105,25.385\N,0,-1.895,34.39
 6,29.805\C,0,-2.143,33.314,30.649\C,0,-1.668,33.595,31.987\C,0,-1.138,
 35.062,31.896\C,0,-1.263,35.389,30.458\C,0,-1.705,36.112,32.888\C,0,-0
 .752,32.631,32.684\C,0,-0.983,32.35,34.181\C,0,0.198,32.74,35.152\O,0,

 Normal termination of Gaussian 16 at Thu May  5 04:20:46 2022.
