 Gaussian 16, Revision A.03,
 Gaussian 16:  ES64L-G16RevA.03 25-Dec-2016

 ------------------------------
 #p blyp/Def2SVP td=(nstates=5)
 ------------------------------

 --------------------------------------------------
 step_1851_chromophore_5 TDDFT with blyp functional
 --------------------------------------------------
 Symbolic Z-matrix:
 Charge =  0 Multiplicity = 1

                         Standard orientation:
 ---------------------------------------------------------------------
 Center     Atomic      Atomic             Coordinates (Angstroms)
 Number     Number       Type             X           Y           Z
 ---------------------------------------------------------------------
      1         12           0        5.844923    0.614818   -0.325817
      2          6           0        4.599028   -2.673288   -0.001747
      3          6           0        3.079588    1.552041   -2.061732
      4          6           0        7.003843    3.784714   -0.110561
      5          6           0        8.342634   -0.182986    2.026539
      6          7           0        4.021535   -0.455144   -0.938117
      7          6           0        3.727060   -1.824772   -0.755511
      8          6           0        2.377272   -2.176097   -1.396665
      9          6           0        1.997397   -0.831170   -2.145362
     10          6           0        3.093813    0.124781   -1.765811
     11          6           0        1.907808   -0.973314   -3.732981
     12          6           0        1.255818   -2.560177   -0.337955
     13          6           0        0.374709   -3.794039   -0.692414
     14          6           0       -1.158916   -3.686806   -0.438244
     15          8           0       -1.834177   -4.394325    0.234748
     16          8           0       -1.669700   -2.686545   -1.272107
     17          7           0        5.142370    2.434989   -1.004171
     18          6           0        3.958976    2.538542   -1.724671
     19          6           0        3.774538    4.001734   -2.051403
     20          6           0        4.936622    4.711207   -1.519770
     21          6           0        5.774658    3.639701   -0.819384
     22          6           0        2.543434    4.510892   -2.695894
     23          6           0        5.089081    6.227820   -1.559943
     24          8           0        4.306470    6.831056   -2.265096
     25          6           0        6.266700    7.018031   -0.906703
     26          7           0        7.523558    1.604037    0.824120
     27          6           0        7.827756    2.859136    0.513179
     28          6           0        8.993786    3.385060    1.382774
     29          6           0        9.242640    2.185931    2.433216
     30          6           0        8.343594    1.168065    1.716599
     31          6           0       10.223338    3.844199    0.553400
     32          6           0        8.924733    2.393665    3.958754
     33          6           0        7.412531    2.621415    4.298502
     34          7           0        6.505706   -1.067305    0.655343
     35          6           0        7.422128   -1.174690    1.653254
     36          6           0        7.532337   -2.538948    2.025933
     37          6           0        6.552517   -3.157381    1.348682
     38          6           0        5.785929   -2.188249    0.685725
     39          6           0        8.449912   -3.180636    3.056760
     40          6           0        5.899917   -4.407027    1.118318
     41          8           0        6.111237   -5.465692    1.673621
     42          6           0        4.573675   -4.164820    0.144823
     43          6           0        4.589262   -4.970563   -1.075264
     44          8           0        5.479766   -4.952143   -1.886120
     45          8           0        3.370906   -5.513542   -1.288264
     46          6           0        3.255731   -6.289384   -2.535265
     47          6           0       -3.068432   -2.581291   -1.518093
     48          6           0       -3.519991   -1.501948   -0.567412
     49          6           0       -4.760284   -1.087644   -0.247729
     50          6           0       -6.035366   -1.678229   -0.870966
     51          6           0       -5.048470    0.025373    0.751627
     52          6           0       -5.725090    1.335601    0.239920
     53          6           0       -7.110944    1.474695    0.846145
     54          6           0       -8.280251    1.460857   -0.227274
     55          6           0       -9.139295    2.696991   -0.384935
     56          6           0       -9.140892    0.174669    0.033162
     57          6           0      -10.000892    0.042554    1.290096
     58          6           0      -11.357836   -0.613385    1.146444
     59          6           0      -12.689997    0.186573    1.006445
     60          6           0      -13.109802    0.442035   -0.457170
     61          6           0      -13.795447   -0.557277    1.805797
     62          6           0      -14.985886    0.322678    2.251013
     63          6           0      -16.181202    0.273007    1.280724
     64          6           0      -16.354509    1.560130    0.481734
     65          6           0      -17.566326    2.438139    1.040770
     66          6           0      -16.692687    1.251380   -1.027260
     67          1           0        2.132089    1.713364   -2.581130
     68          1           0        7.366107    4.807975   -0.229849
     69          1           0        9.055327   -0.496576    2.792007
     70          1           0        2.586959   -3.037011   -2.031935
     71          1           0        1.140332   -0.356986   -1.668138
     72          1           0        0.900044   -0.730093   -4.070383
     73          1           0        2.297220   -1.919450   -4.109772
     74          1           0        2.556223   -0.249216   -4.227656
     75          1           0        0.445908   -1.830838   -0.319814
     76          1           0        1.681199   -2.700374    0.655987
     77          1           0        0.680231   -4.669755   -0.118924
     78          1           0        0.581740   -4.095985   -1.718709
     79          1           0        1.863186    4.592941   -1.848378
     80          1           0        2.182119    3.754287   -3.392210
     81          1           0        2.539664    5.428703   -3.283942
     82          1           0        7.245970    6.697402   -1.260580
     83          1           0        6.212046    6.713224    0.138926
     84          1           0        6.068776    8.065552   -1.135627
     85          1           0        8.599897    4.240258    1.931495
     86          1           0       10.314176    1.990373    2.418538
     87          1           0       11.117725    3.641657    1.142261
     88          1           0        9.971984    4.885881    0.351345
     89          1           0       10.280246    3.285181   -0.380468
     90          1           0        9.410709    3.361594    4.085652
     91          1           0        9.223563    1.589383    4.629924
     92          1           0        7.375724    2.372543    5.359843
     93          1           0        6.769781    2.112908    3.579942
     94          1           0        7.297037    3.689282    4.110816
     95          1           0        7.897090   -3.360620    3.978833
     96          1           0        9.355761   -2.624041    3.297220
     97          1           0        8.937116   -4.110147    2.762635
     98          1           0        3.701776   -4.436899    0.739743
     99          1           0        3.990768   -7.094397   -2.545832
    100          1           0        3.532908   -5.716750   -3.420759
    101          1           0        2.318487   -6.819989   -2.706639
    102          1           0       -3.525123   -3.557379   -1.354217
    103          1           0       -3.235771   -2.353485   -2.569976
    104          1           0       -2.710591   -0.949756   -0.089777
    105          1           0       -5.768595   -2.505129   -1.528020
    106          1           0       -6.701319   -0.955273   -1.342760
    107          1           0       -6.711681   -2.097604   -0.125311
    108          1           0       -4.065188    0.417948    1.012612
    109          1           0       -5.505992   -0.437733    1.625680
    110          1           0       -5.693607    1.435699   -0.844804
    111          1           0       -5.169547    2.157441    0.691196
    112          1           0       -7.291090    2.377214    1.430480
    113          1           0       -7.153817    0.766688    1.673123
    114          1           0       -7.785320    1.235493   -1.172582
    115          1           0      -10.171510    2.510978   -0.682293
    116          1           0       -8.866541    3.242669   -1.288397
    117          1           0       -9.205439    3.439116    0.411076
    118          1           0       -8.488210   -0.698526    0.038467
    119          1           0       -9.743640    0.003566   -0.858653
    120          1           0      -10.270990    1.067749    1.541607
    121          1           0       -9.405122   -0.233341    2.159759
    122          1           0      -11.532799   -1.308649    1.967789
    123          1           0      -11.274032   -1.259689    0.272733
    124          1           0      -12.526403    1.136848    1.513533
    125          1           0      -13.897621   -0.292162   -0.624149
    126          1           0      -12.287377    0.209563   -1.132882
    127          1           0      -13.451511    1.475543   -0.522918
    128          1           0      -13.402614   -1.010370    2.715880
    129          1           0      -14.214281   -1.358424    1.197371
    130          1           0      -14.578473    1.328990    2.339668
    131          1           0      -15.429701    0.016331    3.198077
    132          1           0      -17.106458    0.109567    1.832601
    133          1           0      -16.166939   -0.554287    0.569663
    134          1           0      -15.552333    2.296518    0.540149
    135          1           0      -17.648912    3.373249    0.487028
    136          1           0      -17.591240    2.682198    2.103005
    137          1           0      -18.493915    1.882918    0.901890
    138          1           0      -15.795456    0.729470   -1.359399
    139          1           0      -16.745742    2.121525   -1.681768
    140          1           0      -17.533763    0.571855   -1.167866
 ---------------------------------------------------------------------

 SCF Done:  E(RB-LYP) =  -3007.34037787     A.U. after   21 cycles

 Excitation energies and oscillator strengths:

 Excited State   1:      Singlet-A      1.8440 eV  672.38 nm  f=0.2562  <S**2>=0.000
     245 -> 248        0.21368
     246 -> 247        0.67984
     246 <- 247       -0.13435
 This state for optimization and/or second-order correction.
 Total Energy, E(TD-HF/TD-DFT) =  -3007.27261385
 Copying the excited state density for this state as the 1-particle RhoCI density.

 Excited State   2:      Singlet-A      2.0032 eV  618.92 nm  f=0.0031  <S**2>=0.000
     244 -> 247        0.66163
     245 -> 247       -0.23300

 Excited State   3:      Singlet-A      2.0534 eV  603.80 nm  f=0.0008  <S**2>=0.000
     243 -> 247        0.70573

 Excited State   4:      Singlet-A      2.1014 eV  589.99 nm  f=0.0396  <S**2>=0.000
     244 -> 247        0.24195
     245 -> 247        0.57280
     246 -> 248       -0.31892

 Excited State   5:      Singlet-A      2.5683 eV  482.75 nm  f=0.0001  <S**2>=0.000
     241 -> 247        0.70624

 The electronic state is 1-A.
 Alpha  occ. eigenvalues --  -46.27648 -18.83350 -18.81285 -18.77826 -18.76662
 Alpha  occ. eigenvalues --  -18.75730 -18.75534 -14.03750 -14.02857 -14.01775
 Alpha  occ. eigenvalues --  -14.00786 -10.04526 -10.03895 -10.00142  -9.99469
 Alpha  occ. eigenvalues --   -9.98339  -9.98248  -9.97141  -9.97137  -9.96874
 Alpha  occ. eigenvalues --   -9.96380  -9.96116  -9.95515  -9.95085  -9.94995
 Alpha  occ. eigenvalues --   -9.94822  -9.94584  -9.94472  -9.94460  -9.94114
 Alpha  occ. eigenvalues --   -9.93971  -9.93722  -9.93673  -9.93537  -9.93429
 Alpha  occ. eigenvalues --   -9.93403  -9.93249  -9.93240  -9.92901  -9.92886
 Alpha  occ. eigenvalues --   -9.92856  -9.92659  -9.92603  -9.92495  -9.92207
 Alpha  occ. eigenvalues --   -9.92101  -9.92075  -9.91917  -9.91907  -9.91890
 Alpha  occ. eigenvalues --   -9.91884  -9.91856  -9.91842  -9.91683  -9.91127
 Alpha  occ. eigenvalues --   -9.91094  -9.91063  -9.90934  -9.90916  -9.90799
 Alpha  occ. eigenvalues --   -9.90787  -9.90785  -9.90696  -9.90571  -9.90391
 Alpha  occ. eigenvalues --   -9.90037  -2.92222  -1.72656  -1.72121  -1.71913
 Alpha  occ. eigenvalues --   -0.99280  -0.98490  -0.92108  -0.91627  -0.91612
 Alpha  occ. eigenvalues --   -0.90749  -0.88620  -0.87370  -0.85146  -0.84129
 Alpha  occ. eigenvalues --   -0.75045  -0.73509  -0.72942  -0.72414  -0.72261
 Alpha  occ. eigenvalues --   -0.72012  -0.71687  -0.71011  -0.70513  -0.70363
 Alpha  occ. eigenvalues --   -0.69390  -0.68969  -0.68209  -0.67966  -0.67303
 Alpha  occ. eigenvalues --   -0.66504  -0.66033  -0.65331  -0.65142  -0.64566
 Alpha  occ. eigenvalues --   -0.64197  -0.62376  -0.61989  -0.61576  -0.60981
 Alpha  occ. eigenvalues --   -0.60905  -0.60189  -0.59938  -0.59367  -0.59034
 Alpha  occ. eigenvalues --   -0.58298  -0.57920  -0.57371  -0.55810  -0.55216
 Alpha  occ. eigenvalues --   -0.54538  -0.54141  -0.52736  -0.52647  -0.51632
 Alpha  occ. eigenvalues --   -0.51565  -0.51509  -0.50834  -0.50454  -0.49840
 Alpha  occ. eigenvalues --   -0.49649  -0.49049  -0.48861  -0.48724  -0.46684
 Alpha  occ. eigenvalues --   -0.46290  -0.46057  -0.45505  -0.45436  -0.44512
 Alpha  occ. eigenvalues --   -0.44115  -0.44029  -0.43002  -0.42531  -0.42392
 Alpha  occ. eigenvalues --   -0.42325  -0.42128  -0.41883  -0.41683  -0.41168
 Alpha  occ. eigenvalues --   -0.40934  -0.40859  -0.40764  -0.40513  -0.40212
 Alpha  occ. eigenvalues --   -0.39899  -0.39695  -0.39561  -0.39454  -0.39114
 Alpha  occ. eigenvalues --   -0.38907  -0.38897  -0.38750  -0.38610  -0.38500
 Alpha  occ. eigenvalues --   -0.38221  -0.37839  -0.37756  -0.37672  -0.37473
 Alpha  occ. eigenvalues --   -0.37173  -0.37070  -0.36862  -0.36779  -0.36420
 Alpha  occ. eigenvalues --   -0.36171  -0.36062  -0.35971  -0.35651  -0.35464
 Alpha  occ. eigenvalues --   -0.35319  -0.35201  -0.35162  -0.34952  -0.34902
 Alpha  occ. eigenvalues --   -0.34787  -0.34592  -0.34376  -0.34266  -0.34003
 Alpha  occ. eigenvalues --   -0.33924  -0.33675  -0.33495  -0.33352  -0.33245
 Alpha  occ. eigenvalues --   -0.33060  -0.33004  -0.32786  -0.32498  -0.32309
 Alpha  occ. eigenvalues --   -0.32274  -0.32194  -0.31921  -0.31711  -0.31602
 Alpha  occ. eigenvalues --   -0.31525  -0.31271  -0.31102  -0.30981  -0.30916
 Alpha  occ. eigenvalues --   -0.30813  -0.30746  -0.30679  -0.30285  -0.29707
 Alpha  occ. eigenvalues --   -0.29633  -0.29571  -0.29252  -0.29234  -0.29072
 Alpha  occ. eigenvalues --   -0.28669  -0.28376  -0.28324  -0.28251  -0.27738
 Alpha  occ. eigenvalues --   -0.27575  -0.27374  -0.27054  -0.26712  -0.26401
 Alpha  occ. eigenvalues --   -0.26322  -0.26008  -0.25966  -0.25820  -0.25493
 Alpha  occ. eigenvalues --   -0.24916  -0.24792  -0.24186  -0.23906  -0.23762
 Alpha  occ. eigenvalues --   -0.23506  -0.22889  -0.22574  -0.21630  -0.20806
 Alpha  occ. eigenvalues --   -0.20611  -0.20270  -0.18636  -0.18466  -0.17498
 Alpha  occ. eigenvalues --   -0.15713
 Alpha virt. eigenvalues --   -0.11173  -0.07332  -0.06260  -0.04687  -0.03229
 Alpha virt. eigenvalues --   -0.03139  -0.02149  -0.01887  -0.01763  -0.00326
 Alpha virt. eigenvalues --    0.01055   0.01347   0.02281   0.02291   0.02605

 Mulliken charges:
               1
     1  Mg   0.689856
     2  C   -0.011171
     3  C   -0.076482
     4  C   -0.051502
     5  C   -0.087381
     6  N   -0.241195
     7  C   -0.081398
     8  C    0.055979
     9  C    0.033904
    10  C   -0.055658
    11  C    0.121759
    12  C    0.104589
    13  C    0.116298
    14  C    0.054751
    15  O   -0.128312
    16  O   -0.301564
    17  N   -0.323869
    18  C    0.228705
    19  C   -0.138427
    20  C    0.028770
    21  C    0.092080
    22  C    0.174717
    23  C   -0.096667
    24  O   -0.158473
    25  C    0.122292
    26  N   -0.112035
    27  C    0.060718
    28  C   -0.064278
    29  C    0.054805
    30  C   -0.046960
    31  C    0.148397
    32  C    0.063528
    33  C    0.048274
    34  N   -0.267225
    35  C    0.142623
    36  C   -0.175511
    37  C    0.144283
    38  C    0.061984
    39  C    0.154970
    40  C   -0.068219
    41  O   -0.124018
    42  C    0.079365
    43  C    0.097705
    44  O   -0.165971
    45  O   -0.258817
    46  C    0.225504
    47  C    0.321514
    48  C   -0.116966
    49  C   -0.136650
    50  C    0.128045
    51  C    0.132134
    52  C    0.090713
    53  C    0.100106
    54  C   -0.022796
    55  C    0.126782
    56  C    0.049715
    57  C    0.121365
    58  C    0.109615
    59  C   -0.093657
    60  C    0.137826
    61  C    0.078777
    62  C    0.099921
    63  C    0.130430
    64  C   -0.091444
    65  C    0.069917
    66  C    0.088578
    67  H   -0.061416
    68  H   -0.093754
    69  H   -0.070885
    70  H   -0.014482
    71  H   -0.006045
    72  H    0.003827
    73  H   -0.004097
    74  H   -0.011034
    75  H   -0.003612
    76  H   -0.001541
    77  H   -0.008100
    78  H   -0.005297
    79  H    0.008045
    80  H   -0.011796
    81  H    0.014039
    82  H    0.029137
    83  H    0.004932
    84  H    0.003584
    85  H   -0.027862
    86  H   -0.038895
    87  H   -0.003608
    88  H    0.002483
    89  H   -0.004926
    90  H   -0.019056
    91  H   -0.002566
    92  H    0.003046
    93  H    0.022482
    94  H   -0.013729
    95  H    0.010515
    96  H   -0.026353
    97  H   -0.000120
    98  H   -0.012898
    99  H    0.006591
   100  H    0.008161
   101  H    0.019052
   102  H    0.001213
   103  H    0.003026
   104  H   -0.036265
   105  H   -0.028400
   106  H    0.004398
   107  H    0.002605
   108  H   -0.046987
   109  H   -0.005494
   110  H   -0.015835
   111  H   -0.029977
   112  H   -0.050736
   113  H   -0.040767
   114  H   -0.041311
   115  H   -0.029534
   116  H   -0.032538
   117  H   -0.007753
   118  H   -0.056320
   119  H   -0.046234
   120  H   -0.060907
   121  H   -0.030465
   122  H   -0.052940
   123  H   -0.051089
   124  H   -0.042441
   125  H   -0.005580
   126  H   -0.015709
   127  H    0.002718
   128  H   -0.034628
   129  H   -0.034178
   130  H   -0.029274
   131  H   -0.035231
   132  H   -0.044458
   133  H   -0.041955
   134  H   -0.024456
   135  H   -0.020622
   136  H   -0.021652
   137  H   -0.027099
   138  H   -0.034368
   139  H   -0.018890
   140  H   -0.008345
 Sum of Mulliken charges =  -0.00000

 Dipole moment (field-independent basis, Debye):
    X=             -0.4585    Y=              2.6564    Z=             -0.7388  Tot=              2.7951
 Quadrupole moment (field-independent basis, Debye-Ang):
   XX=           -387.4271   YY=           -443.7324   ZZ=           -396.9284
   XY=             30.8178   XZ=             17.0912   YZ=             30.5576

 Normal termination of Gaussian 16 at Wed May  4 15:55:47 2022.
