 Gaussian 16, Revision A.03,
 Gaussian 16:  ES64L-G16RevA.03 25-Dec-2016

 -----------------------------------
 #p cam-b3lyp/Def2SVP td=(nstates=5)
 -----------------------------------

 -------------------------------------------------------
 step_1851_chromophore_5 TDDFT with cam-b3lyp functional
 -------------------------------------------------------
 Symbolic Z-matrix:
 Charge =  0 Multiplicity = 1

                         Standard orientation:
 ---------------------------------------------------------------------
 Center     Atomic      Atomic             Coordinates (Angstroms)
 Number     Number       Type             X           Y           Z
 ---------------------------------------------------------------------
      1         12           0        5.844923    0.614818   -0.325817
      2          6           0        4.599028   -2.673288   -0.001747
      3          6           0        3.079588    1.552041   -2.061732
      4          6           0        7.003843    3.784714   -0.110561
      5          6           0        8.342634   -0.182986    2.026539
      6          7           0        4.021535   -0.455144   -0.938117
      7          6           0        3.727060   -1.824772   -0.755511
      8          6           0        2.377272   -2.176097   -1.396665
      9          6           0        1.997397   -0.831170   -2.145362
     10          6           0        3.093813    0.124781   -1.765811
     11          6           0        1.907808   -0.973314   -3.732981
     12          6           0        1.255818   -2.560177   -0.337955
     13          6           0        0.374709   -3.794039   -0.692414
     14          6           0       -1.158916   -3.686806   -0.438244
     15          8           0       -1.834177   -4.394325    0.234748
     16          8           0       -1.669700   -2.686545   -1.272107
     17          7           0        5.142370    2.434989   -1.004171
     18          6           0        3.958976    2.538542   -1.724671
     19          6           0        3.774538    4.001734   -2.051403
     20          6           0        4.936622    4.711207   -1.519770
     21          6           0        5.774658    3.639701   -0.819384
     22          6           0        2.543434    4.510892   -2.695894
     23          6           0        5.089081    6.227820   -1.559943
     24          8           0        4.306470    6.831056   -2.265096
     25          6           0        6.266700    7.018031   -0.906703
     26          7           0        7.523558    1.604037    0.824120
     27          6           0        7.827756    2.859136    0.513179
     28          6           0        8.993786    3.385060    1.382774
     29          6           0        9.242640    2.185931    2.433216
     30          6           0        8.343594    1.168065    1.716599
     31          6           0       10.223338    3.844199    0.553400
     32          6           0        8.924733    2.393665    3.958754
     33          6           0        7.412531    2.621415    4.298502
     34          7           0        6.505706   -1.067305    0.655343
     35          6           0        7.422128   -1.174690    1.653254
     36          6           0        7.532337   -2.538948    2.025933
     37          6           0        6.552517   -3.157381    1.348682
     38          6           0        5.785929   -2.188249    0.685725
     39          6           0        8.449912   -3.180636    3.056760
     40          6           0        5.899917   -4.407027    1.118318
     41          8           0        6.111237   -5.465692    1.673621
     42          6           0        4.573675   -4.164820    0.144823
     43          6           0        4.589262   -4.970563   -1.075264
     44          8           0        5.479766   -4.952143   -1.886120
     45          8           0        3.370906   -5.513542   -1.288264
     46          6           0        3.255731   -6.289384   -2.535265
     47          6           0       -3.068432   -2.581291   -1.518093
     48          6           0       -3.519991   -1.501948   -0.567412
     49          6           0       -4.760284   -1.087644   -0.247729
     50          6           0       -6.035366   -1.678229   -0.870966
     51          6           0       -5.048470    0.025373    0.751627
     52          6           0       -5.725090    1.335601    0.239920
     53          6           0       -7.110944    1.474695    0.846145
     54          6           0       -8.280251    1.460857   -0.227274
     55          6           0       -9.139295    2.696991   -0.384935
     56          6           0       -9.140892    0.174669    0.033162
     57          6           0      -10.000892    0.042554    1.290096
     58          6           0      -11.357836   -0.613385    1.146444
     59          6           0      -12.689997    0.186573    1.006445
     60          6           0      -13.109802    0.442035   -0.457170
     61          6           0      -13.795447   -0.557277    1.805797
     62          6           0      -14.985886    0.322678    2.251013
     63          6           0      -16.181202    0.273007    1.280724
     64          6           0      -16.354509    1.560130    0.481734
     65          6           0      -17.566326    2.438139    1.040770
     66          6           0      -16.692687    1.251380   -1.027260
     67          1           0        2.132089    1.713364   -2.581130
     68          1           0        7.366107    4.807975   -0.229849
     69          1           0        9.055327   -0.496576    2.792007
     70          1           0        2.586959   -3.037011   -2.031935
     71          1           0        1.140332   -0.356986   -1.668138
     72          1           0        0.900044   -0.730093   -4.070383
     73          1           0        2.297220   -1.919450   -4.109772
     74          1           0        2.556223   -0.249216   -4.227656
     75          1           0        0.445908   -1.830838   -0.319814
     76          1           0        1.681199   -2.700374    0.655987
     77          1           0        0.680231   -4.669755   -0.118924
     78          1           0        0.581740   -4.095985   -1.718709
     79          1           0        1.863186    4.592941   -1.848378
     80          1           0        2.182119    3.754287   -3.392210
     81          1           0        2.539664    5.428703   -3.283942
     82          1           0        7.245970    6.697402   -1.260580
     83          1           0        6.212046    6.713224    0.138926
     84          1           0        6.068776    8.065552   -1.135627
     85          1           0        8.599897    4.240258    1.931495
     86          1           0       10.314176    1.990373    2.418538
     87          1           0       11.117725    3.641657    1.142261
     88          1           0        9.971984    4.885881    0.351345
     89          1           0       10.280246    3.285181   -0.380468
     90          1           0        9.410709    3.361594    4.085652
     91          1           0        9.223563    1.589383    4.629924
     92          1           0        7.375724    2.372543    5.359843
     93          1           0        6.769781    2.112908    3.579942
     94          1           0        7.297037    3.689282    4.110816
     95          1           0        7.897090   -3.360620    3.978833
     96          1           0        9.355761   -2.624041    3.297220
     97          1           0        8.937116   -4.110147    2.762635
     98          1           0        3.701776   -4.436899    0.739743
     99          1           0        3.990768   -7.094397   -2.545832
    100          1           0        3.532908   -5.716750   -3.420759
    101          1           0        2.318487   -6.819989   -2.706639
    102          1           0       -3.525123   -3.557379   -1.354217
    103          1           0       -3.235771   -2.353485   -2.569976
    104          1           0       -2.710591   -0.949756   -0.089777
    105          1           0       -5.768595   -2.505129   -1.528020
    106          1           0       -6.701319   -0.955273   -1.342760
    107          1           0       -6.711681   -2.097604   -0.125311
    108          1           0       -4.065188    0.417948    1.012612
    109          1           0       -5.505992   -0.437733    1.625680
    110          1           0       -5.693607    1.435699   -0.844804
    111          1           0       -5.169547    2.157441    0.691196
    112          1           0       -7.291090    2.377214    1.430480
    113          1           0       -7.153817    0.766688    1.673123
    114          1           0       -7.785320    1.235493   -1.172582
    115          1           0      -10.171510    2.510978   -0.682293
    116          1           0       -8.866541    3.242669   -1.288397
    117          1           0       -9.205439    3.439116    0.411076
    118          1           0       -8.488210   -0.698526    0.038467
    119          1           0       -9.743640    0.003566   -0.858653
    120          1           0      -10.270990    1.067749    1.541607
    121          1           0       -9.405122   -0.233341    2.159759
    122          1           0      -11.532799   -1.308649    1.967789
    123          1           0      -11.274032   -1.259689    0.272733
    124          1           0      -12.526403    1.136848    1.513533
    125          1           0      -13.897621   -0.292162   -0.624149
    126          1           0      -12.287377    0.209563   -1.132882
    127          1           0      -13.451511    1.475543   -0.522918
    128          1           0      -13.402614   -1.010370    2.715880
    129          1           0      -14.214281   -1.358424    1.197371
    130          1           0      -14.578473    1.328990    2.339668
    131          1           0      -15.429701    0.016331    3.198077
    132          1           0      -17.106458    0.109567    1.832601
    133          1           0      -16.166939   -0.554287    0.569663
    134          1           0      -15.552333    2.296518    0.540149
    135          1           0      -17.648912    3.373249    0.487028
    136          1           0      -17.591240    2.682198    2.103005
    137          1           0      -18.493915    1.882918    0.901890
    138          1           0      -15.795456    0.729470   -1.359399
    139          1           0      -16.745742    2.121525   -1.681768
    140          1           0      -17.533763    0.571855   -1.167866
 ---------------------------------------------------------------------

 SCF Done:  E(RCAM-B3LYP) =  -3007.13575139     A.U. after   19 cycles

 Excitation energies and oscillator strengths:

 Excited State   1:      Singlet-A      1.7821 eV  695.71 nm  f=0.3271  <S**2>=0.000
     245 -> 248        0.19407
     246 -> 247        0.68037
     245 <- 248        0.10856
 This state for optimization and/or second-order correction.
 Total Energy, E(TD-HF/TD-DFT) =  -3007.07025954
 Copying the excited state density for this state as the 1-particle RhoCI density.

 Excited State   2:      Singlet-A      2.3302 eV  532.07 nm  f=0.0305  <S**2>=0.000
     245 -> 247        0.57789
     246 -> 248       -0.39671

 Excited State   3:      Singlet-A      3.4421 eV  360.19 nm  f=0.7475  <S**2>=0.000
     243 -> 247        0.23755
     244 -> 247       -0.13945
     245 -> 247        0.35013
     246 -> 248        0.54309
     245 <- 247       -0.10153

 Excited State   4:      Singlet-A      3.5378 eV  350.45 nm  f=0.0019  <S**2>=0.000
     241 -> 250       -0.11246
     243 -> 247        0.31574
     244 -> 247        0.55755
     244 -> 249       -0.13829

 Excited State   5:      Singlet-A      3.6149 eV  342.98 nm  f=0.2607  <S**2>=0.000
     241 -> 247       -0.14968
     241 -> 249        0.12940
     241 -> 250        0.11768
     243 -> 247        0.54637
     244 -> 247       -0.17409
     244 -> 249        0.11583
     245 -> 247       -0.18513
     246 -> 248       -0.19290

 The electronic state is 1-A.
 Alpha  occ. eigenvalues --  -46.89227 -19.26358 -19.24078 -19.20886 -19.19769
 Alpha  occ. eigenvalues --  -19.18990 -19.18561 -14.42783 -14.41608 -14.40414
 Alpha  occ. eigenvalues --  -14.39006 -10.39819 -10.39237 -10.35551 -10.34567
 Alpha  occ. eigenvalues --  -10.32415 -10.32192 -10.32071 -10.31795 -10.31535
 Alpha  occ. eigenvalues --  -10.31224 -10.30700 -10.29732 -10.29461 -10.29178
 Alpha  occ. eigenvalues --  -10.29133 -10.28745 -10.28516 -10.28411 -10.28207
 Alpha  occ. eigenvalues --  -10.28008 -10.27993 -10.27983 -10.27707 -10.27645
 Alpha  occ. eigenvalues --  -10.27541 -10.27112 -10.27035 -10.26962 -10.26957
 Alpha  occ. eigenvalues --  -10.26876 -10.26615 -10.26472 -10.26283 -10.25989
 Alpha  occ. eigenvalues --  -10.25917 -10.25764 -10.25748 -10.25617 -10.25592
 Alpha  occ. eigenvalues --  -10.25587 -10.25562 -10.25549 -10.25359 -10.24785
 Alpha  occ. eigenvalues --  -10.24720 -10.24715 -10.24595 -10.24574 -10.24520
 Alpha  occ. eigenvalues --  -10.24457 -10.24437 -10.24347 -10.24248 -10.24047
 Alpha  occ. eigenvalues --  -10.23634  -3.17704  -1.92615  -1.92163  -1.91995
 Alpha  occ. eigenvalues --   -1.17884  -1.17014  -1.10769  -1.09745  -1.09507
 Alpha  occ. eigenvalues --   -1.08737  -1.06320  -1.04744  -1.02934  -1.01863
 Alpha  occ. eigenvalues --   -0.92035  -0.90372  -0.89760  -0.89158  -0.89051
 Alpha  occ. eigenvalues --   -0.88583  -0.88379  -0.87606  -0.87074  -0.86719
 Alpha  occ. eigenvalues --   -0.85964  -0.85537  -0.84465  -0.84105  -0.83466
 Alpha  occ. eigenvalues --   -0.82539  -0.82155  -0.81236  -0.81171  -0.80454
 Alpha  occ. eigenvalues --   -0.79923  -0.77915  -0.77511  -0.77307  -0.76400
 Alpha  occ. eigenvalues --   -0.76301  -0.75470  -0.75300  -0.74696  -0.74271
 Alpha  occ. eigenvalues --   -0.73340  -0.72881  -0.72311  -0.70650  -0.69778
 Alpha  occ. eigenvalues --   -0.69215  -0.68673  -0.67220  -0.66986  -0.65876
 Alpha  occ. eigenvalues --   -0.65764  -0.65621  -0.64960  -0.64395  -0.63682
 Alpha  occ. eigenvalues --   -0.63530  -0.62806  -0.62767  -0.62584  -0.60261
 Alpha  occ. eigenvalues --   -0.59873  -0.59652  -0.58992  -0.58836  -0.58081
 Alpha  occ. eigenvalues --   -0.57600  -0.57496  -0.56251  -0.55738  -0.55675
 Alpha  occ. eigenvalues --   -0.55473  -0.55294  -0.55083  -0.54911  -0.54092
 Alpha  occ. eigenvalues --   -0.53728  -0.53493  -0.53365  -0.53295  -0.52820
 Alpha  occ. eigenvalues --   -0.52575  -0.52432  -0.52166  -0.52005  -0.51863
 Alpha  occ. eigenvalues --   -0.51759  -0.51346  -0.51183  -0.51072  -0.50787
 Alpha  occ. eigenvalues --   -0.50693  -0.50477  -0.50271  -0.49922  -0.49701
 Alpha  occ. eigenvalues --   -0.49530  -0.49394  -0.49125  -0.49049  -0.48933
 Alpha  occ. eigenvalues --   -0.48523  -0.48446  -0.48166  -0.48070  -0.47550
 Alpha  occ. eigenvalues --   -0.47481  -0.47142  -0.47085  -0.47034  -0.46809
 Alpha  occ. eigenvalues --   -0.46711  -0.46646  -0.46388  -0.46028  -0.45949
 Alpha  occ. eigenvalues --   -0.45758  -0.45465  -0.45216  -0.45129  -0.44826
 Alpha  occ. eigenvalues --   -0.44780  -0.44610  -0.44464  -0.44043  -0.44013
 Alpha  occ. eigenvalues --   -0.43779  -0.43643  -0.43567  -0.43426  -0.43197
 Alpha  occ. eigenvalues --   -0.43003  -0.42950  -0.42826  -0.42650  -0.42568
 Alpha  occ. eigenvalues --   -0.42274  -0.42065  -0.42021  -0.41558  -0.41424
 Alpha  occ. eigenvalues --   -0.40793  -0.40631  -0.40606  -0.40355  -0.40336
 Alpha  occ. eigenvalues --   -0.39594  -0.39489  -0.39296  -0.39219  -0.38682
 Alpha  occ. eigenvalues --   -0.38453  -0.38403  -0.37849  -0.37691  -0.37523
 Alpha  occ. eigenvalues --   -0.37512  -0.36946  -0.36784  -0.36674  -0.36163
 Alpha  occ. eigenvalues --   -0.36123  -0.35488  -0.34929  -0.34872  -0.34673
 Alpha  occ. eigenvalues --   -0.34503  -0.33916  -0.33066  -0.31176  -0.31028
 Alpha  occ. eigenvalues --   -0.30560  -0.30179  -0.29923  -0.29476  -0.24395
 Alpha  occ. eigenvalues --   -0.20883
 Alpha virt. eigenvalues --   -0.07955  -0.02446   0.00319   0.02426   0.02803
 Alpha virt. eigenvalues --    0.04223   0.04597   0.05239   0.05639   0.06408
 Alpha virt. eigenvalues --    0.07435   0.08438   0.08530   0.08730   0.08945

 Mulliken charges:
               1
     1  Mg   0.821136
     2  C   -0.030143
     3  C   -0.095997
     4  C   -0.069237
     5  C   -0.083871
     6  N   -0.309862
     7  C   -0.039988
     8  C    0.011151
     9  C   -0.028794
    10  C   -0.022570
    11  C    0.062718
    12  C    0.054379
    13  C    0.052468
    14  C    0.135594
    15  O   -0.168597
    16  O   -0.367688
    17  N   -0.415436
    18  C    0.237683
    19  C   -0.138995
    20  C   -0.035439
    21  C    0.127500
    22  C    0.114094
    23  C   -0.022331
    24  O   -0.198373
    25  C    0.046319
    26  N   -0.180356
    27  C    0.080655
    28  C   -0.122964
    29  C    0.010856
    30  C   -0.045924
    31  C    0.094588
    32  C    0.013434
    33  C   -0.008513
    34  N   -0.349452
    35  C    0.140708
    36  C   -0.180589
    37  C    0.068980
    38  C    0.082669
    39  C    0.107942
    40  C    0.028792
    41  O   -0.165300
    42  C    0.004425
    43  C    0.184434
    44  O   -0.201909
    45  O   -0.323290
    46  C    0.179919
    47  C    0.288227
    48  C   -0.139372
    49  C   -0.155132
    50  C    0.071610
    51  C    0.072816
    52  C    0.027255
    53  C    0.047265
    54  C   -0.079234
    55  C    0.063140
    56  C    0.004232
    57  C    0.064289
    58  C    0.056613
    59  C   -0.143531
    60  C    0.078604
    61  C    0.022351
    62  C    0.044449
    63  C    0.069479
    64  C   -0.152064
    65  C    0.015912
    66  C    0.032089
    67  H   -0.024412
    68  H   -0.061447
    69  H   -0.037165
    70  H    0.015954
    71  H    0.029228
    72  H    0.028802
    73  H    0.021596
    74  H    0.015428
    75  H    0.024892
    76  H    0.028668
    77  H    0.024442
    78  H    0.024843
    79  H    0.036389
    80  H    0.013766
    81  H    0.047171
    82  H    0.054247
    83  H    0.031347
    84  H    0.039340
    85  H    0.005870
    86  H   -0.003407
    87  H    0.020728
    88  H    0.023340
    89  H    0.020414
    90  H    0.007136
    91  H    0.023285
    92  H    0.026347
    93  H    0.043004
    94  H    0.006414
    95  H    0.034911
    96  H   -0.002642
    97  H    0.025939
    98  H    0.029825
    99  H    0.031986
   100  H    0.032885
   101  H    0.043263
   102  H    0.031429
   103  H    0.030064
   104  H   -0.004216
   105  H   -0.003187
   106  H    0.023699
   107  H    0.025623
   108  H   -0.014515
   109  H    0.022639
   110  H    0.012434
   111  H    0.002127
   112  H   -0.019914
   113  H   -0.012984
   114  H   -0.009499
   115  H   -0.005181
   116  H   -0.005766
   117  H    0.016128
   118  H   -0.030565
   119  H   -0.018489
   120  H   -0.032046
   121  H   -0.001180
   122  H   -0.020085
   123  H   -0.022027
   124  H   -0.012064
   125  H    0.013871
   126  H    0.007744
   127  H    0.023958
   128  H   -0.003506
   129  H   -0.007028
   130  H   -0.002222
   131  H   -0.003906
   132  H   -0.012705
   133  H   -0.011873
   134  H    0.004362
   135  H    0.003624
   136  H    0.002930
   137  H   -0.004597
   138  H   -0.011017
   139  H    0.006726
   140  H    0.015002
 Sum of Mulliken charges =  -0.00000

 Dipole moment (field-independent basis, Debye):
    X=             -0.8094    Y=              3.4639    Z=             -1.2446  Tot=              3.7687
 Quadrupole moment (field-independent basis, Debye-Ang):
   XX=           -387.1773   YY=           -439.7837   ZZ=           -396.1211
   XY=             36.1682   XZ=             15.7927   YZ=             31.5196

 Normal termination of Gaussian 16 at Wed May  4 14:48:02 2022.
