 Gaussian 16, Revision A.03,
 Gaussian 16:  ES64L-G16RevA.03 25-Dec-2016

 ---------------------------------
 #p PBE1PBE/Def2SVP td=(nstates=5)
 ---------------------------------

 -----------------------------------------------------
 step_1851_chromophore_5 TDDFT with PBE1PBE functional
 -----------------------------------------------------
 Symbolic Z-matrix:
 Charge =  0 Multiplicity = 1

                         Standard orientation:
 ---------------------------------------------------------------------
 Center     Atomic      Atomic             Coordinates (Angstroms)
 Number     Number       Type             X           Y           Z
 ---------------------------------------------------------------------
      1         12           0        5.844923    0.614818   -0.325817
      2          6           0        4.599028   -2.673288   -0.001747
      3          6           0        3.079588    1.552041   -2.061732
      4          6           0        7.003843    3.784714   -0.110561
      5          6           0        8.342634   -0.182986    2.026539
      6          7           0        4.021535   -0.455144   -0.938117
      7          6           0        3.727060   -1.824772   -0.755511
      8          6           0        2.377272   -2.176097   -1.396665
      9          6           0        1.997397   -0.831170   -2.145362
     10          6           0        3.093813    0.124781   -1.765811
     11          6           0        1.907808   -0.973314   -3.732981
     12          6           0        1.255818   -2.560177   -0.337955
     13          6           0        0.374709   -3.794039   -0.692414
     14          6           0       -1.158916   -3.686806   -0.438244
     15          8           0       -1.834177   -4.394325    0.234748
     16          8           0       -1.669700   -2.686545   -1.272107
     17          7           0        5.142370    2.434989   -1.004171
     18          6           0        3.958976    2.538542   -1.724671
     19          6           0        3.774538    4.001734   -2.051403
     20          6           0        4.936622    4.711207   -1.519770
     21          6           0        5.774658    3.639701   -0.819384
     22          6           0        2.543434    4.510892   -2.695894
     23          6           0        5.089081    6.227820   -1.559943
     24          8           0        4.306470    6.831056   -2.265096
     25          6           0        6.266700    7.018031   -0.906703
     26          7           0        7.523558    1.604037    0.824120
     27          6           0        7.827756    2.859136    0.513179
     28          6           0        8.993786    3.385060    1.382774
     29          6           0        9.242640    2.185931    2.433216
     30          6           0        8.343594    1.168065    1.716599
     31          6           0       10.223338    3.844199    0.553400
     32          6           0        8.924733    2.393665    3.958754
     33          6           0        7.412531    2.621415    4.298502
     34          7           0        6.505706   -1.067305    0.655343
     35          6           0        7.422128   -1.174690    1.653254
     36          6           0        7.532337   -2.538948    2.025933
     37          6           0        6.552517   -3.157381    1.348682
     38          6           0        5.785929   -2.188249    0.685725
     39          6           0        8.449912   -3.180636    3.056760
     40          6           0        5.899917   -4.407027    1.118318
     41          8           0        6.111237   -5.465692    1.673621
     42          6           0        4.573675   -4.164820    0.144823
     43          6           0        4.589262   -4.970563   -1.075264
     44          8           0        5.479766   -4.952143   -1.886120
     45          8           0        3.370906   -5.513542   -1.288264
     46          6           0        3.255731   -6.289384   -2.535265
     47          6           0       -3.068432   -2.581291   -1.518093
     48          6           0       -3.519991   -1.501948   -0.567412
     49          6           0       -4.760284   -1.087644   -0.247729
     50          6           0       -6.035366   -1.678229   -0.870966
     51          6           0       -5.048470    0.025373    0.751627
     52          6           0       -5.725090    1.335601    0.239920
     53          6           0       -7.110944    1.474695    0.846145
     54          6           0       -8.280251    1.460857   -0.227274
     55          6           0       -9.139295    2.696991   -0.384935
     56          6           0       -9.140892    0.174669    0.033162
     57          6           0      -10.000892    0.042554    1.290096
     58          6           0      -11.357836   -0.613385    1.146444
     59          6           0      -12.689997    0.186573    1.006445
     60          6           0      -13.109802    0.442035   -0.457170
     61          6           0      -13.795447   -0.557277    1.805797
     62          6           0      -14.985886    0.322678    2.251013
     63          6           0      -16.181202    0.273007    1.280724
     64          6           0      -16.354509    1.560130    0.481734
     65          6           0      -17.566326    2.438139    1.040770
     66          6           0      -16.692687    1.251380   -1.027260
     67          1           0        2.132089    1.713364   -2.581130
     68          1           0        7.366107    4.807975   -0.229849
     69          1           0        9.055327   -0.496576    2.792007
     70          1           0        2.586959   -3.037011   -2.031935
     71          1           0        1.140332   -0.356986   -1.668138
     72          1           0        0.900044   -0.730093   -4.070383
     73          1           0        2.297220   -1.919450   -4.109772
     74          1           0        2.556223   -0.249216   -4.227656
     75          1           0        0.445908   -1.830838   -0.319814
     76          1           0        1.681199   -2.700374    0.655987
     77          1           0        0.680231   -4.669755   -0.118924
     78          1           0        0.581740   -4.095985   -1.718709
     79          1           0        1.863186    4.592941   -1.848378
     80          1           0        2.182119    3.754287   -3.392210
     81          1           0        2.539664    5.428703   -3.283942
     82          1           0        7.245970    6.697402   -1.260580
     83          1           0        6.212046    6.713224    0.138926
     84          1           0        6.068776    8.065552   -1.135627
     85          1           0        8.599897    4.240258    1.931495
     86          1           0       10.314176    1.990373    2.418538
     87          1           0       11.117725    3.641657    1.142261
     88          1           0        9.971984    4.885881    0.351345
     89          1           0       10.280246    3.285181   -0.380468
     90          1           0        9.410709    3.361594    4.085652
     91          1           0        9.223563    1.589383    4.629924
     92          1           0        7.375724    2.372543    5.359843
     93          1           0        6.769781    2.112908    3.579942
     94          1           0        7.297037    3.689282    4.110816
     95          1           0        7.897090   -3.360620    3.978833
     96          1           0        9.355761   -2.624041    3.297220
     97          1           0        8.937116   -4.110147    2.762635
     98          1           0        3.701776   -4.436899    0.739743
     99          1           0        3.990768   -7.094397   -2.545832
    100          1           0        3.532908   -5.716750   -3.420759
    101          1           0        2.318487   -6.819989   -2.706639
    102          1           0       -3.525123   -3.557379   -1.354217
    103          1           0       -3.235771   -2.353485   -2.569976
    104          1           0       -2.710591   -0.949756   -0.089777
    105          1           0       -5.768595   -2.505129   -1.528020
    106          1           0       -6.701319   -0.955273   -1.342760
    107          1           0       -6.711681   -2.097604   -0.125311
    108          1           0       -4.065188    0.417948    1.012612
    109          1           0       -5.505992   -0.437733    1.625680
    110          1           0       -5.693607    1.435699   -0.844804
    111          1           0       -5.169547    2.157441    0.691196
    112          1           0       -7.291090    2.377214    1.430480
    113          1           0       -7.153817    0.766688    1.673123
    114          1           0       -7.785320    1.235493   -1.172582
    115          1           0      -10.171510    2.510978   -0.682293
    116          1           0       -8.866541    3.242669   -1.288397
    117          1           0       -9.205439    3.439116    0.411076
    118          1           0       -8.488210   -0.698526    0.038467
    119          1           0       -9.743640    0.003566   -0.858653
    120          1           0      -10.270990    1.067749    1.541607
    121          1           0       -9.405122   -0.233341    2.159759
    122          1           0      -11.532799   -1.308649    1.967789
    123          1           0      -11.274032   -1.259689    0.272733
    124          1           0      -12.526403    1.136848    1.513533
    125          1           0      -13.897621   -0.292162   -0.624149
    126          1           0      -12.287377    0.209563   -1.132882
    127          1           0      -13.451511    1.475543   -0.522918
    128          1           0      -13.402614   -1.010370    2.715880
    129          1           0      -14.214281   -1.358424    1.197371
    130          1           0      -14.578473    1.328990    2.339668
    131          1           0      -15.429701    0.016331    3.198077
    132          1           0      -17.106458    0.109567    1.832601
    133          1           0      -16.166939   -0.554287    0.569663
    134          1           0      -15.552333    2.296518    0.540149
    135          1           0      -17.648912    3.373249    0.487028
    136          1           0      -17.591240    2.682198    2.103005
    137          1           0      -18.493915    1.882918    0.901890
    138          1           0      -15.795456    0.729470   -1.359399
    139          1           0      -16.745742    2.121525   -1.681768
    140          1           0      -17.533763    0.571855   -1.167866
 ---------------------------------------------------------------------

 SCF Done:  E(RPBE1PBE) =  -3005.32324182     A.U. after   16 cycles

 Excitation energies and oscillator strengths:

 Excited State   1:      Singlet-A      1.9110 eV  648.78 nm  f=0.3168  <S**2>=0.000
     245 -> 248        0.19194
     246 -> 247        0.68532
 This state for optimization and/or second-order correction.
 Total Energy, E(TD-HF/TD-DFT) =  -3005.25301208
 Copying the excited state density for this state as the 1-particle RhoCI density.

 Excited State   2:      Singlet-A      2.3316 eV  531.76 nm  f=0.0416  <S**2>=0.000
     245 -> 247        0.60169
     246 -> 248       -0.36177

 Excited State   3:      Singlet-A      3.0316 eV  408.98 nm  f=0.0012  <S**2>=0.000
     244 -> 247        0.67394
     244 -> 249       -0.12178

 Excited State   4:      Singlet-A      3.1744 eV  390.57 nm  f=0.0030  <S**2>=0.000
     241 -> 247        0.52936
     241 -> 249        0.18924
     243 -> 247       -0.39523

 Excited State   5:      Singlet-A      3.2121 eV  385.99 nm  f=0.0166  <S**2>=0.000
     241 -> 247        0.39348
     243 -> 247        0.53453
     246 -> 248        0.16970

 The electronic state is 1-A.
 Alpha  occ. eigenvalues --  -46.92608 -19.27002 -19.24815 -19.21127 -19.19996
 Alpha  occ. eigenvalues --  -19.19031 -19.19019 -14.42266 -14.41084 -14.39971
 Alpha  occ. eigenvalues --  -14.38758 -10.36871 -10.36233 -10.32562 -10.31920
 Alpha  occ. eigenvalues --  -10.29662 -10.29581 -10.29556 -10.29445 -10.29234
 Alpha  occ. eigenvalues --  -10.28594 -10.28274 -10.27382 -10.27125 -10.27024
 Alpha  occ. eigenvalues --  -10.26875 -10.26608 -10.26519 -10.26370 -10.25926
 Alpha  occ. eigenvalues --  -10.25811 -10.25742 -10.25673 -10.25316 -10.25245
 Alpha  occ. eigenvalues --  -10.25063 -10.24667 -10.24614 -10.24590 -10.24529
 Alpha  occ. eigenvalues --  -10.24444 -10.24156 -10.24076 -10.23987 -10.23672
 Alpha  occ. eigenvalues --  -10.23500 -10.23280 -10.23185 -10.23174 -10.23170
 Alpha  occ. eigenvalues --  -10.23145 -10.23123 -10.23113 -10.22825 -10.22356
 Alpha  occ. eigenvalues --  -10.22256 -10.22175 -10.22093 -10.22080 -10.22004
 Alpha  occ. eigenvalues --  -10.21950 -10.21937 -10.21800 -10.21753 -10.21582
 Alpha  occ. eigenvalues --  -10.21444  -3.14667  -1.87518  -1.87045  -1.86881
 Alpha  occ. eigenvalues --   -1.12679  -1.11835  -1.05355  -1.04703  -1.04411
 Alpha  occ. eigenvalues --   -1.03588  -1.01039  -0.99668  -0.97424  -0.96335
 Alpha  occ. eigenvalues --   -0.86461  -0.84459  -0.83850  -0.83364  -0.83320
 Alpha  occ. eigenvalues --   -0.82869  -0.82498  -0.81937  -0.81222  -0.81178
 Alpha  occ. eigenvalues --   -0.80142  -0.79718  -0.78681  -0.78405  -0.77691
 Alpha  occ. eigenvalues --   -0.76731  -0.76317  -0.75523  -0.75370  -0.74650
 Alpha  occ. eigenvalues --   -0.74169  -0.72239  -0.71811  -0.71522  -0.70698
 Alpha  occ. eigenvalues --   -0.70429  -0.69833  -0.69403  -0.68770  -0.68451
 Alpha  occ. eigenvalues --   -0.67682  -0.67330  -0.66733  -0.64975  -0.64179
 Alpha  occ. eigenvalues --   -0.63423  -0.63160  -0.61644  -0.61210  -0.60243
 Alpha  occ. eigenvalues --   -0.60189  -0.60072  -0.59417  -0.58969  -0.58032
 Alpha  occ. eigenvalues --   -0.57769  -0.57372  -0.57013  -0.56777  -0.54663
 Alpha  occ. eigenvalues --   -0.54396  -0.54233  -0.53565  -0.53410  -0.52636
 Alpha  occ. eigenvalues --   -0.52140  -0.51965  -0.50776  -0.50226  -0.50155
 Alpha  occ. eigenvalues --   -0.50046  -0.49825  -0.49650  -0.49418  -0.48556
 Alpha  occ. eigenvalues --   -0.48227  -0.48089  -0.47935  -0.47835  -0.47300
 Alpha  occ. eigenvalues --   -0.47039  -0.46943  -0.46782  -0.46556  -0.46403
 Alpha  occ. eigenvalues --   -0.46098  -0.45986  -0.45620  -0.45575  -0.45378
 Alpha  occ. eigenvalues --   -0.45339  -0.45036  -0.44646  -0.44552  -0.44271
 Alpha  occ. eigenvalues --   -0.44135  -0.43973  -0.43722  -0.43646  -0.43483
 Alpha  occ. eigenvalues --   -0.43183  -0.43024  -0.42831  -0.42639  -0.42185
 Alpha  occ. eigenvalues --   -0.42151  -0.41843  -0.41718  -0.41590  -0.41422
 Alpha  occ. eigenvalues --   -0.41333  -0.41191  -0.41046  -0.40739  -0.40652
 Alpha  occ. eigenvalues --   -0.40488  -0.40238  -0.40003  -0.39746  -0.39636
 Alpha  occ. eigenvalues --   -0.39431  -0.39290  -0.39187  -0.38888  -0.38706
 Alpha  occ. eigenvalues --   -0.38595  -0.38459  -0.38386  -0.38271  -0.38017
 Alpha  occ. eigenvalues --   -0.37836  -0.37751  -0.37519  -0.37348  -0.37315
 Alpha  occ. eigenvalues --   -0.37151  -0.36952  -0.36752  -0.36318  -0.36234
 Alpha  occ. eigenvalues --   -0.35637  -0.35517  -0.35452  -0.35268  -0.35073
 Alpha  occ. eigenvalues --   -0.34553  -0.34412  -0.34096  -0.34002  -0.33539
 Alpha  occ. eigenvalues --   -0.33348  -0.33245  -0.32649  -0.32642  -0.32531
 Alpha  occ. eigenvalues --   -0.32327  -0.31973  -0.31848  -0.31520  -0.31119
 Alpha  occ. eigenvalues --   -0.30972  -0.30353  -0.29918  -0.29763  -0.29603
 Alpha  occ. eigenvalues --   -0.29557  -0.28843  -0.28657  -0.26817  -0.26048
 Alpha  occ. eigenvalues --   -0.25670  -0.25473  -0.25284  -0.24890  -0.21250
 Alpha  occ. eigenvalues --   -0.18572
 Alpha virt. eigenvalues --   -0.10594  -0.05831  -0.03898  -0.02027  -0.00234
 Alpha virt. eigenvalues --   -0.00051   0.00151   0.01025   0.01261   0.02513
 Alpha virt. eigenvalues --    0.03796   0.04313   0.05201   0.05260   0.05421

 Mulliken charges:
               1
     1  Mg   0.967273
     2  C   -0.039822
     3  C   -0.085013
     4  C   -0.065995
     5  C   -0.068654
     6  N   -0.409121
     7  C    0.034450
     8  C   -0.062269
     9  C   -0.113081
    10  C    0.023441
    11  C    0.007538
    12  C    0.002869
    13  C   -0.018425
    14  C    0.199571
    15  O   -0.204404
    16  O   -0.397373
    17  N   -0.530197
    18  C    0.248900
    19  C   -0.168035
    20  C   -0.077935
    21  C    0.155454
    22  C    0.053492
    23  C    0.028151
    24  O   -0.232310
    25  C   -0.030272
    26  N   -0.287498
    27  C    0.117664
    28  C   -0.205517
    29  C   -0.047169
    30  C   -0.013907
    31  C    0.036981
    32  C   -0.052541
    33  C   -0.081490
    34  N   -0.468010
    35  C    0.155465
    36  C   -0.200631
    37  C    0.012686
    38  C    0.127359
    39  C    0.059689
    40  C    0.132947
    41  O   -0.207479
    42  C   -0.105409
    43  C    0.275982
    44  O   -0.238044
    45  O   -0.356728
    46  C    0.122011
    47  C    0.250280
    48  C   -0.150917
    49  C   -0.199724
    50  C    0.010227
    51  C    0.007221
    52  C   -0.039361
    53  C    0.001510
    54  C   -0.170259
    55  C    0.004130
    56  C   -0.060933
    57  C    0.000680
    58  C    0.005918
    59  C   -0.227778
    60  C    0.017754
    61  C   -0.036846
    62  C   -0.017249
    63  C    0.017154
    64  C   -0.245380
    65  C   -0.043683
    66  C   -0.033707
    67  H    0.006880
    68  H   -0.022554
    69  H   -0.004555
    70  H    0.057023
    71  H    0.063999
    72  H    0.055240
    73  H    0.047431
    74  H    0.043096
    75  H    0.060408
    76  H    0.060562
    77  H    0.057354
    78  H    0.057079
    79  H    0.064758
    80  H    0.039892
    81  H    0.072806
    82  H    0.078603
    83  H    0.057908
    84  H    0.066150
    85  H    0.043870
    86  H    0.033995
    87  H    0.047489
    88  H    0.050661
    89  H    0.048410
    90  H    0.042725
    91  H    0.053918
    92  H    0.054163
    93  H    0.073730
    94  H    0.035286
    95  H    0.063437
    96  H    0.023920
    97  H    0.053578
    98  H    0.068546
    99  H    0.054579
   100  H    0.054785
   101  H    0.065041
   102  H    0.056483
   103  H    0.056450
   104  H    0.025591
   105  H    0.025635
   106  H    0.053552
   107  H    0.052479
   108  H    0.019006
   109  H    0.053903
   110  H    0.043017
   111  H    0.036456
   112  H    0.012800
   113  H    0.018132
   114  H    0.029070
   115  H    0.023502
   116  H    0.022738
   117  H    0.041701
   118  H    0.010378
   119  H    0.015366
   120  H    0.004917
   121  H    0.029448
   122  H    0.012869
   123  H    0.011855
   124  H    0.025352
   125  H    0.039285
   126  H    0.036286
   127  H    0.050897
   128  H    0.029049
   129  H    0.026347
   130  H    0.030144
   131  H    0.028853
   132  H    0.019960
   133  H    0.018881
   134  H    0.040830
   135  H    0.031738
   136  H    0.031071
   137  H    0.023420
   138  H    0.021807
   139  H    0.034653
   140  H    0.042239
 Sum of Mulliken charges =  -0.00000

 Dipole moment (field-independent basis, Debye):
    X=             -0.6224    Y=              3.1173    Z=             -0.9354  Tot=              3.3135
 Quadrupole moment (field-independent basis, Debye-Ang):
   XX=           -379.6049   YY=           -437.6793   ZZ=           -392.7970
   XY=             34.3461   XZ=             18.7342   YZ=             31.9614

 Normal termination of Gaussian 16 at Wed May  4 15:09:29 2022.
