 Gaussian 16, Revision A.03,
 Gaussian 16:  ES64L-G16RevA.03 25-Dec-2016

 --------------------------------
 #p wB97XD/Def2SVP td=(nstates=5)
 --------------------------------

 ----------------------------------------------------
 step_1851_chromophore_5 TDDFT with wB97XD functional
 ----------------------------------------------------
 Symbolic Z-matrix:
 Charge =  0 Multiplicity = 1

                         Standard orientation:
 ---------------------------------------------------------------------
 Center     Atomic      Atomic             Coordinates (Angstroms)
 Number     Number       Type             X           Y           Z
 ---------------------------------------------------------------------
      1         12           0        5.844923    0.614818   -0.325817
      2          6           0        4.599028   -2.673288   -0.001747
      3          6           0        3.079588    1.552041   -2.061732
      4          6           0        7.003843    3.784714   -0.110561
      5          6           0        8.342634   -0.182986    2.026539
      6          7           0        4.021535   -0.455144   -0.938117
      7          6           0        3.727060   -1.824772   -0.755511
      8          6           0        2.377272   -2.176097   -1.396665
      9          6           0        1.997397   -0.831170   -2.145362
     10          6           0        3.093813    0.124781   -1.765811
     11          6           0        1.907808   -0.973314   -3.732981
     12          6           0        1.255818   -2.560177   -0.337955
     13          6           0        0.374709   -3.794039   -0.692414
     14          6           0       -1.158916   -3.686806   -0.438244
     15          8           0       -1.834177   -4.394325    0.234748
     16          8           0       -1.669700   -2.686545   -1.272107
     17          7           0        5.142370    2.434989   -1.004171
     18          6           0        3.958976    2.538542   -1.724671
     19          6           0        3.774538    4.001734   -2.051403
     20          6           0        4.936622    4.711207   -1.519770
     21          6           0        5.774658    3.639701   -0.819384
     22          6           0        2.543434    4.510892   -2.695894
     23          6           0        5.089081    6.227820   -1.559943
     24          8           0        4.306470    6.831056   -2.265096
     25          6           0        6.266700    7.018031   -0.906703
     26          7           0        7.523558    1.604037    0.824120
     27          6           0        7.827756    2.859136    0.513179
     28          6           0        8.993786    3.385060    1.382774
     29          6           0        9.242640    2.185931    2.433216
     30          6           0        8.343594    1.168065    1.716599
     31          6           0       10.223338    3.844199    0.553400
     32          6           0        8.924733    2.393665    3.958754
     33          6           0        7.412531    2.621415    4.298502
     34          7           0        6.505706   -1.067305    0.655343
     35          6           0        7.422128   -1.174690    1.653254
     36          6           0        7.532337   -2.538948    2.025933
     37          6           0        6.552517   -3.157381    1.348682
     38          6           0        5.785929   -2.188249    0.685725
     39          6           0        8.449912   -3.180636    3.056760
     40          6           0        5.899917   -4.407027    1.118318
     41          8           0        6.111237   -5.465692    1.673621
     42          6           0        4.573675   -4.164820    0.144823
     43          6           0        4.589262   -4.970563   -1.075264
     44          8           0        5.479766   -4.952143   -1.886120
     45          8           0        3.370906   -5.513542   -1.288264
     46          6           0        3.255731   -6.289384   -2.535265
     47          6           0       -3.068432   -2.581291   -1.518093
     48          6           0       -3.519991   -1.501948   -0.567412
     49          6           0       -4.760284   -1.087644   -0.247729
     50          6           0       -6.035366   -1.678229   -0.870966
     51          6           0       -5.048470    0.025373    0.751627
     52          6           0       -5.725090    1.335601    0.239920
     53          6           0       -7.110944    1.474695    0.846145
     54          6           0       -8.280251    1.460857   -0.227274
     55          6           0       -9.139295    2.696991   -0.384935
     56          6           0       -9.140892    0.174669    0.033162
     57          6           0      -10.000892    0.042554    1.290096
     58          6           0      -11.357836   -0.613385    1.146444
     59          6           0      -12.689997    0.186573    1.006445
     60          6           0      -13.109802    0.442035   -0.457170
     61          6           0      -13.795447   -0.557277    1.805797
     62          6           0      -14.985886    0.322678    2.251013
     63          6           0      -16.181202    0.273007    1.280724
     64          6           0      -16.354509    1.560130    0.481734
     65          6           0      -17.566326    2.438139    1.040770
     66          6           0      -16.692687    1.251380   -1.027260
     67          1           0        2.132089    1.713364   -2.581130
     68          1           0        7.366107    4.807975   -0.229849
     69          1           0        9.055327   -0.496576    2.792007
     70          1           0        2.586959   -3.037011   -2.031935
     71          1           0        1.140332   -0.356986   -1.668138
     72          1           0        0.900044   -0.730093   -4.070383
     73          1           0        2.297220   -1.919450   -4.109772
     74          1           0        2.556223   -0.249216   -4.227656
     75          1           0        0.445908   -1.830838   -0.319814
     76          1           0        1.681199   -2.700374    0.655987
     77          1           0        0.680231   -4.669755   -0.118924
     78          1           0        0.581740   -4.095985   -1.718709
     79          1           0        1.863186    4.592941   -1.848378
     80          1           0        2.182119    3.754287   -3.392210
     81          1           0        2.539664    5.428703   -3.283942
     82          1           0        7.245970    6.697402   -1.260580
     83          1           0        6.212046    6.713224    0.138926
     84          1           0        6.068776    8.065552   -1.135627
     85          1           0        8.599897    4.240258    1.931495
     86          1           0       10.314176    1.990373    2.418538
     87          1           0       11.117725    3.641657    1.142261
     88          1           0        9.971984    4.885881    0.351345
     89          1           0       10.280246    3.285181   -0.380468
     90          1           0        9.410709    3.361594    4.085652
     91          1           0        9.223563    1.589383    4.629924
     92          1           0        7.375724    2.372543    5.359843
     93          1           0        6.769781    2.112908    3.579942
     94          1           0        7.297037    3.689282    4.110816
     95          1           0        7.897090   -3.360620    3.978833
     96          1           0        9.355761   -2.624041    3.297220
     97          1           0        8.937116   -4.110147    2.762635
     98          1           0        3.701776   -4.436899    0.739743
     99          1           0        3.990768   -7.094397   -2.545832
    100          1           0        3.532908   -5.716750   -3.420759
    101          1           0        2.318487   -6.819989   -2.706639
    102          1           0       -3.525123   -3.557379   -1.354217
    103          1           0       -3.235771   -2.353485   -2.569976
    104          1           0       -2.710591   -0.949756   -0.089777
    105          1           0       -5.768595   -2.505129   -1.528020
    106          1           0       -6.701319   -0.955273   -1.342760
    107          1           0       -6.711681   -2.097604   -0.125311
    108          1           0       -4.065188    0.417948    1.012612
    109          1           0       -5.505992   -0.437733    1.625680
    110          1           0       -5.693607    1.435699   -0.844804
    111          1           0       -5.169547    2.157441    0.691196
    112          1           0       -7.291090    2.377214    1.430480
    113          1           0       -7.153817    0.766688    1.673123
    114          1           0       -7.785320    1.235493   -1.172582
    115          1           0      -10.171510    2.510978   -0.682293
    116          1           0       -8.866541    3.242669   -1.288397
    117          1           0       -9.205439    3.439116    0.411076
    118          1           0       -8.488210   -0.698526    0.038467
    119          1           0       -9.743640    0.003566   -0.858653
    120          1           0      -10.270990    1.067749    1.541607
    121          1           0       -9.405122   -0.233341    2.159759
    122          1           0      -11.532799   -1.308649    1.967789
    123          1           0      -11.274032   -1.259689    0.272733
    124          1           0      -12.526403    1.136848    1.513533
    125          1           0      -13.897621   -0.292162   -0.624149
    126          1           0      -12.287377    0.209563   -1.132882
    127          1           0      -13.451511    1.475543   -0.522918
    128          1           0      -13.402614   -1.010370    2.715880
    129          1           0      -14.214281   -1.358424    1.197371
    130          1           0      -14.578473    1.328990    2.339668
    131          1           0      -15.429701    0.016331    3.198077
    132          1           0      -17.106458    0.109567    1.832601
    133          1           0      -16.166939   -0.554287    0.569663
    134          1           0      -15.552333    2.296518    0.540149
    135          1           0      -17.648912    3.373249    0.487028
    136          1           0      -17.591240    2.682198    2.103005
    137          1           0      -18.493915    1.882918    0.901890
    138          1           0      -15.795456    0.729470   -1.359399
    139          1           0      -16.745742    2.121525   -1.681768
    140          1           0      -17.533763    0.571855   -1.167866
 ---------------------------------------------------------------------

 SCF Done:  E(RwB97XD) =  -3007.83760827     A.U. after   19 cycles

 Excitation energies and oscillator strengths:

 Excited State   1:      Singlet-A      1.7404 eV  712.37 nm  f=0.3256  <S**2>=0.000
     245 -> 248        0.19791
     246 -> 247        0.67888
     245 <- 248        0.11694
 This state for optimization and/or second-order correction.
 Total Energy, E(TD-HF/TD-DFT) =  -3007.77364820
 Copying the excited state density for this state as the 1-particle RhoCI density.

 Excited State   2:      Singlet-A      2.2806 eV  543.64 nm  f=0.0308  <S**2>=0.000
     245 -> 247        0.57819
     246 -> 248       -0.39537

 Excited State   3:      Singlet-A      3.4528 eV  359.08 nm  f=0.7389  <S**2>=0.000
     243 -> 247        0.25412
     244 -> 247       -0.12522
     245 -> 247        0.34038
     246 -> 248        0.54074
     245 <- 247       -0.10407

 Excited State   4:      Singlet-A      3.5663 eV  347.66 nm  f=0.0072  <S**2>=0.000
     241 -> 250        0.10418
     243 -> 247        0.39259
     244 -> 247        0.50872
     244 -> 249       -0.15135
     244 -> 250        0.10353

 Excited State   5:      Singlet-A      3.6327 eV  341.30 nm  f=0.0013  <S**2>=0.000
     240 -> 247        0.50546
     240 -> 248        0.10008
     240 -> 249        0.40079
     240 -> 250        0.19763

 The electronic state is 1-A.
 Alpha  occ. eigenvalues --  -46.95568 -19.31550 -19.29353 -19.25812 -19.24675
 Alpha  occ. eigenvalues --  -19.24040 -19.23571 -14.47409 -14.46158 -14.45040
 Alpha  occ. eigenvalues --  -14.43564 -10.43638 -10.43027 -10.39564 -10.38553
 Alpha  occ. eigenvalues --  -10.36173 -10.36165 -10.36075 -10.35936 -10.35574
 Alpha  occ. eigenvalues --  -10.35372 -10.34753 -10.33971 -10.33383 -10.33272
 Alpha  occ. eigenvalues --  -10.33219 -10.32884 -10.32441 -10.32407 -10.32359
 Alpha  occ. eigenvalues --  -10.32052 -10.32046 -10.31991 -10.31807 -10.31638
 Alpha  occ. eigenvalues --  -10.31460 -10.31112 -10.31017 -10.30974 -10.30870
 Alpha  occ. eigenvalues --  -10.30782 -10.30492 -10.30484 -10.30299 -10.29967
 Alpha  occ. eigenvalues --  -10.29888 -10.29747 -10.29608 -10.29582 -10.29563
 Alpha  occ. eigenvalues --  -10.29539 -10.29492 -10.29386 -10.29148 -10.28727
 Alpha  occ. eigenvalues --  -10.28625 -10.28555 -10.28535 -10.28489 -10.28439
 Alpha  occ. eigenvalues --  -10.28379 -10.28357 -10.28203 -10.28190 -10.27888
 Alpha  occ. eigenvalues --  -10.27587  -3.21492  -1.95090  -1.94617  -1.94453
 Alpha  occ. eigenvalues --   -1.20037  -1.19194  -1.13022  -1.11944  -1.11735
 Alpha  occ. eigenvalues --   -1.10909  -1.08313  -1.06755  -1.04959  -1.03941
 Alpha  occ. eigenvalues --   -0.93972  -0.92155  -0.91538  -0.91049  -0.90975
 Alpha  occ. eigenvalues --   -0.90411  -0.90182  -0.89547  -0.88869  -0.88644
 Alpha  occ. eigenvalues --   -0.87938  -0.87456  -0.86330  -0.85986  -0.85358
 Alpha  occ. eigenvalues --   -0.84389  -0.84057  -0.83164  -0.83123  -0.82313
 Alpha  occ. eigenvalues --   -0.81812  -0.79818  -0.79492  -0.79217  -0.78301
 Alpha  occ. eigenvalues --   -0.78137  -0.77413  -0.77118  -0.76493  -0.76121
 Alpha  occ. eigenvalues --   -0.75272  -0.74856  -0.74285  -0.72595  -0.71680
 Alpha  occ. eigenvalues --   -0.71083  -0.70659  -0.69245  -0.68860  -0.67756
 Alpha  occ. eigenvalues --   -0.67733  -0.67631  -0.66932  -0.66367  -0.65511
 Alpha  occ. eigenvalues --   -0.65474  -0.64736  -0.64658  -0.64426  -0.62173
 Alpha  occ. eigenvalues --   -0.61835  -0.61658  -0.60987  -0.60804  -0.60012
 Alpha  occ. eigenvalues --   -0.59586  -0.59437  -0.58260  -0.57672  -0.57583
 Alpha  occ. eigenvalues --   -0.57418  -0.57243  -0.57024  -0.56838  -0.56000
 Alpha  occ. eigenvalues --   -0.55632  -0.55385  -0.55312  -0.55177  -0.54708
 Alpha  occ. eigenvalues --   -0.54556  -0.54328  -0.54056  -0.53944  -0.53829
 Alpha  occ. eigenvalues --   -0.53691  -0.53262  -0.53037  -0.52963  -0.52706
 Alpha  occ. eigenvalues --   -0.52584  -0.52375  -0.52250  -0.51830  -0.51585
 Alpha  occ. eigenvalues --   -0.51444  -0.51296  -0.51089  -0.50962  -0.50814
 Alpha  occ. eigenvalues --   -0.50457  -0.50339  -0.50107  -0.49948  -0.49513
 Alpha  occ. eigenvalues --   -0.49400  -0.49093  -0.49009  -0.48895  -0.48686
 Alpha  occ. eigenvalues --   -0.48662  -0.48509  -0.48321  -0.47963  -0.47841
 Alpha  occ. eigenvalues --   -0.47663  -0.47404  -0.47132  -0.46992  -0.46754
 Alpha  occ. eigenvalues --   -0.46650  -0.46504  -0.46380  -0.45941  -0.45911
 Alpha  occ. eigenvalues --   -0.45696  -0.45531  -0.45503  -0.45357  -0.45146
 Alpha  occ. eigenvalues --   -0.44936  -0.44880  -0.44806  -0.44552  -0.44494
 Alpha  occ. eigenvalues --   -0.44253  -0.43951  -0.43889  -0.43449  -0.43375
 Alpha  occ. eigenvalues --   -0.42639  -0.42539  -0.42477  -0.42279  -0.42191
 Alpha  occ. eigenvalues --   -0.41499  -0.41400  -0.41122  -0.41100  -0.40574
 Alpha  occ. eigenvalues --   -0.40341  -0.40307  -0.39694  -0.39679  -0.39464
 Alpha  occ. eigenvalues --   -0.39370  -0.38943  -0.38847  -0.38533  -0.38120
 Alpha  occ. eigenvalues --   -0.37978  -0.37333  -0.36866  -0.36816  -0.36518
 Alpha  occ. eigenvalues --   -0.36475  -0.35778  -0.35304  -0.33396  -0.33007
 Alpha  occ. eigenvalues --   -0.32601  -0.32217  -0.32160  -0.31506  -0.26334
 Alpha  occ. eigenvalues --   -0.22717
 Alpha virt. eigenvalues --   -0.06280  -0.00553   0.02397   0.04580   0.05904
 Alpha virt. eigenvalues --    0.06604   0.06817   0.07748   0.07913   0.09003
 Alpha virt. eigenvalues --    0.10267   0.11191   0.11817   0.12046   0.12136

 Mulliken charges:
               1
     1  Mg   0.958072
     2  C   -0.043429
     3  C   -0.108483
     4  C   -0.076667
     5  C   -0.082669
     6  N   -0.378334
     7  C    0.002741
     8  C   -0.032794
     9  C   -0.085911
    10  C    0.012409
    11  C    0.017029
    12  C    0.018396
    13  C   -0.005472
    14  C    0.191891
    15  O   -0.201550
    16  O   -0.396601
    17  N   -0.499577
    18  C    0.249789
    19  C   -0.155697
    20  C   -0.073979
    21  C    0.153298
    22  C    0.065781
    23  C    0.023096
    24  O   -0.228210
    25  C   -0.015072
    26  N   -0.248468
    27  C    0.102364
    28  C   -0.176894
    29  C   -0.028069
    30  C   -0.032033
    31  C    0.046479
    32  C   -0.037017
    33  C   -0.062037
    34  N   -0.434917
    35  C    0.148449
    36  C   -0.197878
    37  C    0.022153
    38  C    0.110380
    39  C    0.068860
    40  C    0.109057
    41  O   -0.201115
    42  C   -0.064390
    43  C    0.252188
    44  O   -0.232496
    45  O   -0.354350
    46  C    0.136791
    47  C    0.261758
    48  C   -0.158723
    49  C   -0.184709
    50  C    0.025467
    51  C    0.027346
    52  C   -0.024914
    53  C    0.013606
    54  C   -0.137122
    55  C    0.013135
    56  C   -0.032701
    57  C    0.019502
    58  C    0.021097
    59  C   -0.199627
    60  C    0.033637
    61  C   -0.016546
    62  C   -0.001802
    63  C    0.029973
    64  C   -0.217014
    65  C   -0.030411
    66  C   -0.014413
    67  H    0.000879
    68  H   -0.039438
    69  H   -0.013025
    70  H    0.037756
    71  H    0.054851
    72  H    0.051054
    73  H    0.043848
    74  H    0.036050
    75  H    0.046843
    76  H    0.053637
    77  H    0.051931
    78  H    0.049798
    79  H    0.060475
    80  H    0.034547
    81  H    0.072041
    82  H    0.074994
    83  H    0.051992
    84  H    0.065907
    85  H    0.031867
    86  H    0.024347
    87  H    0.042712
    88  H    0.044708
    89  H    0.042913
    90  H    0.032474
    91  H    0.047660
    92  H    0.049491
    93  H    0.063459
    94  H    0.027108
    95  H    0.057625
    96  H    0.017639
    97  H    0.048654
    98  H    0.060514
    99  H    0.050044
   100  H    0.050624
   101  H    0.062314
   102  H    0.052085
   103  H    0.052891
   104  H    0.020500
   105  H    0.020749
   106  H    0.042079
   107  H    0.046613
   108  H    0.011201
   109  H    0.046313
   110  H    0.035112
   111  H    0.029891
   112  H    0.004954
   113  H    0.005707
   114  H    0.015073
   115  H    0.015828
   116  H    0.017677
   117  H    0.036960
   118  H   -0.009152
   119  H    0.003739
   120  H   -0.010482
   121  H    0.023936
   122  H    0.004670
   123  H    0.000830
   124  H    0.011394
   125  H    0.028622
   126  H    0.029347
   127  H    0.044265
   128  H    0.021129
   129  H    0.014677
   130  H    0.018959
   131  H    0.023257
   132  H    0.012617
   133  H    0.008567
   134  H    0.028173
   135  H    0.025826
   136  H    0.025301
   137  H    0.015210
   138  H    0.008317
   139  H    0.029869
   140  H    0.036355
 Sum of Mulliken charges =  -0.00000

 Dipole moment (field-independent basis, Debye):
    X=             -0.9112    Y=              3.6717    Z=             -1.3395  Tot=              4.0133
 Quadrupole moment (field-independent basis, Debye-Ang):
   XX=           -382.3721   YY=           -435.7136   ZZ=           -392.6128
   XY=             37.1057   XZ=             16.2677   YZ=             31.6300

 Normal termination of Gaussian 16 at Wed May  4 15:43:30 2022.
