 Gaussian 16, Revision A.03,
 Gaussian 16:  ES64L-G16RevA.03 25-Dec-2016

 --------------------
 #p ZINDO=(nstates=5)
 --------------------

 -----------------------------
 step_1851_chromophore_5 ZINDO
 -----------------------------
 Symbolic Z-matrix:
 Charge =  0 Multiplicity = 1

                         Standard orientation:
 ---------------------------------------------------------------------
 Center     Atomic      Atomic             Coordinates (Angstroms)
 Number     Number       Type             X           Y           Z
 ---------------------------------------------------------------------
      1         12           0        5.844923    0.614818   -0.325817
      2          6           0        4.599028   -2.673288   -0.001747
      3          6           0        3.079588    1.552041   -2.061732
      4          6           0        7.003843    3.784714   -0.110561
      5          6           0        8.342634   -0.182986    2.026539
      6          7           0        4.021535   -0.455144   -0.938117
      7          6           0        3.727060   -1.824772   -0.755511
      8          6           0        2.377272   -2.176097   -1.396665
      9          6           0        1.997397   -0.831170   -2.145362
     10          6           0        3.093813    0.124781   -1.765811
     11          6           0        1.907808   -0.973314   -3.732981
     12          6           0        1.255818   -2.560177   -0.337955
     13          6           0        0.374709   -3.794039   -0.692414
     14          6           0       -1.158916   -3.686806   -0.438244
     15          8           0       -1.834177   -4.394325    0.234748
     16          8           0       -1.669700   -2.686545   -1.272107
     17          7           0        5.142370    2.434989   -1.004171
     18          6           0        3.958976    2.538542   -1.724671
     19          6           0        3.774538    4.001734   -2.051403
     20          6           0        4.936622    4.711207   -1.519770
     21          6           0        5.774658    3.639701   -0.819384
     22          6           0        2.543434    4.510892   -2.695894
     23          6           0        5.089081    6.227820   -1.559943
     24          8           0        4.306470    6.831056   -2.265096
     25          6           0        6.266700    7.018031   -0.906703
     26          7           0        7.523558    1.604037    0.824120
     27          6           0        7.827756    2.859136    0.513179
     28          6           0        8.993786    3.385060    1.382774
     29          6           0        9.242640    2.185931    2.433216
     30          6           0        8.343594    1.168065    1.716599
     31          6           0       10.223338    3.844199    0.553400
     32          6           0        8.924733    2.393665    3.958754
     33          6           0        7.412531    2.621415    4.298502
     34          7           0        6.505706   -1.067305    0.655343
     35          6           0        7.422128   -1.174690    1.653254
     36          6           0        7.532337   -2.538948    2.025933
     37          6           0        6.552517   -3.157381    1.348682
     38          6           0        5.785929   -2.188249    0.685725
     39          6           0        8.449912   -3.180636    3.056760
     40          6           0        5.899917   -4.407027    1.118318
     41          8           0        6.111237   -5.465692    1.673621
     42          6           0        4.573675   -4.164820    0.144823
     43          6           0        4.589262   -4.970563   -1.075264
     44          8           0        5.479766   -4.952143   -1.886120
     45          8           0        3.370906   -5.513542   -1.288264
     46          6           0        3.255731   -6.289384   -2.535265
     47          6           0       -3.068432   -2.581291   -1.518093
     48          6           0       -3.519991   -1.501948   -0.567412
     49          6           0       -4.760284   -1.087644   -0.247729
     50          6           0       -6.035366   -1.678229   -0.870966
     51          6           0       -5.048470    0.025373    0.751627
     52          6           0       -5.725090    1.335601    0.239920
     53          6           0       -7.110944    1.474695    0.846145
     54          6           0       -8.280251    1.460857   -0.227274
     55          6           0       -9.139295    2.696991   -0.384935
     56          6           0       -9.140892    0.174669    0.033162
     57          6           0      -10.000892    0.042554    1.290096
     58          6           0      -11.357836   -0.613385    1.146444
     59          6           0      -12.689997    0.186573    1.006445
     60          6           0      -13.109802    0.442035   -0.457170
     61          6           0      -13.795447   -0.557277    1.805797
     62          6           0      -14.985886    0.322678    2.251013
     63          6           0      -16.181202    0.273007    1.280724
     64          6           0      -16.354509    1.560130    0.481734
     65          6           0      -17.566326    2.438139    1.040770
     66          6           0      -16.692687    1.251380   -1.027260
     67          1           0        2.132089    1.713364   -2.581130
     68          1           0        7.366107    4.807975   -0.229849
     69          1           0        9.055327   -0.496576    2.792007
     70          1           0        2.586959   -3.037011   -2.031935
     71          1           0        1.140332   -0.356986   -1.668138
     72          1           0        0.900044   -0.730093   -4.070383
     73          1           0        2.297220   -1.919450   -4.109772
     74          1           0        2.556223   -0.249216   -4.227656
     75          1           0        0.445908   -1.830838   -0.319814
     76          1           0        1.681199   -2.700374    0.655987
     77          1           0        0.680231   -4.669755   -0.118924
     78          1           0        0.581740   -4.095985   -1.718709
     79          1           0        1.863186    4.592941   -1.848378
     80          1           0        2.182119    3.754287   -3.392210
     81          1           0        2.539664    5.428703   -3.283942
     82          1           0        7.245970    6.697402   -1.260580
     83          1           0        6.212046    6.713224    0.138926
     84          1           0        6.068776    8.065552   -1.135627
     85          1           0        8.599897    4.240258    1.931495
     86          1           0       10.314176    1.990373    2.418538
     87          1           0       11.117725    3.641657    1.142261
     88          1           0        9.971984    4.885881    0.351345
     89          1           0       10.280246    3.285181   -0.380468
     90          1           0        9.410709    3.361594    4.085652
     91          1           0        9.223563    1.589383    4.629924
     92          1           0        7.375724    2.372543    5.359843
     93          1           0        6.769781    2.112908    3.579942
     94          1           0        7.297037    3.689282    4.110816
     95          1           0        7.897090   -3.360620    3.978833
     96          1           0        9.355761   -2.624041    3.297220
     97          1           0        8.937116   -4.110147    2.762635
     98          1           0        3.701776   -4.436899    0.739743
     99          1           0        3.990768   -7.094397   -2.545832
    100          1           0        3.532908   -5.716750   -3.420759
    101          1           0        2.318487   -6.819989   -2.706639
    102          1           0       -3.525123   -3.557379   -1.354217
    103          1           0       -3.235771   -2.353485   -2.569976
    104          1           0       -2.710591   -0.949756   -0.089777
    105          1           0       -5.768595   -2.505129   -1.528020
    106          1           0       -6.701319   -0.955273   -1.342760
    107          1           0       -6.711681   -2.097604   -0.125311
    108          1           0       -4.065188    0.417948    1.012612
    109          1           0       -5.505992   -0.437733    1.625680
    110          1           0       -5.693607    1.435699   -0.844804
    111          1           0       -5.169547    2.157441    0.691196
    112          1           0       -7.291090    2.377214    1.430480
    113          1           0       -7.153817    0.766688    1.673123
    114          1           0       -7.785320    1.235493   -1.172582
    115          1           0      -10.171510    2.510978   -0.682293
    116          1           0       -8.866541    3.242669   -1.288397
    117          1           0       -9.205439    3.439116    0.411076
    118          1           0       -8.488210   -0.698526    0.038467
    119          1           0       -9.743640    0.003566   -0.858653
    120          1           0      -10.270990    1.067749    1.541607
    121          1           0       -9.405122   -0.233341    2.159759
    122          1           0      -11.532799   -1.308649    1.967789
    123          1           0      -11.274032   -1.259689    0.272733
    124          1           0      -12.526403    1.136848    1.513533
    125          1           0      -13.897621   -0.292162   -0.624149
    126          1           0      -12.287377    0.209563   -1.132882
    127          1           0      -13.451511    1.475543   -0.522918
    128          1           0      -13.402614   -1.010370    2.715880
    129          1           0      -14.214281   -1.358424    1.197371
    130          1           0      -14.578473    1.328990    2.339668
    131          1           0      -15.429701    0.016331    3.198077
    132          1           0      -17.106458    0.109567    1.832601
    133          1           0      -16.166939   -0.554287    0.569663
    134          1           0      -15.552333    2.296518    0.540149
    135          1           0      -17.648912    3.373249    0.487028
    136          1           0      -17.591240    2.682198    2.103005
    137          1           0      -18.493915    1.882918    0.901890
    138          1           0      -15.795456    0.729470   -1.359399
    139          1           0      -16.745742    2.121525   -1.681768
    140          1           0      -17.533763    0.571855   -1.167866
 ---------------------------------------------------------------------

 SCF Done:  E(RZINDO/S) =  -474.271683829     A.U. after   19 cycles

 Excitation energies and oscillator strengths:

 Excited State   1:      Singlet-A      1.3464 eV  920.84 nm  f=0.5182  <S**2>=0.000
     175 ->178        -0.18733
     176 ->177         0.66512
 This state for optimization and/or second-order correction.
 Total Energy, E(CIS/TDA) =  -474.222203493
 Copying the excited state density for this state as the 1-particle RhoCI density.

 Excited State   2:      Singlet-A      1.9184 eV  646.29 nm  f=0.0037  <S**2>=0.000
     175 ->177         0.44841
     176 ->178         0.52500

 Excited State   3:      Singlet-A      2.9496 eV  420.34 nm  f=0.0832  <S**2>=0.000
     170 ->180         0.16148
     174 ->177        -0.12363
     176 ->179         0.52214
     176 ->180        -0.26043

 Excited State   4:      Singlet-A      3.0058 eV  412.49 nm  f=0.3767  <S**2>=0.000
     170 ->177        -0.13943
     170 ->179         0.16316
     170 ->180        -0.22923
     170 ->185        -0.12875
     174 ->177         0.16341
     174 ->180         0.11030
     175 ->177         0.26011
     176 ->178        -0.23687
     176 ->179         0.32023

 Excited State   5:      Singlet-A      3.0334 eV  408.73 nm  f=0.9164  <S**2>=0.000
     170 ->177         0.13891
     170 ->179        -0.14301
     170 ->180         0.21142
     170 ->185         0.11499
     175 ->177         0.41024
     176 ->178        -0.35564
     176 ->180         0.11327

 The electronic state is 1-A.
 Alpha  occ. eigenvalues --   -1.87055  -1.81925  -1.78417  -1.74228  -1.74075
 Alpha  occ. eigenvalues --   -1.70057  -1.65856  -1.61718  -1.59752  -1.58237
 Alpha  occ. eigenvalues --   -1.54133  -1.50794  -1.47857  -1.47339  -1.46789
 Alpha  occ. eigenvalues --   -1.45164  -1.44082  -1.41184  -1.38578  -1.38424
 Alpha  occ. eigenvalues --   -1.35359  -1.32951  -1.32852  -1.31036  -1.29141
 Alpha  occ. eigenvalues --   -1.27356  -1.26810  -1.22676  -1.19790  -1.17942
 Alpha  occ. eigenvalues --   -1.16989  -1.16807  -1.15722  -1.14036  -1.13469
 Alpha  occ. eigenvalues --   -1.12835  -1.10204  -1.09807  -1.05484  -1.04861
 Alpha  occ. eigenvalues --   -1.02579  -1.01653  -1.00527  -0.98983  -0.97990
 Alpha  occ. eigenvalues --   -0.96829  -0.94757  -0.94016  -0.93192  -0.92307
 Alpha  occ. eigenvalues --   -0.91609  -0.90324  -0.88458  -0.88171  -0.87004
 Alpha  occ. eigenvalues --   -0.84943  -0.84698  -0.83903  -0.81710  -0.80089
 Alpha  occ. eigenvalues --   -0.80027  -0.79498  -0.77250  -0.76787  -0.75872
 Alpha  occ. eigenvalues --   -0.75751  -0.74940  -0.74732  -0.74456  -0.73915
 Alpha  occ. eigenvalues --   -0.73649  -0.73505  -0.72533  -0.72131  -0.71152
 Alpha  occ. eigenvalues --   -0.69933  -0.69687  -0.69071  -0.69027  -0.68090
 Alpha  occ. eigenvalues --   -0.67288  -0.67003  -0.66685  -0.66244  -0.65139
 Alpha  occ. eigenvalues --   -0.65034  -0.64861  -0.64283  -0.64059  -0.63512
 Alpha  occ. eigenvalues --   -0.63028  -0.62741  -0.62667  -0.62431  -0.62193
 Alpha  occ. eigenvalues --   -0.61766  -0.61286  -0.61061  -0.60630  -0.60427
 Alpha  occ. eigenvalues --   -0.59620  -0.59026  -0.58862  -0.58272  -0.57741
 Alpha  occ. eigenvalues --   -0.57655  -0.57223  -0.57121  -0.57003  -0.56595
 Alpha  occ. eigenvalues --   -0.56338  -0.56223  -0.55859  -0.55560  -0.54879
 Alpha  occ. eigenvalues --   -0.54736  -0.54468  -0.53474  -0.53344  -0.52996
 Alpha  occ. eigenvalues --   -0.52707  -0.52429  -0.52229  -0.51748  -0.51466
 Alpha  occ. eigenvalues --   -0.51286  -0.51136  -0.50808  -0.50518  -0.50221
 Alpha  occ. eigenvalues --   -0.50064  -0.49821  -0.49570  -0.49341  -0.49201
 Alpha  occ. eigenvalues --   -0.48631  -0.48402  -0.48244  -0.48183  -0.47984
 Alpha  occ. eigenvalues --   -0.47912  -0.47385  -0.47083  -0.47076  -0.46849
 Alpha  occ. eigenvalues --   -0.46503  -0.46299  -0.46184  -0.46026  -0.45938
 Alpha  occ. eigenvalues --   -0.45135  -0.44824  -0.44783  -0.44375  -0.44073
 Alpha  occ. eigenvalues --   -0.43942  -0.43088  -0.42463  -0.42433  -0.42172
 Alpha  occ. eigenvalues --   -0.41762  -0.41581  -0.41240  -0.39547  -0.39150
 Alpha  occ. eigenvalues --   -0.38466  -0.37453  -0.35784  -0.34592  -0.34388
 Alpha  occ. eigenvalues --   -0.33437  -0.32837  -0.32551  -0.31542  -0.27082
 Alpha  occ. eigenvalues --   -0.21562
 Alpha virt. eigenvalues --   -0.07691  -0.02855  -0.00640   0.01399   0.01801
 Alpha virt. eigenvalues --    0.02019   0.02323   0.02829   0.04463   0.04806
 Alpha virt. eigenvalues --    0.06183   0.06266   0.06650   0.07130   0.07779

 Mulliken charges:
               1
     1  Mg   0.429633
     2  C   -0.034725
     3  C   -0.081696
     4  C   -0.094305
     5  C   -0.069841
     6  N   -0.287660
     7  C    0.075578
     8  C    0.006766
     9  C    0.009352
    10  C    0.162863
    11  C   -0.051026
    12  C   -0.028981
    13  C   -0.001834
    14  C    0.468419
    15  O   -0.482159
    16  O   -0.299085
    17  N   -0.328687
    18  C    0.135931
    19  C    0.062936
    20  C   -0.064583
    21  C    0.130890
    22  C   -0.028366
    23  C    0.321973
    24  O   -0.516565
    25  C   -0.029798
    26  N   -0.252250
    27  C    0.141665
    28  C   -0.008497
    29  C   -0.009257
    30  C    0.112726
    31  C   -0.050819
    32  C   -0.037776
    33  C   -0.068395
    34  N   -0.299431
    35  C    0.075687
    36  C    0.024823
    37  C   -0.039808
    38  C    0.091571
    39  C   -0.044188
    40  C    0.321166
    41  O   -0.516948
    42  C    0.055656
    43  C    0.498168
    44  O   -0.513805
    45  O   -0.265309
    46  C    0.069172
    47  C    0.116130
    48  C   -0.077493
    49  C   -0.010466
    50  C   -0.052473
    51  C   -0.024604
    52  C   -0.025465
    53  C   -0.039665
    54  C   -0.002860
    55  C   -0.052387
    56  C   -0.034896
    57  C   -0.031082
    58  C   -0.033368
    59  C   -0.008342
    60  C   -0.059417
    61  C   -0.033267
    62  C   -0.037994
    63  C   -0.026703
    64  C   -0.012712
    65  C   -0.068363
    66  C   -0.063210
    67  H    0.028144
    68  H    0.020083
    69  H    0.016752
    70  H    0.042677
    71  H    0.045704
    72  H    0.025351
    73  H    0.032409
    74  H    0.020231
    75  H    0.030635
    76  H    0.035048
    77  H    0.030745
    78  H    0.040708
    79  H    0.040164
    80  H    0.018208
    81  H    0.049616
    82  H    0.041471
    83  H    0.035559
    84  H    0.047332
    85  H    0.024040
    86  H    0.025584
    87  H    0.029131
    88  H    0.025097
    89  H    0.025983
    90  H    0.018359
    91  H    0.035126
    92  H    0.029565
    93  H    0.037319
    94  H    0.013926
    95  H    0.032032
    96  H    0.012773
    97  H    0.032138
    98  H    0.043699
    99  H    0.038483
   100  H    0.042683
   101  H    0.037177
   102  H    0.051969
   103  H    0.039900
   104  H    0.029579
   105  H    0.017805
   106  H    0.032211
   107  H    0.023972
   108  H    0.008394
   109  H    0.039140
   110  H    0.031606
   111  H    0.014622
   112  H    0.010170
   113  H    0.023967
   114  H    0.018064
   115  H    0.014717
   116  H    0.008417
   117  H    0.026117
   118  H    0.008248
   119  H    0.009363
   120  H    0.004323
   121  H    0.026384
   122  H    0.012273
   123  H    0.009762
   124  H    0.017959
   125  H    0.025301
   126  H    0.022897
   127  H    0.026321
   128  H    0.014402
   129  H    0.018680
   130  H    0.022354
   131  H    0.017744
   132  H    0.014973
   133  H    0.020614
   134  H    0.027697
   135  H    0.013517
   136  H    0.016441
   137  H    0.011363
   138  H    0.006742
   139  H    0.019960
   140  H    0.027538
 Sum of Mulliken charges =  -0.00000

 Dipole moment (field-independent basis, Debye):
    X=             -2.4775    Y=              6.2947    Z=             -1.9110  Tot=              7.0294
 N-N= 4.246768677653D+03 E-N= 0.000000000000D+00  KE=-9.167313136001D+03
 Leave Link  601 at Wed May  4 15:55:54 2022, MaxMem=  6710886400 cpu:               0.8 elap:               0.0
 (Enter /sw/apps/gaussian-16.0/g16/l9999.exe)
 1\1\GINC-BP1-COMPUTE128\SP\RZINDO CIS\STO-3G\C55H74Mg1N4O6\OF15641\04-
 May-2022\0\\#p ZINDO=(nstates=5)\\step_1851_chromophore_5 ZINDO\\0,1\M
 g,0,25.311,-7.388,47.424\C,0,27.763,-5.005,46.542\C,0,23.216,-6.203,45
 .027\C,0,23.316,-10.03,48.115\C,0,27.722,-9.02,49.407\N,0,25.495,-5.78
 5,45.927\C,0,26.567,-4.879,45.766\C,0,26.26,-3.874,44.647\C,0,24.755,-
 4.218,44.286\C,0,24.432,-5.408,45.146\C,0,23.729,-3.029,44.573\C,0,27.
 192,-4.045,43.371\C,0,27.745,-2.73,42.747\C,0,27.732,-2.603,41.194\O,0

 Normal termination of Gaussian 16 at Wed May  4 15:55:54 2022.
