 Gaussian 16, Revision A.03,
 Gaussian 16:  ES64L-G16RevA.03 25-Dec-2016

 ------------------------------
 #p blyp/Def2SVP td=(nstates=5)
 ------------------------------

 ---------------------------------------------------
 step_1401_chromophore_11 TDDFT with blyp functional
 ---------------------------------------------------
 Symbolic Z-matrix:
 Charge =  0 Multiplicity = 1

                         Standard orientation:
 ---------------------------------------------------------------------
 Center     Atomic      Atomic             Coordinates (Angstroms)
 Number     Number       Type             X           Y           Z
 ---------------------------------------------------------------------
      1         12           0       -4.696835    1.411621    0.756186
      2          6           0       -5.730702   -1.966594    0.087889
      3          6           0       -1.883091    0.106302    2.392137
      4          6           0       -3.256623    4.334460    0.493149
      5          6           0       -7.303350    2.451399   -1.545271
      6          7           0       -3.856629   -0.730499    0.968717
      7          6           0       -4.480593   -1.913646    0.743839
      8          6           0       -3.710835   -3.083093    1.334863
      9          6           0       -2.667355   -2.333184    2.323168
     10          6           0       -2.795256   -0.859023    1.878096
     11          6           0       -2.876712   -2.660815    3.832235
     12          6           0       -3.083066   -3.910908    0.145075
     13          6           0       -1.757341   -3.416889   -0.457171
     14          6           0       -0.529496   -4.316036   -0.273602
     15          8           0       -0.089245   -5.283676   -0.958576
     16          8           0        0.095662   -3.870991    0.854670
     17          7           0       -2.892952    2.154377    1.427665
     18          6           0       -1.884889    1.534727    2.183490
     19          6           0       -0.974898    2.475098    2.666057
     20          6           0       -1.366182    3.741761    2.093930
     21          6           0       -2.551937    3.503452    1.269953
     22          6           0        0.094869    2.152254    3.831892
     23          6           0       -0.673702    5.086152    2.449727
     24          8           0        0.306800    5.148444    3.241875
     25          6           0       -1.269110    6.401218    1.887377
     26          7           0       -5.183054    3.172477   -0.428778
     27          6           0       -4.394902    4.244032   -0.265671
     28          6           0       -4.988281    5.436265   -0.972468
     29          6           0       -6.357244    4.835946   -1.584829
     30          6           0       -6.249599    3.397369   -1.263221
     31          6           0       -5.219563    6.702176   -0.058287
     32          6           0       -6.521829    5.071792   -3.100794
     33          6           0       -7.691857    6.063751   -3.387959
     34          7           0       -6.372409    0.488019   -0.302790
     35          6           0       -7.303029    1.109096   -1.111099
     36          6           0       -8.210017    0.098337   -1.529109
     37          6           0       -7.697953   -1.150161   -1.018992
     38          6           0       -6.525744   -0.849484   -0.342719
     39          6           0       -9.424797    0.291184   -2.373982
     40          6           0       -7.832948   -2.614510   -0.996192
     41          8           0       -8.746017   -3.289801   -1.489718
     42          6           0       -6.654549   -3.223690   -0.121010
     43          6           0       -6.173092   -4.410780   -0.930421
     44          8           0       -5.799717   -4.410083   -2.081457
     45          8           0       -6.408325   -5.508432   -0.124037
     46          6           0       -6.055327   -6.767562   -0.843572
     47          6           0        1.455280   -4.523045    1.146832
     48          6           0        2.561406   -3.944600    0.319051
     49          6           0        3.928077   -4.151885    0.374009
     50          6           0        4.558616   -5.181528    1.286217
     51          6           0        4.780001   -3.415888   -0.613240
     52          6           0        5.735106   -2.426057   -0.083339
     53          6           0        6.541213   -1.693265   -1.142091
     54          6           0        6.377772   -0.143214   -0.922598
     55          6           0        6.398316    0.609731   -2.322135
     56          6           0        7.530526    0.502968   -0.066723
     57          6           0        8.926463    0.680233   -0.704570
     58          6           0       10.141226   -0.048012   -0.041848
     59          6           0       11.232610    0.864263    0.488344
     60          6           0       10.610995    1.950527    1.411578
     61          6           0       12.106602    1.395951   -0.701224
     62          6           0       13.414919    0.473147   -0.918385
     63          6           0       14.690175    1.037133   -0.321776
     64          6           0       15.971174    1.126379   -1.114064
     65          6           0       15.718702    2.114697   -2.265971
     66          6           0       16.407570   -0.187623   -1.578658
     67          1           0       -1.154873   -0.326970    3.081728
     68          1           0       -2.777622    5.305995    0.352500
     69          1           0       -8.030495    2.768917   -2.295226
     70          1           0       -4.375212   -3.729462    1.907261
     71          1           0       -1.613912   -2.588256    2.210371
     72          1           0       -3.835904   -3.165811    3.941295
     73          1           0       -2.829188   -1.768904    4.456326
     74          1           0       -2.074949   -3.324169    4.157795
     75          1           0       -3.791988   -3.978990   -0.680613
     76          1           0       -2.901885   -4.901240    0.561746
     77          1           0       -1.524529   -2.440088   -0.033496
     78          1           0       -1.923740   -3.168527   -1.504984
     79          1           0       -0.352756    2.587124    4.725844
     80          1           0        1.159878    2.368495    3.739368
     81          1           0        0.120906    1.068432    3.949269
     82          1           0       -0.690293    7.244099    2.267299
     83          1           0       -2.283696    6.500627    2.272299
     84          1           0       -1.168130    6.396540    0.802079
     85          1           0       -4.311067    5.913493   -1.679939
     86          1           0       -7.196745    5.239705   -1.018741
     87          1           0       -5.019875    6.459363    0.985275
     88          1           0       -6.224715    7.013674   -0.341720
     89          1           0       -4.536745    7.475191   -0.410354
     90          1           0       -6.556284    4.192686   -3.744867
     91          1           0       -5.596307    5.564771   -3.397468
     92          1           0       -8.584161    5.540084   -3.731508
     93          1           0       -7.416393    6.838877   -4.102913
     94          1           0       -7.795896    6.660804   -2.481667
     95          1           0       -9.164273    0.376972   -3.429640
     96          1           0       -9.964337    1.183710   -2.055054
     97          1           0      -10.044381   -0.569805   -2.126165
     98          1           0       -7.143584   -3.561631    0.791627
     99          1           0       -6.441533   -7.708864   -0.452209
    100          1           0       -4.974491   -6.866290   -0.941462
    101          1           0       -6.456156   -6.685521   -1.854159
    102          1           0        1.459607   -5.611759    1.199783
    103          1           0        1.698547   -4.194689    2.157217
    104          1           0        2.312975   -3.183857   -0.421694
    105          1           0        5.202824   -5.835318    0.700031
    106          1           0        3.790841   -5.659377    1.895330
    107          1           0        5.162184   -4.544400    1.933674
    108          1           0        4.253527   -2.834221   -1.370770
    109          1           0        5.379289   -4.116278   -1.194456
    110          1           0        6.435021   -2.993555    0.530757
    111          1           0        5.206226   -1.682178    0.513439
    112          1           0        6.198700   -2.023353   -2.122454
    113          1           0        7.583856   -1.988604   -1.020813
    114          1           0        5.413690    0.015629   -0.438635
    115          1           0        6.703110    1.650652   -2.214862
    116          1           0        5.330801    0.613427   -2.542972
    117          1           0        6.902815    0.018164   -3.086980
    118          1           0        7.655255   -0.017345    0.882965
    119          1           0        7.089039    1.468679    0.180963
    120          1           0        9.188264    1.716657   -0.916556
    121          1           0        8.760361    0.239391   -1.687528
    122          1           0       10.507612   -0.851639   -0.681138
    123          1           0        9.697071   -0.553312    0.816065
    124          1           0       11.937893    0.235121    1.032717
    125          1           0       10.920187    2.879837    0.932638
    126          1           0       11.079861    1.728066    2.369172
    127          1           0        9.533650    1.858024    1.551606
    128          1           0       12.522032    2.381855   -0.494997
    129          1           0       11.526708    1.425472   -1.623655
    130          1           0       13.423376    0.271918   -1.989460
    131          1           0       13.146221   -0.465473   -0.434191
    132          1           0       14.917156    0.304003    0.452411
    133          1           0       14.575072    2.071856    0.000916
    134          1           0       16.576588    1.723350   -0.431878
    135          1           0       16.211842    3.073168   -2.100519
    136          1           0       14.670107    2.412265   -2.283916
    137          1           0       15.970725    1.733461   -3.256075
    138          1           0       17.145681   -0.539121   -0.858471
    139          1           0       16.907954   -0.152306   -2.545727
    140          1           0       15.588233   -0.904836   -1.617319
 ---------------------------------------------------------------------

 SCF Done:  E(RB-LYP) =  -3007.34703171     A.U. after   22 cycles

 Excitation energies and oscillator strengths:

 Excited State   1:      Singlet-A      1.7684 eV  701.10 nm  f=0.0113  <S**2>=0.000
     243 -> 247        0.57691
     245 -> 247        0.39580
 This state for optimization and/or second-order correction.
 Total Energy, E(TD-HF/TD-DFT) =  -3007.28204354
 Copying the excited state density for this state as the 1-particle RhoCI density.

 Excited State   2:      Singlet-A      1.7901 eV  692.61 nm  f=0.0048  <S**2>=0.000
     244 -> 247        0.70059

 Excited State   3:      Singlet-A      1.8177 eV  682.09 nm  f=0.2756  <S**2>=0.000
     245 -> 248        0.20551
     246 -> 247        0.67254
     246 <- 247       -0.13818

 Excited State   4:      Singlet-A      2.0023 eV  619.22 nm  f=0.0029  <S**2>=0.000
     242 -> 247        0.69148
     245 -> 247        0.10589

 Excited State   5:      Singlet-A      2.0149 eV  615.34 nm  f=0.0582  <S**2>=0.000
     240 -> 247        0.11400
     241 -> 247        0.12302
     242 -> 247       -0.14594
     243 -> 247       -0.37541
     245 -> 247        0.50110
     246 -> 248       -0.22079

 The electronic state is 1-A.
 Alpha  occ. eigenvalues --  -46.28526 -18.82981 -18.82642 -18.77360 -18.76672
 Alpha  occ. eigenvalues --  -18.75769 -18.75594 -14.03623 -14.03565 -14.01287
 Alpha  occ. eigenvalues --  -14.00731 -10.04430 -10.04189 -10.00465  -9.99768
 Alpha  occ. eigenvalues --   -9.98907  -9.97301  -9.97190  -9.97125  -9.97053
 Alpha  occ. eigenvalues --   -9.96678  -9.96088  -9.95959  -9.95574  -9.94821
 Alpha  occ. eigenvalues --   -9.94772  -9.94745  -9.94540  -9.94382  -9.94254
 Alpha  occ. eigenvalues --   -9.94170  -9.94070  -9.93958  -9.93819  -9.93565
 Alpha  occ. eigenvalues --   -9.93517  -9.93370  -9.93330  -9.93236  -9.93186
 Alpha  occ. eigenvalues --   -9.92884  -9.92827  -9.92698  -9.92675  -9.92550
 Alpha  occ. eigenvalues --   -9.92543  -9.92413  -9.92347  -9.92105  -9.91966
 Alpha  occ. eigenvalues --   -9.91391  -9.91363  -9.91111  -9.91081  -9.91010
 Alpha  occ. eigenvalues --   -9.90961  -9.90950  -9.90916  -9.90828  -9.90814
 Alpha  occ. eigenvalues --   -9.90710  -9.90629  -9.90621  -9.90466  -9.90333
 Alpha  occ. eigenvalues --   -9.90065  -2.92911  -1.73305  -1.72841  -1.72598
 Alpha  occ. eigenvalues --   -0.97758  -0.96888  -0.90628  -0.90188  -0.89371
 Alpha  occ. eigenvalues --   -0.87721  -0.86962  -0.86001  -0.85165  -0.84399
 Alpha  occ. eigenvalues --   -0.74830  -0.74107  -0.73431  -0.73211  -0.72452
 Alpha  occ. eigenvalues --   -0.72392  -0.72147  -0.71078  -0.70923  -0.70019
 Alpha  occ. eigenvalues --   -0.69170  -0.68702  -0.68355  -0.67758  -0.67354
 Alpha  occ. eigenvalues --   -0.66281  -0.65930  -0.65295  -0.65161  -0.64535
 Alpha  occ. eigenvalues --   -0.63593  -0.62596  -0.62362  -0.61485  -0.60725
 Alpha  occ. eigenvalues --   -0.60533  -0.60516  -0.60191  -0.59437  -0.58691
 Alpha  occ. eigenvalues --   -0.58269  -0.57773  -0.57387  -0.55877  -0.55097
 Alpha  occ. eigenvalues --   -0.54368  -0.53650  -0.53154  -0.52873  -0.52346
 Alpha  occ. eigenvalues --   -0.51730  -0.51186  -0.50941  -0.50367  -0.49265
 Alpha  occ. eigenvalues --   -0.48562  -0.48520  -0.47251  -0.46703  -0.46673
 Alpha  occ. eigenvalues --   -0.46326  -0.46120  -0.45527  -0.45311  -0.44514
 Alpha  occ. eigenvalues --   -0.44078  -0.43623  -0.43175  -0.43025  -0.42743
 Alpha  occ. eigenvalues --   -0.42150  -0.41936  -0.41881  -0.41514  -0.41190
 Alpha  occ. eigenvalues --   -0.40817  -0.40610  -0.40489  -0.40453  -0.40250
 Alpha  occ. eigenvalues --   -0.40003  -0.39779  -0.39674  -0.39460  -0.39302
 Alpha  occ. eigenvalues --   -0.39030  -0.38753  -0.38698  -0.38586  -0.38365
 Alpha  occ. eigenvalues --   -0.38082  -0.37928  -0.37651  -0.37573  -0.37487
 Alpha  occ. eigenvalues --   -0.37393  -0.37135  -0.37104  -0.36937  -0.36530
 Alpha  occ. eigenvalues --   -0.36459  -0.36315  -0.36145  -0.35912  -0.35732
 Alpha  occ. eigenvalues --   -0.35330  -0.35131  -0.34915  -0.34761  -0.34739
 Alpha  occ. eigenvalues --   -0.34689  -0.34482  -0.34187  -0.34133  -0.33871
 Alpha  occ. eigenvalues --   -0.33786  -0.33607  -0.33474  -0.33343  -0.33241
 Alpha  occ. eigenvalues --   -0.32893  -0.32721  -0.32488  -0.32181  -0.32101
 Alpha  occ. eigenvalues --   -0.32008  -0.31893  -0.31766  -0.31374  -0.31143
 Alpha  occ. eigenvalues --   -0.30959  -0.30788  -0.30761  -0.30666  -0.30577
 Alpha  occ. eigenvalues --   -0.30418  -0.30294  -0.30096  -0.30004  -0.29907
 Alpha  occ. eigenvalues --   -0.29661  -0.29601  -0.29479  -0.29256  -0.28968
 Alpha  occ. eigenvalues --   -0.28937  -0.28534  -0.28368  -0.28131  -0.28085
 Alpha  occ. eigenvalues --   -0.27502  -0.27190  -0.26985  -0.26598  -0.26321
 Alpha  occ. eigenvalues --   -0.26180  -0.25638  -0.25556  -0.25428  -0.25235
 Alpha  occ. eigenvalues --   -0.25080  -0.24869  -0.24603  -0.24501  -0.24336
 Alpha  occ. eigenvalues --   -0.23161  -0.22780  -0.22127  -0.21340  -0.20367
 Alpha  occ. eigenvalues --   -0.19912  -0.19471  -0.18695  -0.18607  -0.17625
 Alpha  occ. eigenvalues --   -0.16515
 Alpha virt. eigenvalues --   -0.12112  -0.07819  -0.06144  -0.04935  -0.04092
 Alpha virt. eigenvalues --   -0.03640  -0.02849  -0.01983  -0.01730  -0.00521
 Alpha virt. eigenvalues --    0.00663   0.01565   0.01917   0.02200   0.02973

 Mulliken charges:
               1
     1  Mg   0.677992
     2  C    0.036123
     3  C   -0.057047
     4  C   -0.040459
     5  C   -0.090298
     6  N   -0.199873
     7  C   -0.098677
     8  C    0.046305
     9  C   -0.041179
    10  C    0.038154
    11  C    0.125383
    12  C    0.089909
    13  C    0.127156
    14  C    0.105833
    15  O   -0.219589
    16  O   -0.277019
    17  N   -0.346774
    18  C    0.150664
    19  C   -0.119029
    20  C    0.023063
    21  C    0.173786
    22  C    0.161929
    23  C   -0.068351
    24  O   -0.190628
    25  C    0.120586
    26  N   -0.213108
    27  C    0.012109
    28  C   -0.031603
    29  C    0.044177
    30  C    0.000526
    31  C    0.115238
    32  C    0.095758
    33  C    0.061338
    34  N   -0.236011
    35  C    0.155728
    36  C   -0.211168
    37  C    0.102941
    38  C    0.049799
    39  C    0.184021
    40  C   -0.071611
    41  O   -0.152579
    42  C    0.069458
    43  C    0.119165
    44  O   -0.166905
    45  O   -0.277513
    46  C    0.215211
    47  C    0.333581
    48  C   -0.105433
    49  C   -0.166241
    50  C    0.173637
    51  C    0.123491
    52  C    0.050021
    53  C    0.129223
    54  C   -0.103388
    55  C    0.103033
    56  C    0.086409
    57  C    0.057085
    58  C    0.103542
    59  C   -0.082993
    60  C    0.128909
    61  C    0.084184
    62  C    0.037825
    63  C    0.083487
    64  C   -0.052301
    65  C    0.083935
    66  C    0.147555
    67  H   -0.053211
    68  H   -0.089520
    69  H   -0.048492
    70  H   -0.025977
    71  H   -0.009490
    72  H   -0.009410
    73  H   -0.008757
    74  H   -0.008083
    75  H    0.020818
    76  H   -0.011884
    77  H   -0.003248
    78  H   -0.000982
    79  H    0.016886
    80  H    0.014108
    81  H   -0.037773
    82  H   -0.013515
    83  H    0.016248
    84  H    0.030172
    85  H   -0.016170
    86  H   -0.007406
    87  H    0.009128
    88  H   -0.009249
    89  H   -0.013987
    90  H   -0.008501
    91  H   -0.035484
    92  H    0.010391
    93  H   -0.016169
    94  H   -0.017484
    95  H    0.012948
    96  H   -0.012980
    97  H    0.012179
    98  H    0.008538
    99  H    0.015468
   100  H    0.010762
   101  H    0.021322
   102  H    0.021836
   103  H   -0.002117
   104  H   -0.032387
   105  H    0.006846
   106  H   -0.018946
   107  H   -0.002274
   108  H   -0.038291
   109  H   -0.035240
   110  H   -0.040945
   111  H   -0.030011
   112  H   -0.037065
   113  H   -0.031276
   114  H   -0.027598
   115  H   -0.011447
   116  H   -0.024745
   117  H    0.004759
   118  H   -0.038618
   119  H   -0.032131
   120  H   -0.022592
   121  H   -0.038901
   122  H   -0.038889
   123  H   -0.046580
   124  H   -0.039830
   125  H   -0.012691
   126  H   -0.013415
   127  H   -0.004183
   128  H   -0.035833
   129  H   -0.029627
   130  H   -0.030700
   131  H   -0.028106
   132  H   -0.040872
   133  H   -0.029172
   134  H   -0.043484
   135  H   -0.025439
   136  H   -0.025570
   137  H   -0.021209
   138  H   -0.021813
   139  H   -0.022449
   140  H   -0.008684
 Sum of Mulliken charges =  -0.00000

 Dipole moment (field-independent basis, Debye):
    X=              0.2031    Y=              3.0736    Z=              2.4907  Tot=              3.9613
 Quadrupole moment (field-independent basis, Debye-Ang):
   XX=           -409.4184   YY=           -392.5058   ZZ=           -410.6159
   XY=            -49.9561   XZ=            -13.9283   YZ=            -38.4735

 Normal termination of Gaussian 16 at Wed May  4 05:48:14 2022.
