 Gaussian 16, Revision A.03,
 Gaussian 16:  ES64L-G16RevA.03 25-Dec-2016

 -----------------------------------
 #p cam-b3lyp/Def2SVP td=(nstates=5)
 -----------------------------------

 --------------------------------------------------------
 step_1401_chromophore_11 TDDFT with cam-b3lyp functional
 --------------------------------------------------------
 Symbolic Z-matrix:
 Charge =  0 Multiplicity = 1

                         Standard orientation:
 ---------------------------------------------------------------------
 Center     Atomic      Atomic             Coordinates (Angstroms)
 Number     Number       Type             X           Y           Z
 ---------------------------------------------------------------------
      1         12           0       -4.696835    1.411621    0.756186
      2          6           0       -5.730702   -1.966594    0.087889
      3          6           0       -1.883091    0.106302    2.392137
      4          6           0       -3.256623    4.334460    0.493149
      5          6           0       -7.303350    2.451399   -1.545271
      6          7           0       -3.856629   -0.730499    0.968717
      7          6           0       -4.480593   -1.913646    0.743839
      8          6           0       -3.710835   -3.083093    1.334863
      9          6           0       -2.667355   -2.333184    2.323168
     10          6           0       -2.795256   -0.859023    1.878096
     11          6           0       -2.876712   -2.660815    3.832235
     12          6           0       -3.083066   -3.910908    0.145075
     13          6           0       -1.757341   -3.416889   -0.457171
     14          6           0       -0.529496   -4.316036   -0.273602
     15          8           0       -0.089245   -5.283676   -0.958576
     16          8           0        0.095662   -3.870991    0.854670
     17          7           0       -2.892952    2.154377    1.427665
     18          6           0       -1.884889    1.534727    2.183490
     19          6           0       -0.974898    2.475098    2.666057
     20          6           0       -1.366182    3.741761    2.093930
     21          6           0       -2.551937    3.503452    1.269953
     22          6           0        0.094869    2.152254    3.831892
     23          6           0       -0.673702    5.086152    2.449727
     24          8           0        0.306800    5.148444    3.241875
     25          6           0       -1.269110    6.401218    1.887377
     26          7           0       -5.183054    3.172477   -0.428778
     27          6           0       -4.394902    4.244032   -0.265671
     28          6           0       -4.988281    5.436265   -0.972468
     29          6           0       -6.357244    4.835946   -1.584829
     30          6           0       -6.249599    3.397369   -1.263221
     31          6           0       -5.219563    6.702176   -0.058287
     32          6           0       -6.521829    5.071792   -3.100794
     33          6           0       -7.691857    6.063751   -3.387959
     34          7           0       -6.372409    0.488019   -0.302790
     35          6           0       -7.303029    1.109096   -1.111099
     36          6           0       -8.210017    0.098337   -1.529109
     37          6           0       -7.697953   -1.150161   -1.018992
     38          6           0       -6.525744   -0.849484   -0.342719
     39          6           0       -9.424797    0.291184   -2.373982
     40          6           0       -7.832948   -2.614510   -0.996192
     41          8           0       -8.746017   -3.289801   -1.489718
     42          6           0       -6.654549   -3.223690   -0.121010
     43          6           0       -6.173092   -4.410780   -0.930421
     44          8           0       -5.799717   -4.410083   -2.081457
     45          8           0       -6.408325   -5.508432   -0.124037
     46          6           0       -6.055327   -6.767562   -0.843572
     47          6           0        1.455280   -4.523045    1.146832
     48          6           0        2.561406   -3.944600    0.319051
     49          6           0        3.928077   -4.151885    0.374009
     50          6           0        4.558616   -5.181528    1.286217
     51          6           0        4.780001   -3.415888   -0.613240
     52          6           0        5.735106   -2.426057   -0.083339
     53          6           0        6.541213   -1.693265   -1.142091
     54          6           0        6.377772   -0.143214   -0.922598
     55          6           0        6.398316    0.609731   -2.322135
     56          6           0        7.530526    0.502968   -0.066723
     57          6           0        8.926463    0.680233   -0.704570
     58          6           0       10.141226   -0.048012   -0.041848
     59          6           0       11.232610    0.864263    0.488344
     60          6           0       10.610995    1.950527    1.411578
     61          6           0       12.106602    1.395951   -0.701224
     62          6           0       13.414919    0.473147   -0.918385
     63          6           0       14.690175    1.037133   -0.321776
     64          6           0       15.971174    1.126379   -1.114064
     65          6           0       15.718702    2.114697   -2.265971
     66          6           0       16.407570   -0.187623   -1.578658
     67          1           0       -1.154873   -0.326970    3.081728
     68          1           0       -2.777622    5.305995    0.352500
     69          1           0       -8.030495    2.768917   -2.295226
     70          1           0       -4.375212   -3.729462    1.907261
     71          1           0       -1.613912   -2.588256    2.210371
     72          1           0       -3.835904   -3.165811    3.941295
     73          1           0       -2.829188   -1.768904    4.456326
     74          1           0       -2.074949   -3.324169    4.157795
     75          1           0       -3.791988   -3.978990   -0.680613
     76          1           0       -2.901885   -4.901240    0.561746
     77          1           0       -1.524529   -2.440088   -0.033496
     78          1           0       -1.923740   -3.168527   -1.504984
     79          1           0       -0.352756    2.587124    4.725844
     80          1           0        1.159878    2.368495    3.739368
     81          1           0        0.120906    1.068432    3.949269
     82          1           0       -0.690293    7.244099    2.267299
     83          1           0       -2.283696    6.500627    2.272299
     84          1           0       -1.168130    6.396540    0.802079
     85          1           0       -4.311067    5.913493   -1.679939
     86          1           0       -7.196745    5.239705   -1.018741
     87          1           0       -5.019875    6.459363    0.985275
     88          1           0       -6.224715    7.013674   -0.341720
     89          1           0       -4.536745    7.475191   -0.410354
     90          1           0       -6.556284    4.192686   -3.744867
     91          1           0       -5.596307    5.564771   -3.397468
     92          1           0       -8.584161    5.540084   -3.731508
     93          1           0       -7.416393    6.838877   -4.102913
     94          1           0       -7.795896    6.660804   -2.481667
     95          1           0       -9.164273    0.376972   -3.429640
     96          1           0       -9.964337    1.183710   -2.055054
     97          1           0      -10.044381   -0.569805   -2.126165
     98          1           0       -7.143584   -3.561631    0.791627
     99          1           0       -6.441533   -7.708864   -0.452209
    100          1           0       -4.974491   -6.866290   -0.941462
    101          1           0       -6.456156   -6.685521   -1.854159
    102          1           0        1.459607   -5.611759    1.199783
    103          1           0        1.698547   -4.194689    2.157217
    104          1           0        2.312975   -3.183857   -0.421694
    105          1           0        5.202824   -5.835318    0.700031
    106          1           0        3.790841   -5.659377    1.895330
    107          1           0        5.162184   -4.544400    1.933674
    108          1           0        4.253527   -2.834221   -1.370770
    109          1           0        5.379289   -4.116278   -1.194456
    110          1           0        6.435021   -2.993555    0.530757
    111          1           0        5.206226   -1.682178    0.513439
    112          1           0        6.198700   -2.023353   -2.122454
    113          1           0        7.583856   -1.988604   -1.020813
    114          1           0        5.413690    0.015629   -0.438635
    115          1           0        6.703110    1.650652   -2.214862
    116          1           0        5.330801    0.613427   -2.542972
    117          1           0        6.902815    0.018164   -3.086980
    118          1           0        7.655255   -0.017345    0.882965
    119          1           0        7.089039    1.468679    0.180963
    120          1           0        9.188264    1.716657   -0.916556
    121          1           0        8.760361    0.239391   -1.687528
    122          1           0       10.507612   -0.851639   -0.681138
    123          1           0        9.697071   -0.553312    0.816065
    124          1           0       11.937893    0.235121    1.032717
    125          1           0       10.920187    2.879837    0.932638
    126          1           0       11.079861    1.728066    2.369172
    127          1           0        9.533650    1.858024    1.551606
    128          1           0       12.522032    2.381855   -0.494997
    129          1           0       11.526708    1.425472   -1.623655
    130          1           0       13.423376    0.271918   -1.989460
    131          1           0       13.146221   -0.465473   -0.434191
    132          1           0       14.917156    0.304003    0.452411
    133          1           0       14.575072    2.071856    0.000916
    134          1           0       16.576588    1.723350   -0.431878
    135          1           0       16.211842    3.073168   -2.100519
    136          1           0       14.670107    2.412265   -2.283916
    137          1           0       15.970725    1.733461   -3.256075
    138          1           0       17.145681   -0.539121   -0.858471
    139          1           0       16.907954   -0.152306   -2.545727
    140          1           0       15.588233   -0.904836   -1.617319
 ---------------------------------------------------------------------

 SCF Done:  E(RCAM-B3LYP) =  -3007.12740593     A.U. after   17 cycles

 Excitation energies and oscillator strengths:

 Excited State   1:      Singlet-A      1.7131 eV  723.73 nm  f=0.3731  <S**2>=0.000
     245 -> 248        0.19025
     246 -> 247        0.68130
     245 <- 248        0.10810
 This state for optimization and/or second-order correction.
 Total Energy, E(TD-HF/TD-DFT) =  -3007.06444998
 Copying the excited state density for this state as the 1-particle RhoCI density.

 Excited State   2:      Singlet-A      2.1824 eV  568.11 nm  f=0.1121  <S**2>=0.000
     245 -> 247        0.63731
     246 -> 248       -0.28232

 Excited State   3:      Singlet-A      3.0576 eV  405.49 nm  f=0.0023  <S**2>=0.000
     243 -> 247        0.67640

 Excited State   4:      Singlet-A      3.2517 eV  381.29 nm  f=0.0068  <S**2>=0.000
     242 -> 247        0.65890
     246 -> 248        0.19138

 Excited State   5:      Singlet-A      3.4054 eV  364.08 nm  f=0.0615  <S**2>=0.000
     241 -> 247        0.55908
     241 -> 249       -0.23770
     241 -> 251       -0.17812
     243 -> 247       -0.10140
     246 -> 248        0.16840

 The electronic state is 1-A.
 Alpha  occ. eigenvalues --  -46.90220 -19.25869 -19.25597 -19.20487 -19.19549
 Alpha  occ. eigenvalues --  -19.19073 -19.18737 -14.42575 -14.42464 -14.39788
 Alpha  occ. eigenvalues --  -14.39032 -10.39719 -10.39675 -10.35866 -10.35099
 Alpha  occ. eigenvalues --  -10.33071 -10.31763 -10.31660 -10.31512 -10.31341
 Alpha  occ. eigenvalues --  -10.31157 -10.30550 -10.30340 -10.29759 -10.29148
 Alpha  occ. eigenvalues --  -10.28996 -10.28962 -10.28849 -10.28775 -10.28400
 Alpha  occ. eigenvalues --  -10.28236 -10.28205 -10.28086 -10.28017 -10.27958
 Alpha  occ. eigenvalues --  -10.27857 -10.27456 -10.27230 -10.27055 -10.27033
 Alpha  occ. eigenvalues --  -10.26945 -10.26751 -10.26739 -10.26594 -10.26396
 Alpha  occ. eigenvalues --  -10.26333 -10.26230 -10.26176 -10.26004 -10.25802
 Alpha  occ. eigenvalues --  -10.25171 -10.25126 -10.25024 -10.24770 -10.24724
 Alpha  occ. eigenvalues --  -10.24703 -10.24631 -10.24563 -10.24516 -10.24457
 Alpha  occ. eigenvalues --  -10.24399 -10.24244 -10.24215 -10.24089 -10.23862
 Alpha  occ. eigenvalues --  -10.23650  -3.18492  -1.93367  -1.92977  -1.92761
 Alpha  occ. eigenvalues --   -1.16342  -1.15221  -1.08786  -1.08299  -1.07754
 Alpha  occ. eigenvalues --   -1.05437  -1.04763  -1.03619  -1.02767  -1.01930
 Alpha  occ. eigenvalues --   -0.91904  -0.91036  -0.90275  -0.90024  -0.89196
 Alpha  occ. eigenvalues --   -0.89073  -0.88877  -0.87704  -0.87501  -0.86521
 Alpha  occ. eigenvalues --   -0.85523  -0.85159  -0.84759  -0.83973  -0.83527
 Alpha  occ. eigenvalues --   -0.82324  -0.82037  -0.81253  -0.81042  -0.80462
 Alpha  occ. eigenvalues --   -0.79358  -0.78150  -0.77967  -0.77094  -0.76123
 Alpha  occ. eigenvalues --   -0.75930  -0.75919  -0.75530  -0.74759  -0.73935
 Alpha  occ. eigenvalues --   -0.73311  -0.72764  -0.72352  -0.70735  -0.69730
 Alpha  occ. eigenvalues --   -0.69063  -0.68250  -0.67696  -0.67346  -0.66508
 Alpha  occ. eigenvalues --   -0.65962  -0.65169  -0.65047  -0.64447  -0.62977
 Alpha  occ. eigenvalues --   -0.62452  -0.62253  -0.61005  -0.60356  -0.60352
 Alpha  occ. eigenvalues --   -0.59822  -0.59548  -0.58958  -0.58779  -0.57964
 Alpha  occ. eigenvalues --   -0.57692  -0.56910  -0.56407  -0.56151  -0.56017
 Alpha  occ. eigenvalues --   -0.55328  -0.55076  -0.54802  -0.54596  -0.54269
 Alpha  occ. eigenvalues --   -0.53517  -0.53392  -0.53168  -0.53089  -0.52848
 Alpha  occ. eigenvalues --   -0.52712  -0.52532  -0.52390  -0.52121  -0.51811
 Alpha  occ. eigenvalues --   -0.51684  -0.51268  -0.51201  -0.50996  -0.50683
 Alpha  occ. eigenvalues --   -0.50659  -0.50352  -0.50026  -0.49975  -0.49813
 Alpha  occ. eigenvalues --   -0.49620  -0.49383  -0.49270  -0.49220  -0.48886
 Alpha  occ. eigenvalues --   -0.48684  -0.48493  -0.48318  -0.48294  -0.47875
 Alpha  occ. eigenvalues --   -0.47809  -0.47281  -0.47093  -0.47007  -0.46581
 Alpha  occ. eigenvalues --   -0.46528  -0.46458  -0.46265  -0.46078  -0.45699
 Alpha  occ. eigenvalues --   -0.45549  -0.45441  -0.45085  -0.44993  -0.44859
 Alpha  occ. eigenvalues --   -0.44699  -0.44550  -0.44141  -0.43981  -0.43712
 Alpha  occ. eigenvalues --   -0.43607  -0.43418  -0.43244  -0.43085  -0.42653
 Alpha  occ. eigenvalues --   -0.42396  -0.42239  -0.42178  -0.42126  -0.42043
 Alpha  occ. eigenvalues --   -0.41886  -0.41832  -0.41583  -0.41561  -0.41159
 Alpha  occ. eigenvalues --   -0.41079  -0.40846  -0.40654  -0.40432  -0.40153
 Alpha  occ. eigenvalues --   -0.40028  -0.39527  -0.39383  -0.39123  -0.39003
 Alpha  occ. eigenvalues --   -0.38445  -0.38061  -0.37855  -0.37464  -0.37355
 Alpha  occ. eigenvalues --   -0.37097  -0.36915  -0.36636  -0.36480  -0.36193
 Alpha  occ. eigenvalues --   -0.35657  -0.35443  -0.35215  -0.35011  -0.34833
 Alpha  occ. eigenvalues --   -0.34072  -0.33769  -0.33626  -0.31382  -0.30968
 Alpha  occ. eigenvalues --   -0.30613  -0.29801  -0.29103  -0.28987  -0.24409
 Alpha  occ. eigenvalues --   -0.21877
 Alpha virt. eigenvalues --   -0.09340  -0.02801   0.00304   0.00882   0.02169
 Alpha virt. eigenvalues --    0.04183   0.04980   0.05352   0.05677   0.06420
 Alpha virt. eigenvalues --    0.07927   0.07984   0.08373   0.08658   0.09071

 Mulliken charges:
               1
     1  Mg   0.805946
     2  C    0.010821
     3  C   -0.068952
     4  C   -0.071293
     5  C   -0.087606
     6  N   -0.266216
     7  C   -0.054529
     8  C   -0.002559
     9  C   -0.097068
    10  C    0.054081
    11  C    0.070208
    12  C    0.037883
    13  C    0.057362
    14  C    0.184635
    15  O   -0.262362
    16  O   -0.342742
    17  N   -0.433726
    18  C    0.151800
    19  C   -0.124525
    20  C   -0.044310
    21  C    0.198616
    22  C    0.119001
    23  C    0.011964
    24  O   -0.229700
    25  C    0.037257
    26  N   -0.285081
    27  C    0.041349
    28  C   -0.080253
    29  C   -0.022901
    30  C    0.025232
    31  C    0.061336
    32  C    0.034630
    33  C    0.003572
    34  N   -0.326359
    35  C    0.157339
    36  C   -0.201958
    37  C    0.018495
    38  C    0.087978
    39  C    0.128122
    40  C    0.030821
    41  O   -0.191814
    42  C   -0.007329
    43  C    0.204239
    44  O   -0.204026
    45  O   -0.340505
    46  C    0.172660
    47  C    0.302609
    48  C   -0.127332
    49  C   -0.188420
    50  C    0.114257
    51  C    0.063287
    52  C    0.000256
    53  C    0.071709
    54  C   -0.153100
    55  C    0.039155
    56  C    0.037724
    57  C   -0.008611
    58  C    0.057326
    59  C   -0.135558
    60  C    0.068291
    61  C    0.033856
    62  C   -0.020451
    63  C    0.031227
    64  C   -0.111655
    65  C    0.023239
    66  C    0.079001
    67  H   -0.019429
    68  H   -0.052369
    69  H   -0.012941
    70  H    0.010120
    71  H    0.026372
    72  H    0.014162
    73  H    0.016303
    74  H    0.016619
    75  H    0.047901
    76  H    0.018475
    77  H    0.030272
    78  H    0.033953
    79  H    0.041882
    80  H    0.041202
    81  H   -0.013296
    82  H    0.023692
    83  H    0.042807
    84  H    0.055150
    85  H    0.017210
    86  H    0.026833
    87  H    0.032398
    88  H    0.013236
    89  H    0.009740
    90  H    0.021647
    91  H   -0.004570
    92  H    0.032096
    93  H    0.009364
    94  H    0.002734
    95  H    0.039040
    96  H    0.012101
    97  H    0.039550
    98  H    0.051895
    99  H    0.040128
   100  H    0.032642
   101  H    0.046891
   102  H    0.051273
   103  H    0.026687
   104  H    0.000977
   105  H    0.031325
   106  H    0.004987
   107  H    0.021008
   108  H   -0.007721
   109  H   -0.005206
   110  H   -0.013836
   111  H   -0.002631
   112  H   -0.006760
   113  H   -0.003371
   114  H    0.004176
   115  H    0.013853
   116  H    0.001039
   117  H    0.026794
   118  H   -0.011918
   119  H   -0.002866
   120  H    0.005434
   121  H   -0.008732
   122  H   -0.010190
   123  H   -0.017275
   124  H   -0.007632
   125  H    0.011142
   126  H    0.011382
   127  H    0.017908
   128  H   -0.009450
   129  H   -0.001065
   130  H   -0.001458
   131  H   -0.001269
   132  H   -0.010932
   133  H   -0.001518
   134  H   -0.008507
   135  H    0.000465
   136  H   -0.002912
   137  H    0.003820
   138  H    0.004389
   139  H    0.003383
   140  H    0.015051
 Sum of Mulliken charges =  -0.00000

 Dipole moment (field-independent basis, Debye):
    X=              0.2991    Y=              3.5286    Z=              2.7081  Tot=              4.4581
 Quadrupole moment (field-independent basis, Debye-Ang):
   XX=           -410.4456   YY=           -388.0662   ZZ=           -410.1921
   XY=            -51.8045   XZ=            -14.1071   YZ=            -39.8885

 Normal termination of Gaussian 16 at Wed May  4 04:50:26 2022.
