 Gaussian 16, Revision A.03,
 Gaussian 16:  ES64L-G16RevA.03 25-Dec-2016

 ---------------------------------
 #p PBE1PBE/Def2SVP td=(nstates=5)
 ---------------------------------

 ------------------------------------------------------
 step_1401_chromophore_11 TDDFT with PBE1PBE functional
 ------------------------------------------------------
 Symbolic Z-matrix:
 Charge =  0 Multiplicity = 1

                         Standard orientation:
 ---------------------------------------------------------------------
 Center     Atomic      Atomic             Coordinates (Angstroms)
 Number     Number       Type             X           Y           Z
 ---------------------------------------------------------------------
      1         12           0       -4.696835    1.411621    0.756186
      2          6           0       -5.730702   -1.966594    0.087889
      3          6           0       -1.883091    0.106302    2.392137
      4          6           0       -3.256623    4.334460    0.493149
      5          6           0       -7.303350    2.451399   -1.545271
      6          7           0       -3.856629   -0.730499    0.968717
      7          6           0       -4.480593   -1.913646    0.743839
      8          6           0       -3.710835   -3.083093    1.334863
      9          6           0       -2.667355   -2.333184    2.323168
     10          6           0       -2.795256   -0.859023    1.878096
     11          6           0       -2.876712   -2.660815    3.832235
     12          6           0       -3.083066   -3.910908    0.145075
     13          6           0       -1.757341   -3.416889   -0.457171
     14          6           0       -0.529496   -4.316036   -0.273602
     15          8           0       -0.089245   -5.283676   -0.958576
     16          8           0        0.095662   -3.870991    0.854670
     17          7           0       -2.892952    2.154377    1.427665
     18          6           0       -1.884889    1.534727    2.183490
     19          6           0       -0.974898    2.475098    2.666057
     20          6           0       -1.366182    3.741761    2.093930
     21          6           0       -2.551937    3.503452    1.269953
     22          6           0        0.094869    2.152254    3.831892
     23          6           0       -0.673702    5.086152    2.449727
     24          8           0        0.306800    5.148444    3.241875
     25          6           0       -1.269110    6.401218    1.887377
     26          7           0       -5.183054    3.172477   -0.428778
     27          6           0       -4.394902    4.244032   -0.265671
     28          6           0       -4.988281    5.436265   -0.972468
     29          6           0       -6.357244    4.835946   -1.584829
     30          6           0       -6.249599    3.397369   -1.263221
     31          6           0       -5.219563    6.702176   -0.058287
     32          6           0       -6.521829    5.071792   -3.100794
     33          6           0       -7.691857    6.063751   -3.387959
     34          7           0       -6.372409    0.488019   -0.302790
     35          6           0       -7.303029    1.109096   -1.111099
     36          6           0       -8.210017    0.098337   -1.529109
     37          6           0       -7.697953   -1.150161   -1.018992
     38          6           0       -6.525744   -0.849484   -0.342719
     39          6           0       -9.424797    0.291184   -2.373982
     40          6           0       -7.832948   -2.614510   -0.996192
     41          8           0       -8.746017   -3.289801   -1.489718
     42          6           0       -6.654549   -3.223690   -0.121010
     43          6           0       -6.173092   -4.410780   -0.930421
     44          8           0       -5.799717   -4.410083   -2.081457
     45          8           0       -6.408325   -5.508432   -0.124037
     46          6           0       -6.055327   -6.767562   -0.843572
     47          6           0        1.455280   -4.523045    1.146832
     48          6           0        2.561406   -3.944600    0.319051
     49          6           0        3.928077   -4.151885    0.374009
     50          6           0        4.558616   -5.181528    1.286217
     51          6           0        4.780001   -3.415888   -0.613240
     52          6           0        5.735106   -2.426057   -0.083339
     53          6           0        6.541213   -1.693265   -1.142091
     54          6           0        6.377772   -0.143214   -0.922598
     55          6           0        6.398316    0.609731   -2.322135
     56          6           0        7.530526    0.502968   -0.066723
     57          6           0        8.926463    0.680233   -0.704570
     58          6           0       10.141226   -0.048012   -0.041848
     59          6           0       11.232610    0.864263    0.488344
     60          6           0       10.610995    1.950527    1.411578
     61          6           0       12.106602    1.395951   -0.701224
     62          6           0       13.414919    0.473147   -0.918385
     63          6           0       14.690175    1.037133   -0.321776
     64          6           0       15.971174    1.126379   -1.114064
     65          6           0       15.718702    2.114697   -2.265971
     66          6           0       16.407570   -0.187623   -1.578658
     67          1           0       -1.154873   -0.326970    3.081728
     68          1           0       -2.777622    5.305995    0.352500
     69          1           0       -8.030495    2.768917   -2.295226
     70          1           0       -4.375212   -3.729462    1.907261
     71          1           0       -1.613912   -2.588256    2.210371
     72          1           0       -3.835904   -3.165811    3.941295
     73          1           0       -2.829188   -1.768904    4.456326
     74          1           0       -2.074949   -3.324169    4.157795
     75          1           0       -3.791988   -3.978990   -0.680613
     76          1           0       -2.901885   -4.901240    0.561746
     77          1           0       -1.524529   -2.440088   -0.033496
     78          1           0       -1.923740   -3.168527   -1.504984
     79          1           0       -0.352756    2.587124    4.725844
     80          1           0        1.159878    2.368495    3.739368
     81          1           0        0.120906    1.068432    3.949269
     82          1           0       -0.690293    7.244099    2.267299
     83          1           0       -2.283696    6.500627    2.272299
     84          1           0       -1.168130    6.396540    0.802079
     85          1           0       -4.311067    5.913493   -1.679939
     86          1           0       -7.196745    5.239705   -1.018741
     87          1           0       -5.019875    6.459363    0.985275
     88          1           0       -6.224715    7.013674   -0.341720
     89          1           0       -4.536745    7.475191   -0.410354
     90          1           0       -6.556284    4.192686   -3.744867
     91          1           0       -5.596307    5.564771   -3.397468
     92          1           0       -8.584161    5.540084   -3.731508
     93          1           0       -7.416393    6.838877   -4.102913
     94          1           0       -7.795896    6.660804   -2.481667
     95          1           0       -9.164273    0.376972   -3.429640
     96          1           0       -9.964337    1.183710   -2.055054
     97          1           0      -10.044381   -0.569805   -2.126165
     98          1           0       -7.143584   -3.561631    0.791627
     99          1           0       -6.441533   -7.708864   -0.452209
    100          1           0       -4.974491   -6.866290   -0.941462
    101          1           0       -6.456156   -6.685521   -1.854159
    102          1           0        1.459607   -5.611759    1.199783
    103          1           0        1.698547   -4.194689    2.157217
    104          1           0        2.312975   -3.183857   -0.421694
    105          1           0        5.202824   -5.835318    0.700031
    106          1           0        3.790841   -5.659377    1.895330
    107          1           0        5.162184   -4.544400    1.933674
    108          1           0        4.253527   -2.834221   -1.370770
    109          1           0        5.379289   -4.116278   -1.194456
    110          1           0        6.435021   -2.993555    0.530757
    111          1           0        5.206226   -1.682178    0.513439
    112          1           0        6.198700   -2.023353   -2.122454
    113          1           0        7.583856   -1.988604   -1.020813
    114          1           0        5.413690    0.015629   -0.438635
    115          1           0        6.703110    1.650652   -2.214862
    116          1           0        5.330801    0.613427   -2.542972
    117          1           0        6.902815    0.018164   -3.086980
    118          1           0        7.655255   -0.017345    0.882965
    119          1           0        7.089039    1.468679    0.180963
    120          1           0        9.188264    1.716657   -0.916556
    121          1           0        8.760361    0.239391   -1.687528
    122          1           0       10.507612   -0.851639   -0.681138
    123          1           0        9.697071   -0.553312    0.816065
    124          1           0       11.937893    0.235121    1.032717
    125          1           0       10.920187    2.879837    0.932638
    126          1           0       11.079861    1.728066    2.369172
    127          1           0        9.533650    1.858024    1.551606
    128          1           0       12.522032    2.381855   -0.494997
    129          1           0       11.526708    1.425472   -1.623655
    130          1           0       13.423376    0.271918   -1.989460
    131          1           0       13.146221   -0.465473   -0.434191
    132          1           0       14.917156    0.304003    0.452411
    133          1           0       14.575072    2.071856    0.000916
    134          1           0       16.576588    1.723350   -0.431878
    135          1           0       16.211842    3.073168   -2.100519
    136          1           0       14.670107    2.412265   -2.283916
    137          1           0       15.970725    1.733461   -3.256075
    138          1           0       17.145681   -0.539121   -0.858471
    139          1           0       16.907954   -0.152306   -2.545727
    140          1           0       15.588233   -0.904836   -1.617319
 ---------------------------------------------------------------------

 SCF Done:  E(RPBE1PBE) =  -3005.31734103     A.U. after   15 cycles

 Excitation energies and oscillator strengths:

 Excited State   1:      Singlet-A      1.8728 eV  662.02 nm  f=0.3561  <S**2>=0.000
     245 -> 248        0.18610
     246 -> 247        0.68699
 This state for optimization and/or second-order correction.
 Total Energy, E(TD-HF/TD-DFT) =  -3005.24851670
 Copying the excited state density for this state as the 1-particle RhoCI density.

 Excited State   2:      Singlet-A      2.1927 eV  565.44 nm  f=0.1051  <S**2>=0.000
     245 -> 247        0.64527
     246 -> 248       -0.25101

 Excited State   3:      Singlet-A      2.7325 eV  453.75 nm  f=0.0056  <S**2>=0.000
     241 -> 247        0.16002
     242 -> 247       -0.10194
     243 -> 247        0.66469

 Excited State   4:      Singlet-A      2.8881 eV  429.30 nm  f=0.0009  <S**2>=0.000
     240 -> 247       -0.24477
     241 -> 247        0.41269
     242 -> 247        0.47696

 Excited State   5:      Singlet-A      2.8973 eV  427.93 nm  f=0.0073  <S**2>=0.000
     240 -> 247        0.25171
     241 -> 247        0.51295
     241 -> 249       -0.10069
     242 -> 247       -0.32802
     243 -> 247       -0.17630

 The electronic state is 1-A.
 Alpha  occ. eigenvalues --  -46.93591 -19.26571 -19.26298 -19.20745 -19.19882
 Alpha  occ. eigenvalues --  -19.19266 -19.19022 -14.42029 -14.42005 -14.39460
 Alpha  occ. eigenvalues --  -14.38735 -10.36794 -10.36737 -10.33019 -10.32338
 Alpha  occ. eigenvalues --  -10.30472 -10.29512 -10.29382 -10.29277 -10.28810
 Alpha  occ. eigenvalues --  -10.28588 -10.28174 -10.27993 -10.27496 -10.26916
 Alpha  occ. eigenvalues --  -10.26822 -10.26702 -10.26649 -10.26465 -10.26245
 Alpha  occ. eigenvalues --  -10.26065 -10.25960 -10.25825 -10.25717 -10.25667
 Alpha  occ. eigenvalues --  -10.25571 -10.25107 -10.24740 -10.24694 -10.24603
 Alpha  occ. eigenvalues --  -10.24546 -10.24186 -10.24121 -10.24024 -10.23909
 Alpha  occ. eigenvalues --  -10.23900 -10.23695 -10.23683 -10.23536 -10.23235
 Alpha  occ. eigenvalues --  -10.22964 -10.22818 -10.22528 -10.22324 -10.22304
 Alpha  occ. eigenvalues --  -10.22288 -10.22204 -10.22174 -10.22061 -10.21949
 Alpha  occ. eigenvalues --  -10.21892 -10.21746 -10.21626 -10.21606 -10.21201
 Alpha  occ. eigenvalues --  -10.21033  -3.15450  -1.88261  -1.87852  -1.87640
 Alpha  occ. eigenvalues --   -1.11122  -1.10030  -1.03586  -1.03146  -1.02430
 Alpha  occ. eigenvalues --   -1.00299  -0.99344  -0.98298  -0.97389  -0.96564
 Alpha  occ. eigenvalues --   -0.86266  -0.85142  -0.84367  -0.84336  -0.83368
 Alpha  occ. eigenvalues --   -0.83343  -0.83018  -0.81851  -0.81808  -0.80863
 Alpha  occ. eigenvalues --   -0.79775  -0.79424  -0.78969  -0.78265  -0.77792
 Alpha  occ. eigenvalues --   -0.76550  -0.76211  -0.75417  -0.75359  -0.74746
 Alpha  occ. eigenvalues --   -0.73514  -0.72485  -0.72281  -0.71375  -0.70278
 Alpha  occ. eigenvalues --   -0.70221  -0.70006  -0.69859  -0.68859  -0.68086
 Alpha  occ. eigenvalues --   -0.67686  -0.67154  -0.66787  -0.65034  -0.64068
 Alpha  occ. eigenvalues --   -0.63236  -0.62711  -0.61880  -0.61784  -0.60906
 Alpha  occ. eigenvalues --   -0.60316  -0.59745  -0.59526  -0.58941  -0.57446
 Alpha  occ. eigenvalues --   -0.56868  -0.56691  -0.55231  -0.54886  -0.54583
 Alpha  occ. eigenvalues --   -0.54212  -0.54148  -0.53546  -0.53316  -0.52623
 Alpha  occ. eigenvalues --   -0.52134  -0.51359  -0.50937  -0.50618  -0.50536
 Alpha  occ. eigenvalues --   -0.49817  -0.49515  -0.49235  -0.49093  -0.48914
 Alpha  occ. eigenvalues --   -0.48001  -0.47868  -0.47816  -0.47576  -0.47438
 Alpha  occ. eigenvalues --   -0.47219  -0.47056  -0.46962  -0.46499  -0.46336
 Alpha  occ. eigenvalues --   -0.46222  -0.45835  -0.45785  -0.45582  -0.45321
 Alpha  occ. eigenvalues --   -0.45150  -0.44880  -0.44587  -0.44502  -0.44350
 Alpha  occ. eigenvalues --   -0.44152  -0.44006  -0.43908  -0.43796  -0.43566
 Alpha  occ. eigenvalues --   -0.43280  -0.43093  -0.42974  -0.42915  -0.42548
 Alpha  occ. eigenvalues --   -0.42417  -0.42012  -0.41754  -0.41660  -0.41250
 Alpha  occ. eigenvalues --   -0.41130  -0.41064  -0.40949  -0.40821  -0.40409
 Alpha  occ. eigenvalues --   -0.40164  -0.40142  -0.39869  -0.39743  -0.39543
 Alpha  occ. eigenvalues --   -0.39455  -0.39298  -0.38974  -0.38722  -0.38539
 Alpha  occ. eigenvalues --   -0.38292  -0.38143  -0.37898  -0.37817  -0.37554
 Alpha  occ. eigenvalues --   -0.37230  -0.37075  -0.37033  -0.36976  -0.36831
 Alpha  occ. eigenvalues --   -0.36699  -0.36638  -0.36396  -0.36311  -0.36057
 Alpha  occ. eigenvalues --   -0.35895  -0.35695  -0.35379  -0.35316  -0.35099
 Alpha  occ. eigenvalues --   -0.34779  -0.34295  -0.34157  -0.34094  -0.34024
 Alpha  occ. eigenvalues --   -0.33247  -0.32871  -0.32848  -0.32487  -0.32199
 Alpha  occ. eigenvalues --   -0.32094  -0.31775  -0.31636  -0.31479  -0.31033
 Alpha  occ. eigenvalues --   -0.30525  -0.30307  -0.30241  -0.29897  -0.29715
 Alpha  occ. eigenvalues --   -0.29331  -0.29153  -0.28441  -0.27041  -0.25717
 Alpha  occ. eigenvalues --   -0.25572  -0.25337  -0.24761  -0.24294  -0.21383
 Alpha  occ. eigenvalues --   -0.19506
 Alpha virt. eigenvalues --   -0.11769  -0.06245  -0.03879  -0.02357  -0.01815
 Alpha virt. eigenvalues --   -0.00474   0.00260   0.00874   0.01288   0.02431
 Alpha virt. eigenvalues --    0.03758   0.04302   0.04839   0.05226   0.05798

 Mulliken charges:
               1
     1  Mg   0.940744
     2  C    0.016087
     3  C   -0.059137
     4  C   -0.085643
     5  C   -0.069585
     6  N   -0.360627
     7  C    0.011155
     8  C   -0.068068
     9  C   -0.169188
    10  C    0.078246
    11  C    0.013629
    12  C   -0.017901
    13  C   -0.017116
    14  C    0.248065
    15  O   -0.294266
    16  O   -0.371909
    17  N   -0.543190
    18  C    0.169023
    19  C   -0.137393
    20  C   -0.091628
    21  C    0.226512
    22  C    0.059783
    23  C    0.064550
    24  O   -0.263596
    25  C   -0.042861
    26  N   -0.394245
    27  C    0.090096
    28  C   -0.147973
    29  C   -0.114072
    30  C    0.074799
    31  C    0.000699
    32  C   -0.020964
    33  C   -0.070036
    34  N   -0.452801
    35  C    0.178254
    36  C   -0.222908
    37  C   -0.032124
    38  C    0.138159
    39  C    0.070003
    40  C    0.129748
    41  O   -0.234479
    42  C   -0.120783
    43  C    0.287662
    44  O   -0.238674
    45  O   -0.370606
    46  C    0.115073
    47  C    0.256308
    48  C   -0.133136
    49  C   -0.234026
    50  C    0.049999
    51  C   -0.002966
    52  C   -0.061232
    53  C    0.021452
    54  C   -0.242758
    55  C   -0.025728
    56  C   -0.013442
    57  C   -0.073828
    58  C    0.003441
    59  C   -0.222882
    60  C    0.003420
    61  C   -0.015517
    62  C   -0.083323
    63  C   -0.027923
    64  C   -0.206060
    65  C   -0.035144
    66  C    0.015973
    67  H    0.011421
    68  H   -0.015801
    69  H    0.017378
    70  H    0.046126
    71  H    0.064797
    72  H    0.041881
    73  H    0.043720
    74  H    0.043795
    75  H    0.088684
    76  H    0.051423
    77  H    0.066242
    78  H    0.065976
    79  H    0.069379
    80  H    0.066752
    81  H    0.014813
    82  H    0.052185
    83  H    0.070801
    84  H    0.079974
    85  H    0.052708
    86  H    0.063169
    87  H    0.060625
    88  H    0.042106
    89  H    0.037313
    90  H    0.052410
    91  H    0.029777
    92  H    0.059198
    93  H    0.037645
    94  H    0.031182
    95  H    0.066750
    96  H    0.039954
    97  H    0.067506
    98  H    0.088534
    99  H    0.062428
   100  H    0.055698
   101  H    0.068652
   102  H    0.076264
   103  H    0.053565
   104  H    0.031134
   105  H    0.058097
   106  H    0.032875
   107  H    0.049855
   108  H    0.024670
   109  H    0.029078
   110  H    0.020403
   111  H    0.030124
   112  H    0.024417
   113  H    0.030919
   114  H    0.040707
   115  H    0.042484
   116  H    0.031462
   117  H    0.052765
   118  H    0.020293
   119  H    0.030777
   120  H    0.037188
   121  H    0.027151
   122  H    0.021758
   123  H    0.017115
   124  H    0.031232
   125  H    0.038265
   126  H    0.039557
   127  H    0.048184
   128  H    0.022039
   129  H    0.031697
   130  H    0.030251
   131  H    0.031239
   132  H    0.023590
   133  H    0.030417
   134  H    0.029952
   135  H    0.028414
   136  H    0.026599
   137  H    0.030645
   138  H    0.033142
   139  H    0.030762
   140  H    0.042569
 Sum of Mulliken charges =  -0.00000

 Dipole moment (field-independent basis, Debye):
    X=              0.2045    Y=              3.5266    Z=              2.6846  Tot=              4.4369
 Quadrupole moment (field-independent basis, Debye-Ang):
   XX=           -406.5817   YY=           -384.2905   ZZ=           -406.9105
   XY=            -52.6969   XZ=            -13.2259   YZ=            -40.9310

 Normal termination of Gaussian 16 at Wed May  4 05:08:12 2022.
