 Gaussian 16, Revision A.03,
 Gaussian 16:  ES64L-G16RevA.03 25-Dec-2016

 --------------------------------
 #p wB97XD/Def2SVP td=(nstates=5)
 --------------------------------

 -----------------------------------------------------
 step_1401_chromophore_11 TDDFT with wB97XD functional
 -----------------------------------------------------
 Symbolic Z-matrix:
 Charge =  0 Multiplicity = 1

                         Standard orientation:
 ---------------------------------------------------------------------
 Center     Atomic      Atomic             Coordinates (Angstroms)
 Number     Number       Type             X           Y           Z
 ---------------------------------------------------------------------
      1         12           0       -4.696835    1.411621    0.756186
      2          6           0       -5.730702   -1.966594    0.087889
      3          6           0       -1.883091    0.106302    2.392137
      4          6           0       -3.256623    4.334460    0.493149
      5          6           0       -7.303350    2.451399   -1.545271
      6          7           0       -3.856629   -0.730499    0.968717
      7          6           0       -4.480593   -1.913646    0.743839
      8          6           0       -3.710835   -3.083093    1.334863
      9          6           0       -2.667355   -2.333184    2.323168
     10          6           0       -2.795256   -0.859023    1.878096
     11          6           0       -2.876712   -2.660815    3.832235
     12          6           0       -3.083066   -3.910908    0.145075
     13          6           0       -1.757341   -3.416889   -0.457171
     14          6           0       -0.529496   -4.316036   -0.273602
     15          8           0       -0.089245   -5.283676   -0.958576
     16          8           0        0.095662   -3.870991    0.854670
     17          7           0       -2.892952    2.154377    1.427665
     18          6           0       -1.884889    1.534727    2.183490
     19          6           0       -0.974898    2.475098    2.666057
     20          6           0       -1.366182    3.741761    2.093930
     21          6           0       -2.551937    3.503452    1.269953
     22          6           0        0.094869    2.152254    3.831892
     23          6           0       -0.673702    5.086152    2.449727
     24          8           0        0.306800    5.148444    3.241875
     25          6           0       -1.269110    6.401218    1.887377
     26          7           0       -5.183054    3.172477   -0.428778
     27          6           0       -4.394902    4.244032   -0.265671
     28          6           0       -4.988281    5.436265   -0.972468
     29          6           0       -6.357244    4.835946   -1.584829
     30          6           0       -6.249599    3.397369   -1.263221
     31          6           0       -5.219563    6.702176   -0.058287
     32          6           0       -6.521829    5.071792   -3.100794
     33          6           0       -7.691857    6.063751   -3.387959
     34          7           0       -6.372409    0.488019   -0.302790
     35          6           0       -7.303029    1.109096   -1.111099
     36          6           0       -8.210017    0.098337   -1.529109
     37          6           0       -7.697953   -1.150161   -1.018992
     38          6           0       -6.525744   -0.849484   -0.342719
     39          6           0       -9.424797    0.291184   -2.373982
     40          6           0       -7.832948   -2.614510   -0.996192
     41          8           0       -8.746017   -3.289801   -1.489718
     42          6           0       -6.654549   -3.223690   -0.121010
     43          6           0       -6.173092   -4.410780   -0.930421
     44          8           0       -5.799717   -4.410083   -2.081457
     45          8           0       -6.408325   -5.508432   -0.124037
     46          6           0       -6.055327   -6.767562   -0.843572
     47          6           0        1.455280   -4.523045    1.146832
     48          6           0        2.561406   -3.944600    0.319051
     49          6           0        3.928077   -4.151885    0.374009
     50          6           0        4.558616   -5.181528    1.286217
     51          6           0        4.780001   -3.415888   -0.613240
     52          6           0        5.735106   -2.426057   -0.083339
     53          6           0        6.541213   -1.693265   -1.142091
     54          6           0        6.377772   -0.143214   -0.922598
     55          6           0        6.398316    0.609731   -2.322135
     56          6           0        7.530526    0.502968   -0.066723
     57          6           0        8.926463    0.680233   -0.704570
     58          6           0       10.141226   -0.048012   -0.041848
     59          6           0       11.232610    0.864263    0.488344
     60          6           0       10.610995    1.950527    1.411578
     61          6           0       12.106602    1.395951   -0.701224
     62          6           0       13.414919    0.473147   -0.918385
     63          6           0       14.690175    1.037133   -0.321776
     64          6           0       15.971174    1.126379   -1.114064
     65          6           0       15.718702    2.114697   -2.265971
     66          6           0       16.407570   -0.187623   -1.578658
     67          1           0       -1.154873   -0.326970    3.081728
     68          1           0       -2.777622    5.305995    0.352500
     69          1           0       -8.030495    2.768917   -2.295226
     70          1           0       -4.375212   -3.729462    1.907261
     71          1           0       -1.613912   -2.588256    2.210371
     72          1           0       -3.835904   -3.165811    3.941295
     73          1           0       -2.829188   -1.768904    4.456326
     74          1           0       -2.074949   -3.324169    4.157795
     75          1           0       -3.791988   -3.978990   -0.680613
     76          1           0       -2.901885   -4.901240    0.561746
     77          1           0       -1.524529   -2.440088   -0.033496
     78          1           0       -1.923740   -3.168527   -1.504984
     79          1           0       -0.352756    2.587124    4.725844
     80          1           0        1.159878    2.368495    3.739368
     81          1           0        0.120906    1.068432    3.949269
     82          1           0       -0.690293    7.244099    2.267299
     83          1           0       -2.283696    6.500627    2.272299
     84          1           0       -1.168130    6.396540    0.802079
     85          1           0       -4.311067    5.913493   -1.679939
     86          1           0       -7.196745    5.239705   -1.018741
     87          1           0       -5.019875    6.459363    0.985275
     88          1           0       -6.224715    7.013674   -0.341720
     89          1           0       -4.536745    7.475191   -0.410354
     90          1           0       -6.556284    4.192686   -3.744867
     91          1           0       -5.596307    5.564771   -3.397468
     92          1           0       -8.584161    5.540084   -3.731508
     93          1           0       -7.416393    6.838877   -4.102913
     94          1           0       -7.795896    6.660804   -2.481667
     95          1           0       -9.164273    0.376972   -3.429640
     96          1           0       -9.964337    1.183710   -2.055054
     97          1           0      -10.044381   -0.569805   -2.126165
     98          1           0       -7.143584   -3.561631    0.791627
     99          1           0       -6.441533   -7.708864   -0.452209
    100          1           0       -4.974491   -6.866290   -0.941462
    101          1           0       -6.456156   -6.685521   -1.854159
    102          1           0        1.459607   -5.611759    1.199783
    103          1           0        1.698547   -4.194689    2.157217
    104          1           0        2.312975   -3.183857   -0.421694
    105          1           0        5.202824   -5.835318    0.700031
    106          1           0        3.790841   -5.659377    1.895330
    107          1           0        5.162184   -4.544400    1.933674
    108          1           0        4.253527   -2.834221   -1.370770
    109          1           0        5.379289   -4.116278   -1.194456
    110          1           0        6.435021   -2.993555    0.530757
    111          1           0        5.206226   -1.682178    0.513439
    112          1           0        6.198700   -2.023353   -2.122454
    113          1           0        7.583856   -1.988604   -1.020813
    114          1           0        5.413690    0.015629   -0.438635
    115          1           0        6.703110    1.650652   -2.214862
    116          1           0        5.330801    0.613427   -2.542972
    117          1           0        6.902815    0.018164   -3.086980
    118          1           0        7.655255   -0.017345    0.882965
    119          1           0        7.089039    1.468679    0.180963
    120          1           0        9.188264    1.716657   -0.916556
    121          1           0        8.760361    0.239391   -1.687528
    122          1           0       10.507612   -0.851639   -0.681138
    123          1           0        9.697071   -0.553312    0.816065
    124          1           0       11.937893    0.235121    1.032717
    125          1           0       10.920187    2.879837    0.932638
    126          1           0       11.079861    1.728066    2.369172
    127          1           0        9.533650    1.858024    1.551606
    128          1           0       12.522032    2.381855   -0.494997
    129          1           0       11.526708    1.425472   -1.623655
    130          1           0       13.423376    0.271918   -1.989460
    131          1           0       13.146221   -0.465473   -0.434191
    132          1           0       14.917156    0.304003    0.452411
    133          1           0       14.575072    2.071856    0.000916
    134          1           0       16.576588    1.723350   -0.431878
    135          1           0       16.211842    3.073168   -2.100519
    136          1           0       14.670107    2.412265   -2.283916
    137          1           0       15.970725    1.733461   -3.256075
    138          1           0       17.145681   -0.539121   -0.858471
    139          1           0       16.907954   -0.152306   -2.545727
    140          1           0       15.588233   -0.904836   -1.617319
 ---------------------------------------------------------------------

 SCF Done:  E(RwB97XD) =  -3007.82731847     A.U. after   17 cycles

 Excitation energies and oscillator strengths:

 Excited State   1:      Singlet-A      1.6521 eV  750.44 nm  f=0.3719  <S**2>=0.000
     245 -> 248        0.19638
     246 -> 247        0.67943
     245 <- 248        0.11854
 This state for optimization and/or second-order correction.
 Total Energy, E(TD-HF/TD-DFT) =  -3007.76660313
 Copying the excited state density for this state as the 1-particle RhoCI density.

 Excited State   2:      Singlet-A      2.1240 eV  583.74 nm  f=0.1087  <S**2>=0.000
     245 -> 247        0.63516
     246 -> 248       -0.28474

 Excited State   3:      Singlet-A      3.0717 eV  403.63 nm  f=0.0017  <S**2>=0.000
     243 -> 247        0.66827

 Excited State   4:      Singlet-A      3.2673 eV  379.47 nm  f=0.0107  <S**2>=0.000
     242 -> 247        0.64643
     246 -> 248        0.21483

 Excited State   5:      Singlet-A      3.4423 eV  360.17 nm  f=0.0509  <S**2>=0.000
     241 -> 247        0.55445
     241 -> 249       -0.26902
     241 -> 251        0.17716
     242 -> 247       -0.10075
     246 -> 248        0.13944

 The electronic state is 1-A.
 Alpha  occ. eigenvalues --  -46.96564 -19.31097 -19.30846 -19.25436 -19.24519
 Alpha  occ. eigenvalues --  -19.24121 -19.23793 -14.47169 -14.47062 -14.44424
 Alpha  occ. eigenvalues --  -14.43619 -10.43551 -10.43547 -10.39880 -10.39138
 Alpha  occ. eigenvalues --  -10.36975 -10.35837 -10.35692 -10.35518 -10.35145
 Alpha  occ. eigenvalues --  -10.35095 -10.34575 -10.34389 -10.33775 -10.33167
 Alpha  occ. eigenvalues --  -10.33135 -10.33032 -10.32939 -10.32929 -10.32447
 Alpha  occ. eigenvalues --  -10.32299 -10.32256 -10.32170 -10.32148 -10.32030
 Alpha  occ. eigenvalues --  -10.31976 -10.31444 -10.31131 -10.31052 -10.30917
 Alpha  occ. eigenvalues --  -10.30887 -10.30690 -10.30630 -10.30628 -10.30272
 Alpha  occ. eigenvalues --  -10.30170 -10.30148 -10.30060 -10.29941 -10.29680
 Alpha  occ. eigenvalues --  -10.29227 -10.29096 -10.28927 -10.28690 -10.28662
 Alpha  occ. eigenvalues --  -10.28651 -10.28570 -10.28462 -10.28455 -10.28326
 Alpha  occ. eigenvalues --  -10.28307 -10.28133 -10.28041 -10.27991 -10.27649
 Alpha  occ. eigenvalues --  -10.27455  -3.22320  -1.95874  -1.95464  -1.95249
 Alpha  occ. eigenvalues --   -1.18512  -1.17397  -1.11014  -1.10524  -1.09980
 Alpha  occ. eigenvalues --   -1.07634  -1.06757  -1.05644  -1.04785  -1.03979
 Alpha  occ. eigenvalues --   -0.93876  -0.92815  -0.92020  -0.91949  -0.91001
 Alpha  occ. eigenvalues --   -0.90955  -0.90676  -0.89496  -0.89432  -0.88468
 Alpha  occ. eigenvalues --   -0.87408  -0.87107  -0.86638  -0.85882  -0.85431
 Alpha  occ. eigenvalues --   -0.84205  -0.83898  -0.83136  -0.82987  -0.82401
 Alpha  occ. eigenvalues --   -0.81180  -0.80075  -0.79896  -0.79042  -0.77956
 Alpha  occ. eigenvalues --   -0.77858  -0.77700  -0.77479  -0.76561  -0.75759
 Alpha  occ. eigenvalues --   -0.75252  -0.74721  -0.74333  -0.72654  -0.71638
 Alpha  occ. eigenvalues --   -0.70905  -0.70255  -0.69524  -0.69360  -0.68426
 Alpha  occ. eigenvalues --   -0.67871  -0.67175  -0.67023  -0.66440  -0.64924
 Alpha  occ. eigenvalues --   -0.64325  -0.64258  -0.62852  -0.62348  -0.62192
 Alpha  occ. eigenvalues --   -0.61695  -0.61559  -0.60938  -0.60734  -0.59984
 Alpha  occ. eigenvalues --   -0.59651  -0.58816  -0.58361  -0.58068  -0.57959
 Alpha  occ. eigenvalues --   -0.57261  -0.56976  -0.56671  -0.56533  -0.56238
 Alpha  occ. eigenvalues --   -0.55362  -0.55322  -0.55118  -0.54970  -0.54752
 Alpha  occ. eigenvalues --   -0.54598  -0.54460  -0.54310  -0.54055  -0.53701
 Alpha  occ. eigenvalues --   -0.53587  -0.53200  -0.53121  -0.52899  -0.52636
 Alpha  occ. eigenvalues --   -0.52517  -0.52233  -0.51967  -0.51889  -0.51699
 Alpha  occ. eigenvalues --   -0.51493  -0.51288  -0.51188  -0.51107  -0.50855
 Alpha  occ. eigenvalues --   -0.50573  -0.50380  -0.50255  -0.50192  -0.49792
 Alpha  occ. eigenvalues --   -0.49745  -0.49218  -0.49033  -0.48944  -0.48498
 Alpha  occ. eigenvalues --   -0.48378  -0.48331  -0.48189  -0.47996  -0.47635
 Alpha  occ. eigenvalues --   -0.47391  -0.47339  -0.47024  -0.46918  -0.46730
 Alpha  occ. eigenvalues --   -0.46638  -0.46466  -0.46108  -0.45891  -0.45631
 Alpha  occ. eigenvalues --   -0.45459  -0.45267  -0.45082  -0.44988  -0.44587
 Alpha  occ. eigenvalues --   -0.44396  -0.44193  -0.44119  -0.44055  -0.43905
 Alpha  occ. eigenvalues --   -0.43808  -0.43739  -0.43551  -0.43439  -0.43101
 Alpha  occ. eigenvalues --   -0.42968  -0.42735  -0.42495  -0.42343  -0.42083
 Alpha  occ. eigenvalues --   -0.41865  -0.41364  -0.41216  -0.41030  -0.40925
 Alpha  occ. eigenvalues --   -0.40307  -0.39907  -0.39892  -0.39504  -0.39195
 Alpha  occ. eigenvalues --   -0.39137  -0.38784  -0.38586  -0.38432  -0.38034
 Alpha  occ. eigenvalues --   -0.37495  -0.37290  -0.37233  -0.36853  -0.36665
 Alpha  occ. eigenvalues --   -0.36110  -0.35944  -0.35536  -0.33596  -0.32908
 Alpha  occ. eigenvalues --   -0.32600  -0.31980  -0.31270  -0.31011  -0.26320
 Alpha  occ. eigenvalues --   -0.23673
 Alpha virt. eigenvalues --   -0.07705  -0.00880   0.02387   0.03956   0.04331
 Alpha virt. eigenvalues --    0.06375   0.07112   0.07659   0.07961   0.09083
 Alpha virt. eigenvalues --    0.10605   0.10769   0.11460   0.12008   0.12406

 Mulliken charges:
               1
     1  Mg   0.936312
     2  C   -0.000121
     3  C   -0.077260
     4  C   -0.089329
     5  C   -0.090317
     6  N   -0.330156
     7  C   -0.015155
     8  C   -0.045101
     9  C   -0.142272
    10  C    0.068988
    11  C    0.024041
    12  C   -0.005857
    13  C    0.005338
    14  C    0.235255
    15  O   -0.291516
    16  O   -0.371205
    17  N   -0.514984
    18  C    0.164896
    19  C   -0.137469
    20  C   -0.085859
    21  C    0.221385
    22  C    0.075018
    23  C    0.057587
    24  O   -0.258296
    25  C   -0.026226
    26  N   -0.357446
    27  C    0.072320
    28  C   -0.126843
    29  C   -0.079826
    30  C    0.057182
    31  C    0.014959
    32  C   -0.012404
    33  C   -0.050616
    34  N   -0.414252
    35  C    0.169533
    36  C   -0.215184
    37  C   -0.028132
    38  C    0.123737
    39  C    0.080407
    40  C    0.109289
    41  O   -0.226391
    42  C   -0.077089
    43  C    0.263696
    44  O   -0.232883
    45  O   -0.370269
    46  C    0.132090
    47  C    0.272520
    48  C   -0.144396
    49  C   -0.221392
    50  C    0.064226
    51  C    0.018819
    52  C   -0.041940
    53  C    0.029210
    54  C   -0.207099
    55  C   -0.013016
    56  C    0.000208
    57  C   -0.058306
    58  C    0.021837
    59  C   -0.188689
    60  C    0.017116
    61  C   -0.003261
    62  C   -0.069793
    63  C   -0.005069
    64  C   -0.177190
    65  C   -0.024131
    66  C    0.025935
    67  H    0.004359
    68  H   -0.030571
    69  H    0.012975
    70  H    0.036988
    71  H    0.050304
    72  H    0.035396
    73  H    0.037390
    74  H    0.039030
    75  H    0.074520
    76  H    0.044937
    77  H    0.053351
    78  H    0.062377
    79  H    0.064537
    80  H    0.064430
    81  H    0.008551
    82  H    0.050979
    83  H    0.063952
    84  H    0.075602
    85  H    0.042522
    86  H    0.049967
    87  H    0.053208
    88  H    0.034320
    89  H    0.031917
    90  H    0.046049
    91  H    0.020804
    92  H    0.053719
    93  H    0.032219
    94  H    0.021836
    95  H    0.062646
    96  H    0.034095
    97  H    0.063811
    98  H    0.082380
    99  H    0.059525
   100  H    0.050708
   101  H    0.063675
   102  H    0.072918
   103  H    0.048979
   104  H    0.026784
   105  H    0.053686
   106  H    0.027677
   107  H    0.042476
   108  H    0.015054
   109  H    0.020429
   110  H    0.010307
   111  H    0.018504
   112  H    0.015520
   113  H    0.021721
   114  H    0.029548
   115  H    0.036091
   116  H    0.025126
   117  H    0.046955
   118  H    0.009324
   119  H    0.021971
   120  H    0.027714
   121  H    0.013812
   122  H    0.014142
   123  H    0.005528
   124  H    0.017511
   125  H    0.032261
   126  H    0.034693
   127  H    0.039128
   128  H    0.010188
   129  H    0.023178
   130  H    0.022210
   131  H    0.020273
   132  H    0.014080
   133  H    0.019768
   134  H    0.020799
   135  H    0.023551
   136  H    0.016586
   137  H    0.025139
   138  H    0.027681
   139  H    0.025180
   140  H    0.035830
 Sum of Mulliken charges =  -0.00000

 Dipole moment (field-independent basis, Debye):
    X=              0.2739    Y=              3.6237    Z=              2.8112  Tot=              4.5945
 Quadrupole moment (field-independent basis, Debye-Ang):
   XX=           -406.3518   YY=           -383.4051   ZZ=           -406.6787
   XY=            -52.3939   XZ=            -13.6877   YZ=            -40.5553

 Normal termination of Gaussian 16 at Wed May  4 05:34:52 2022.
