 Gaussian 16, Revision A.03,
 Gaussian 16:  ES64L-G16RevA.03 25-Dec-2016

 --------------------
 #p ZINDO=(nstates=5)
 --------------------

 ------------------------------
 step_1401_chromophore_11 ZINDO
 ------------------------------
 Symbolic Z-matrix:
 Charge =  0 Multiplicity = 1

                         Standard orientation:
 ---------------------------------------------------------------------
 Center     Atomic      Atomic             Coordinates (Angstroms)
 Number     Number       Type             X           Y           Z
 ---------------------------------------------------------------------
      1         12           0       -4.696835    1.411621    0.756186
      2          6           0       -5.730702   -1.966594    0.087889
      3          6           0       -1.883091    0.106302    2.392137
      4          6           0       -3.256623    4.334460    0.493149
      5          6           0       -7.303350    2.451399   -1.545271
      6          7           0       -3.856629   -0.730499    0.968717
      7          6           0       -4.480593   -1.913646    0.743839
      8          6           0       -3.710835   -3.083093    1.334863
      9          6           0       -2.667355   -2.333184    2.323168
     10          6           0       -2.795256   -0.859023    1.878096
     11          6           0       -2.876712   -2.660815    3.832235
     12          6           0       -3.083066   -3.910908    0.145075
     13          6           0       -1.757341   -3.416889   -0.457171
     14          6           0       -0.529496   -4.316036   -0.273602
     15          8           0       -0.089245   -5.283676   -0.958576
     16          8           0        0.095662   -3.870991    0.854670
     17          7           0       -2.892952    2.154377    1.427665
     18          6           0       -1.884889    1.534727    2.183490
     19          6           0       -0.974898    2.475098    2.666057
     20          6           0       -1.366182    3.741761    2.093930
     21          6           0       -2.551937    3.503452    1.269953
     22          6           0        0.094869    2.152254    3.831892
     23          6           0       -0.673702    5.086152    2.449727
     24          8           0        0.306800    5.148444    3.241875
     25          6           0       -1.269110    6.401218    1.887377
     26          7           0       -5.183054    3.172477   -0.428778
     27          6           0       -4.394902    4.244032   -0.265671
     28          6           0       -4.988281    5.436265   -0.972468
     29          6           0       -6.357244    4.835946   -1.584829
     30          6           0       -6.249599    3.397369   -1.263221
     31          6           0       -5.219563    6.702176   -0.058287
     32          6           0       -6.521829    5.071792   -3.100794
     33          6           0       -7.691857    6.063751   -3.387959
     34          7           0       -6.372409    0.488019   -0.302790
     35          6           0       -7.303029    1.109096   -1.111099
     36          6           0       -8.210017    0.098337   -1.529109
     37          6           0       -7.697953   -1.150161   -1.018992
     38          6           0       -6.525744   -0.849484   -0.342719
     39          6           0       -9.424797    0.291184   -2.373982
     40          6           0       -7.832948   -2.614510   -0.996192
     41          8           0       -8.746017   -3.289801   -1.489718
     42          6           0       -6.654549   -3.223690   -0.121010
     43          6           0       -6.173092   -4.410780   -0.930421
     44          8           0       -5.799717   -4.410083   -2.081457
     45          8           0       -6.408325   -5.508432   -0.124037
     46          6           0       -6.055327   -6.767562   -0.843572
     47          6           0        1.455280   -4.523045    1.146832
     48          6           0        2.561406   -3.944600    0.319051
     49          6           0        3.928077   -4.151885    0.374009
     50          6           0        4.558616   -5.181528    1.286217
     51          6           0        4.780001   -3.415888   -0.613240
     52          6           0        5.735106   -2.426057   -0.083339
     53          6           0        6.541213   -1.693265   -1.142091
     54          6           0        6.377772   -0.143214   -0.922598
     55          6           0        6.398316    0.609731   -2.322135
     56          6           0        7.530526    0.502968   -0.066723
     57          6           0        8.926463    0.680233   -0.704570
     58          6           0       10.141226   -0.048012   -0.041848
     59          6           0       11.232610    0.864263    0.488344
     60          6           0       10.610995    1.950527    1.411578
     61          6           0       12.106602    1.395951   -0.701224
     62          6           0       13.414919    0.473147   -0.918385
     63          6           0       14.690175    1.037133   -0.321776
     64          6           0       15.971174    1.126379   -1.114064
     65          6           0       15.718702    2.114697   -2.265971
     66          6           0       16.407570   -0.187623   -1.578658
     67          1           0       -1.154873   -0.326970    3.081728
     68          1           0       -2.777622    5.305995    0.352500
     69          1           0       -8.030495    2.768917   -2.295226
     70          1           0       -4.375212   -3.729462    1.907261
     71          1           0       -1.613912   -2.588256    2.210371
     72          1           0       -3.835904   -3.165811    3.941295
     73          1           0       -2.829188   -1.768904    4.456326
     74          1           0       -2.074949   -3.324169    4.157795
     75          1           0       -3.791988   -3.978990   -0.680613
     76          1           0       -2.901885   -4.901240    0.561746
     77          1           0       -1.524529   -2.440088   -0.033496
     78          1           0       -1.923740   -3.168527   -1.504984
     79          1           0       -0.352756    2.587124    4.725844
     80          1           0        1.159878    2.368495    3.739368
     81          1           0        0.120906    1.068432    3.949269
     82          1           0       -0.690293    7.244099    2.267299
     83          1           0       -2.283696    6.500627    2.272299
     84          1           0       -1.168130    6.396540    0.802079
     85          1           0       -4.311067    5.913493   -1.679939
     86          1           0       -7.196745    5.239705   -1.018741
     87          1           0       -5.019875    6.459363    0.985275
     88          1           0       -6.224715    7.013674   -0.341720
     89          1           0       -4.536745    7.475191   -0.410354
     90          1           0       -6.556284    4.192686   -3.744867
     91          1           0       -5.596307    5.564771   -3.397468
     92          1           0       -8.584161    5.540084   -3.731508
     93          1           0       -7.416393    6.838877   -4.102913
     94          1           0       -7.795896    6.660804   -2.481667
     95          1           0       -9.164273    0.376972   -3.429640
     96          1           0       -9.964337    1.183710   -2.055054
     97          1           0      -10.044381   -0.569805   -2.126165
     98          1           0       -7.143584   -3.561631    0.791627
     99          1           0       -6.441533   -7.708864   -0.452209
    100          1           0       -4.974491   -6.866290   -0.941462
    101          1           0       -6.456156   -6.685521   -1.854159
    102          1           0        1.459607   -5.611759    1.199783
    103          1           0        1.698547   -4.194689    2.157217
    104          1           0        2.312975   -3.183857   -0.421694
    105          1           0        5.202824   -5.835318    0.700031
    106          1           0        3.790841   -5.659377    1.895330
    107          1           0        5.162184   -4.544400    1.933674
    108          1           0        4.253527   -2.834221   -1.370770
    109          1           0        5.379289   -4.116278   -1.194456
    110          1           0        6.435021   -2.993555    0.530757
    111          1           0        5.206226   -1.682178    0.513439
    112          1           0        6.198700   -2.023353   -2.122454
    113          1           0        7.583856   -1.988604   -1.020813
    114          1           0        5.413690    0.015629   -0.438635
    115          1           0        6.703110    1.650652   -2.214862
    116          1           0        5.330801    0.613427   -2.542972
    117          1           0        6.902815    0.018164   -3.086980
    118          1           0        7.655255   -0.017345    0.882965
    119          1           0        7.089039    1.468679    0.180963
    120          1           0        9.188264    1.716657   -0.916556
    121          1           0        8.760361    0.239391   -1.687528
    122          1           0       10.507612   -0.851639   -0.681138
    123          1           0        9.697071   -0.553312    0.816065
    124          1           0       11.937893    0.235121    1.032717
    125          1           0       10.920187    2.879837    0.932638
    126          1           0       11.079861    1.728066    2.369172
    127          1           0        9.533650    1.858024    1.551606
    128          1           0       12.522032    2.381855   -0.494997
    129          1           0       11.526708    1.425472   -1.623655
    130          1           0       13.423376    0.271918   -1.989460
    131          1           0       13.146221   -0.465473   -0.434191
    132          1           0       14.917156    0.304003    0.452411
    133          1           0       14.575072    2.071856    0.000916
    134          1           0       16.576588    1.723350   -0.431878
    135          1           0       16.211842    3.073168   -2.100519
    136          1           0       14.670107    2.412265   -2.283916
    137          1           0       15.970725    1.733461   -3.256075
    138          1           0       17.145681   -0.539121   -0.858471
    139          1           0       16.907954   -0.152306   -2.545727
    140          1           0       15.588233   -0.904836   -1.617319
 ---------------------------------------------------------------------

 SCF Done:  E(RZINDO/S) =  -473.921032417     A.U. after   19 cycles

 Excitation energies and oscillator strengths:

 Excited State   1:      Singlet-A      1.2405 eV  999.45 nm  f=0.6045  <S**2>=0.000
     175 ->178         0.19881
     176 ->177         0.65913
 This state for optimization and/or second-order correction.
 Total Energy, E(CIS/TDA) =  -473.875443788
 Copying the excited state density for this state as the 1-particle RhoCI density.

 Excited State   2:      Singlet-A      1.8863 eV  657.27 nm  f=0.0535  <S**2>=0.000
     175 ->177         0.55354
     176 ->178        -0.41309

 Excited State   3:      Singlet-A      2.9297 eV  423.19 nm  f=0.5938  <S**2>=0.000
     170 ->177         0.17762
     170 ->179        -0.18169
     170 ->181         0.14346
     170 ->185        -0.10065
     172 ->177         0.15823
     173 ->177         0.16496
     175 ->177         0.26926
     176 ->178         0.41873
     176 ->180         0.20311

 Excited State   4:      Singlet-A      2.9821 eV  415.76 nm  f=0.2868  <S**2>=0.000
     170 ->177         0.24492
     170 ->179        -0.27942
     170 ->181         0.22801
     170 ->185        -0.15524
     170 ->187         0.10433
     172 ->177         0.13246
     173 ->177         0.15744
     175 ->177        -0.19111
     176 ->178        -0.24896
     176 ->180        -0.23873

 Excited State   5:      Singlet-A      3.0070 eV  412.32 nm  f=0.0019  <S**2>=0.000
     168 ->177         0.29979
     168 ->178         0.20616
     168 ->179         0.31231
     168 ->181         0.33510
     168 ->184         0.11062
     168 ->185         0.23156
     168 ->187         0.13604

 The electronic state is 1-A.
 Alpha  occ. eigenvalues --   -1.83403  -1.81242  -1.78464  -1.72423  -1.71768
 Alpha  occ. eigenvalues --   -1.68774  -1.66599  -1.63630  -1.58163  -1.57096
 Alpha  occ. eigenvalues --   -1.54815  -1.50931  -1.48829  -1.46447  -1.45342
 Alpha  occ. eigenvalues --   -1.44176  -1.42279  -1.41627  -1.38331  -1.38041
 Alpha  occ. eigenvalues --   -1.35455  -1.34117  -1.32656  -1.30070  -1.27290
 Alpha  occ. eigenvalues --   -1.26953  -1.23965  -1.23413  -1.20652  -1.17746
 Alpha  occ. eigenvalues --   -1.17491  -1.17225  -1.15277  -1.14358  -1.13943
 Alpha  occ. eigenvalues --   -1.13099  -1.10106  -1.09200  -1.05215  -1.03732
 Alpha  occ. eigenvalues --   -1.03133  -1.00861  -1.00445  -0.99152  -0.98208
 Alpha  occ. eigenvalues --   -0.97272  -0.96417  -0.93710  -0.92563  -0.91972
 Alpha  occ. eigenvalues --   -0.90642  -0.88472  -0.87624  -0.85551  -0.84919
 Alpha  occ. eigenvalues --   -0.83907  -0.83825  -0.82840  -0.81866  -0.81106
 Alpha  occ. eigenvalues --   -0.79628  -0.78458  -0.78386  -0.77085  -0.76801
 Alpha  occ. eigenvalues --   -0.76425  -0.76037  -0.74564  -0.73892  -0.73504
 Alpha  occ. eigenvalues --   -0.72958  -0.72752  -0.72166  -0.71112  -0.70973
 Alpha  occ. eigenvalues --   -0.70505  -0.69647  -0.68955  -0.68398  -0.67872
 Alpha  occ. eigenvalues --   -0.67803  -0.67094  -0.66360  -0.66230  -0.65868
 Alpha  occ. eigenvalues --   -0.65378  -0.65037  -0.64731  -0.64489  -0.63991
 Alpha  occ. eigenvalues --   -0.63392  -0.62955  -0.62717  -0.62023  -0.61877
 Alpha  occ. eigenvalues --   -0.61561  -0.61277  -0.60933  -0.60361  -0.59975
 Alpha  occ. eigenvalues --   -0.59881  -0.59409  -0.58860  -0.58547  -0.58317
 Alpha  occ. eigenvalues --   -0.58150  -0.57454  -0.56920  -0.56456  -0.55887
 Alpha  occ. eigenvalues --   -0.55791  -0.55223  -0.55150  -0.55074  -0.54754
 Alpha  occ. eigenvalues --   -0.54633  -0.53381  -0.53274  -0.53059  -0.52767
 Alpha  occ. eigenvalues --   -0.52570  -0.51995  -0.51708  -0.51665  -0.51346
 Alpha  occ. eigenvalues --   -0.51222  -0.50907  -0.50795  -0.50678  -0.50574
 Alpha  occ. eigenvalues --   -0.49889  -0.49614  -0.49431  -0.49341  -0.48911
 Alpha  occ. eigenvalues --   -0.48532  -0.48392  -0.48115  -0.47897  -0.47756
 Alpha  occ. eigenvalues --   -0.47495  -0.47184  -0.46761  -0.46574  -0.46249
 Alpha  occ. eigenvalues --   -0.45995  -0.45862  -0.45713  -0.45468  -0.45368
 Alpha  occ. eigenvalues --   -0.45079  -0.44776  -0.44678  -0.44531  -0.44131
 Alpha  occ. eigenvalues --   -0.43261  -0.42967  -0.42882  -0.42755  -0.42456
 Alpha  occ. eigenvalues --   -0.42439  -0.41869  -0.41640  -0.39841  -0.38906
 Alpha  occ. eigenvalues --   -0.38680  -0.37407  -0.36049  -0.35669  -0.35083
 Alpha  occ. eigenvalues --   -0.33242  -0.32919  -0.32260  -0.30878  -0.27033
 Alpha  occ. eigenvalues --   -0.22474
 Alpha virt. eigenvalues --   -0.09265  -0.03014  -0.00691   0.00296   0.01016
 Alpha virt. eigenvalues --    0.01367   0.02204   0.02441   0.04228   0.04998
 Alpha virt. eigenvalues --    0.05552   0.06505   0.06650   0.07545   0.07908

 Mulliken charges:
               1
     1  Mg   0.430407
     2  C   -0.069948
     3  C   -0.081108
     4  C   -0.054366
     5  C   -0.061190
     6  N   -0.299931
     7  C    0.151222
     8  C    0.005438
     9  C   -0.008581
    10  C    0.126103
    11  C   -0.050205
    12  C   -0.016009
    13  C    0.010944
    14  C    0.473161
    15  O   -0.525483
    16  O   -0.273074
    17  N   -0.349734
    18  C    0.121929
    19  C    0.023315
    20  C   -0.045232
    21  C    0.127600
    22  C   -0.040797
    23  C    0.315888
    24  O   -0.526981
    25  C   -0.028991
    26  N   -0.259084
    27  C    0.138756
    28  C   -0.015977
    29  C    0.008926
    30  C    0.109545
    31  C   -0.061297
    32  C   -0.032661
    33  C   -0.062810
    34  N   -0.339556
    35  C    0.099935
    36  C    0.042017
    37  C   -0.062649
    38  C    0.135302
    39  C   -0.039354
    40  C    0.330855
    41  O   -0.523064
    42  C    0.046316
    43  C    0.496510
    44  O   -0.505285
    45  O   -0.269126
    46  C    0.066483
    47  C    0.111836
    48  C   -0.092285
    49  C   -0.016725
    50  C   -0.043633
    51  C   -0.010865
    52  C   -0.028611
    53  C   -0.036697
    54  C   -0.019122
    55  C   -0.066637
    56  C   -0.030808
    57  C   -0.037459
    58  C   -0.029223
    59  C   -0.012313
    60  C   -0.062373
    61  C   -0.047864
    62  C   -0.041834
    63  C   -0.027858
    64  C   -0.004608
    65  C   -0.063706
    66  C   -0.042216
    67  H    0.033887
    68  H    0.016198
    69  H    0.038143
    70  H    0.033372
    71  H    0.036521
    72  H    0.022257
    73  H    0.025614
    74  H    0.020898
    75  H    0.045417
    76  H    0.023370
    77  H    0.034833
    78  H    0.040242
    79  H    0.037886
    80  H    0.047834
    81  H    0.011055
    82  H    0.032732
    83  H    0.040168
    84  H    0.041492
    85  H    0.037401
    86  H    0.041067
    87  H    0.033390
    88  H    0.026370
    89  H    0.017619
    90  H    0.031675
    91  H    0.013540
    92  H    0.030116
    93  H    0.016284
    94  H    0.019219
    95  H    0.042285
    96  H    0.021542
    97  H    0.036124
    98  H    0.060808
    99  H    0.038206
   100  H    0.038429
   101  H    0.047223
   102  H    0.063432
   103  H    0.029160
   104  H    0.030805
   105  H    0.037201
   106  H    0.027499
   107  H    0.026838
   108  H    0.019223
   109  H    0.017655
   110  H    0.009994
   111  H    0.020872
   112  H    0.022010
   113  H    0.019578
   114  H    0.027525
   115  H    0.025978
   116  H    0.006783
   117  H    0.030607
   118  H    0.012526
   119  H    0.010162
   120  H    0.023701
   121  H    0.011503
   122  H    0.016078
   123  H    0.006594
   124  H    0.016718
   125  H    0.028928
   126  H    0.018880
   127  H    0.028921
   128  H    0.017481
   129  H    0.021612
   130  H    0.017990
   131  H    0.016729
   132  H    0.009363
   133  H    0.020676
   134  H    0.022740
   135  H    0.012031
   136  H    0.013393
   137  H    0.018978
   138  H    0.010645
   139  H    0.015631
   140  H    0.025188
 Sum of Mulliken charges =  -0.00000

 Dipole moment (field-independent basis, Debye):
    X=             -1.0399    Y=              5.5729    Z=              3.8021  Tot=              6.8260
 N-N= 4.324505855367D+03 E-N= 0.000000000000D+00  KE=-9.322775907113D+03
 Leave Link  601 at Wed May  4 05:48:21 2022, MaxMem=  6710886400 cpu:               0.8 elap:               0.0
 (Enter /sw/apps/gaussian-16.0/g16/l9999.exe)
 1\1\GINC-BP1-COMPUTE121\SP\RZINDO CIS\STO-3G\C55H74Mg1N4O6\OF15641\04-
 May-2022\0\\#p ZINDO=(nstates=5)\\step_1401_chromophore_11 ZINDO\\0,1\
 Mg,0,52.652,24.598,44.687\C,0,49.834,26.726,44.01\C,0,50.955,22.015,43
 .03\C,0,55.489,23.002,44.386\C,0,54.411,27.597,45.728\N,0,50.688,24.53
 6,43.471\C,0,49.68,25.443,43.439\C,0,48.423,24.873,42.803\C,0,48.739,2
 3.283,42.801\C,0,50.249,23.248,43.127\C,0,47.779,22.445,43.698\C,0,48.
 233,25.555,41.391\C,0,49.024,24.985,40.202\C,0,48.216,24.33,39.076\O,0

 Normal termination of Gaussian 16 at Wed May  4 05:48:21 2022.
