 Gaussian 16, Revision A.03,
 Gaussian 16:  ES64L-G16RevA.03 25-Dec-2016

 ------------------------------
 #p blyp/Def2SVP td=(nstates=5)
 ------------------------------

 ---------------------------------------------------
 step_1301_chromophore_24 TDDFT with blyp functional
 ---------------------------------------------------
 Symbolic Z-matrix:
 Charge =  0 Multiplicity = 1

                         Standard orientation:
 ---------------------------------------------------------------------
 Center     Atomic      Atomic             Coordinates (Angstroms)
 Number     Number       Type             X           Y           Z
 ---------------------------------------------------------------------
      1         12           0        5.240866    0.963851    0.144314
      2          6           0        4.623534   -2.242399   -0.135491
      3          6           0        1.785973    1.687658   -0.081792
      4          6           0        5.826772    4.508811    0.028654
      5          6           0        8.541909    0.559065    0.165234
      6          7           0        3.368280   -0.139265   -0.216636
      7          6           0        3.404696   -1.497858   -0.146665
      8          6           0        2.055807   -2.127182   -0.165444
      9          6           0        1.064201   -0.843118   -0.087202
     10          6           0        2.109345    0.312349   -0.074578
     11          6           0        0.207945   -0.816143   -1.319299
     12          6           0        1.790225   -3.004382    1.208622
     13          6           0        0.810079   -4.240113    1.165421
     14          6           0       -0.073379   -4.509428   -0.042883
     15          8           0        0.229170   -5.234331   -0.970552
     16          8           0       -1.287700   -3.857517    0.110297
     17          7           0        3.942621    2.832661   -0.025184
     18          6           0        2.543965    2.882196   -0.149890
     19          6           0        2.141213    4.241814   -0.308040
     20          6           0        3.296693    5.058704   -0.111609
     21          6           0        4.426843    4.113031    0.000236
     22          6           0        0.706394    4.474551   -0.683726
     23          6           0        3.432213    6.554312   -0.067083
     24          8           0        4.427767    7.168592    0.307278
     25          6           0        2.279844    7.398607   -0.506369
     26          7           0        6.912420    2.340398    0.216338
     27          6           0        6.920746    3.691698    0.176895
     28          6           0        8.357864    4.250803    0.163257
     29          6           0        9.187390    2.987347    0.557598
     30          6           0        8.148229    1.856252    0.147081
     31          6           0        8.741361    4.740164   -1.254574
     32          6           0        9.624359    2.934924    2.049266
     33          6           0        8.664426    3.370713    3.136537
     34          7           0        6.440473   -0.575181   -0.014893
     35          6           0        7.798958   -0.597758   -0.046931
     36          6           0        8.171620   -2.029288   -0.064526
     37          6           0        6.946945   -2.709466   -0.232821
     38          6           0        5.939839   -1.799220   -0.164983
     39          6           0        9.603354   -2.505707   -0.029837
     40          6           0        6.348437   -3.909586   -0.361994
     41          8           0        6.893362   -5.009254   -0.560251
     42          6           0        4.808096   -3.660725   -0.259176
     43          6           0        4.059913   -4.370252   -1.332350
     44          8           0        3.947753   -3.998078   -2.517638
     45          8           0        3.687013   -5.587325   -0.817586
     46          6           0        3.072020   -6.572896   -1.770486
     47          6           0       -2.290788   -4.021352   -0.928271
     48          6           0       -3.606236   -3.378950   -0.549487
     49          6           0       -4.569020   -3.880082    0.271638
     50          6           0       -4.450633   -5.182735    0.967766
     51          6           0       -5.924101   -3.231928    0.404264
     52          6           0       -6.239148   -2.453196    1.584282
     53          6           0       -7.053204   -1.241905    1.254813
     54          6           0       -8.585740   -1.472133    1.626530
     55          6           0       -8.834061   -1.598868    3.161186
     56          6           0       -9.492973   -0.402086    0.960419
     57          6           0      -10.656219   -1.002503    0.271692
     58          6           0      -12.020584   -0.634232    0.956900
     59          6           0      -12.840151    0.675927    0.579133
     60          6           0      -14.075314    0.758618    1.594155
     61          6           0      -13.371068    0.635146   -0.857543
     62          6           0      -12.825952    1.705219   -1.766708
     63          6           0      -13.624480    2.990038   -1.683527
     64          6           0      -12.773572    4.182184   -1.197012
     65          6           0      -13.594677    5.105170   -0.203672
     66          6           0      -12.261442    5.016924   -2.349797
     67          1           0        0.731384    1.970084   -0.052898
     68          1           0        6.084984    5.567986   -0.032073
     69          1           0        9.612209    0.447359    0.349293
     70          1           0        1.861459   -2.748253   -1.040232
     71          1           0        0.480168   -0.896687    0.831105
     72          1           0       -0.777191   -0.540709   -0.941922
     73          1           0        0.083848   -1.817575   -1.731496
     74          1           0        0.433444   -0.189735   -2.182772
     75          1           0        1.206239   -2.395042    1.898752
     76          1           0        2.694241   -3.212389    1.779393
     77          1           0        0.169202   -4.244163    2.047250
     78          1           0        1.547605   -5.036211    1.262708
     79          1           0        0.463976    3.811309   -1.514154
     80          1           0        0.522683    5.476376   -1.073057
     81          1           0        0.085837    4.172691    0.160338
     82          1           0        1.374943    7.317906    0.096309
     83          1           0        2.028084    7.189150   -1.545843
     84          1           0        2.599489    8.439732   -0.465001
     85          1           0        8.340779    4.951610    0.997310
     86          1           0       10.031936    2.824411   -0.113288
     87          1           0        9.214303    3.862929   -1.694060
     88          1           0        9.315545    5.659362   -1.137892
     89          1           0        7.822959    4.928989   -1.809531
     90          1           0       10.599519    3.391510    2.223727
     91          1           0        9.682020    1.863294    2.241031
     92          1           0        9.054952    4.019787    3.920485
     93          1           0        8.357016    2.458552    3.647122
     94          1           0        7.668843    3.698062    2.836147
     95          1           0       10.412304   -1.931989    0.421378
     96          1           0        9.931885   -2.640282   -1.059920
     97          1           0        9.782893   -3.428471    0.521025
     98          1           0        4.562655   -4.199462    0.656135
     99          1           0        2.703695   -7.399565   -1.163369
    100          1           0        3.705069   -7.058789   -2.512860
    101          1           0        2.266684   -6.057730   -2.295633
    102          1           0       -2.411713   -5.097028   -1.061196
    103          1           0       -1.915297   -3.448245   -1.775909
    104          1           0       -3.863152   -2.440006   -1.040075
    105          1           0       -4.428963   -5.026820    2.046818
    106          1           0       -3.477172   -5.599641    0.707582
    107          1           0       -5.302038   -5.828436    0.754908
    108          1           0       -6.646587   -4.048033    0.430110
    109          1           0       -6.109651   -2.734454   -0.547523
    110          1           0       -5.255781   -2.190254    1.973649
    111          1           0       -6.771803   -3.080847    2.298734
    112          1           0       -6.896505   -0.816908    0.263343
    113          1           0       -6.630384   -0.462182    1.890204
    114          1           0       -8.834296   -2.402233    1.116056
    115          1           0       -8.604169   -2.651200    3.328540
    116          1           0       -9.897863   -1.471343    3.366134
    117          1           0       -8.139221   -0.958130    3.703835
    118          1           0       -8.835729    0.110140    0.258442
    119          1           0       -9.905092    0.392196    1.583462
    120          1           0      -10.542272   -2.077195    0.132429
    121          1           0      -10.756487   -0.752630   -0.784402
    122          1           0      -11.901326   -0.714926    2.037237
    123          1           0      -12.684058   -1.450450    0.671815
    124          1           0      -12.253809    1.586589    0.708157
    125          1           0      -14.072793   -0.052772    2.322372
    126          1           0      -15.039438    0.866007    1.097762
    127          1           0      -13.773713    1.615709    2.196424
    128          1           0      -14.455598    0.668673   -0.949177
    129          1           0      -13.086926   -0.300633   -1.338454
    130          1           0      -12.761986    1.340960   -2.792166
    131          1           0      -11.806186    2.009609   -1.533863
    132          1           0      -14.267569    2.694040   -0.856076
    133          1           0      -14.170977    3.228387   -2.596370
    134          1           0      -11.907031    3.892063   -0.602038
    135          1           0      -14.675417    4.963318   -0.222308
    136          1           0      -13.363502    6.168264   -0.266978
    137          1           0      -13.166074    4.872570    0.771598
    138          1           0      -13.148749    5.576590   -2.646332
    139          1           0      -11.727780    4.492403   -3.142680
    140          1           0      -11.555235    5.699198   -1.875993
 ---------------------------------------------------------------------

 SCF Done:  E(RB-LYP) =  -3007.32832762     A.U. after   22 cycles

 Excitation energies and oscillator strengths:

 Excited State   1:      Singlet-A      1.7132 eV  723.69 nm  f=0.0244  <S**2>=0.000
     243 -> 247        0.14077
     244 -> 247        0.57760
     245 -> 247        0.30633
     246 -> 247        0.22082
 This state for optimization and/or second-order correction.
 Total Energy, E(TD-HF/TD-DFT) =  -3007.26536765
 Copying the excited state density for this state as the 1-particle RhoCI density.

 Excited State   2:      Singlet-A      1.8023 eV  687.92 nm  f=0.0684  <S**2>=0.000
     243 -> 247        0.46313
     244 -> 247       -0.35514
     245 -> 247        0.20230
     246 -> 247        0.33308

 Excited State   3:      Singlet-A      1.8518 eV  669.52 nm  f=0.2563  <S**2>=0.000
     243 -> 247       -0.27576
     245 -> 247       -0.29402
     245 -> 248       -0.15610
     246 -> 247        0.55878
     246 <- 247       -0.12579

 Excited State   4:      Singlet-A      1.9548 eV  634.25 nm  f=0.0591  <S**2>=0.000
     241 -> 247       -0.10311
     243 -> 247       -0.43128
     244 -> 247       -0.19321
     245 -> 247        0.47743
     246 -> 248        0.16094

 Excited State   5:      Singlet-A      2.3964 eV  517.37 nm  f=0.0030  <S**2>=0.000
     240 -> 247        0.14970
     241 -> 247        0.33011
     242 -> 247        0.60159

 The electronic state is 1-A.
 Alpha  occ. eigenvalues --  -46.27423 -18.82250 -18.81600 -18.77769 -18.75885
 Alpha  occ. eigenvalues --  -18.75362 -18.74577 -14.03808 -14.02711 -14.00655
 Alpha  occ. eigenvalues --  -14.00537 -10.04790 -10.03088  -9.99550  -9.98415
 Alpha  occ. eigenvalues --   -9.98217  -9.97125  -9.96981  -9.96267  -9.95837
 Alpha  occ. eigenvalues --   -9.95592  -9.95581  -9.95475  -9.95146  -9.94783
 Alpha  occ. eigenvalues --   -9.94708  -9.94423  -9.94343  -9.93961  -9.93943
 Alpha  occ. eigenvalues --   -9.93739  -9.93618  -9.93376  -9.93178  -9.93158
 Alpha  occ. eigenvalues --   -9.93123  -9.92895  -9.92769  -9.92766  -9.92758
 Alpha  occ. eigenvalues --   -9.92692  -9.92615  -9.92538  -9.92402  -9.92365
 Alpha  occ. eigenvalues --   -9.92225  -9.92051  -9.92013  -9.91887  -9.91880
 Alpha  occ. eigenvalues --   -9.91837  -9.91698  -9.91666  -9.91573  -9.91519
 Alpha  occ. eigenvalues --   -9.91418  -9.91350  -9.91161  -9.91079  -9.90822
 Alpha  occ. eigenvalues --   -9.90758  -9.90734  -9.90681  -9.90570  -9.90373
 Alpha  occ. eigenvalues --   -9.90235  -2.92042  -1.72471  -1.71908  -1.71771
 Alpha  occ. eigenvalues --   -0.98031  -0.95717  -0.91207  -0.90923  -0.89793
 Alpha  occ. eigenvalues --   -0.87859  -0.87528  -0.86664  -0.86355  -0.83975
 Alpha  occ. eigenvalues --   -0.77518  -0.75286  -0.73556  -0.72829  -0.72412
 Alpha  occ. eigenvalues --   -0.72013  -0.71775  -0.71263  -0.71056  -0.70412
 Alpha  occ. eigenvalues --   -0.69948  -0.69557  -0.69007  -0.67911  -0.67302
 Alpha  occ. eigenvalues --   -0.66812  -0.66384  -0.65775  -0.65176  -0.64796
 Alpha  occ. eigenvalues --   -0.64414  -0.62946  -0.62344  -0.61454  -0.61100
 Alpha  occ. eigenvalues --   -0.60456  -0.59912  -0.59833  -0.59726  -0.59419
 Alpha  occ. eigenvalues --   -0.58836  -0.57984  -0.56700  -0.55951  -0.55001
 Alpha  occ. eigenvalues --   -0.54838  -0.54110  -0.52963  -0.52492  -0.52007
 Alpha  occ. eigenvalues --   -0.51485  -0.51051  -0.51032  -0.50297  -0.50047
 Alpha  occ. eigenvalues --   -0.49667  -0.49478  -0.48564  -0.47804  -0.46662
 Alpha  occ. eigenvalues --   -0.46434  -0.46013  -0.45762  -0.45476  -0.44697
 Alpha  occ. eigenvalues --   -0.44472  -0.44061  -0.43571  -0.43016  -0.42671
 Alpha  occ. eigenvalues --   -0.42561  -0.42450  -0.42173  -0.41680  -0.41454
 Alpha  occ. eigenvalues --   -0.41080  -0.40999  -0.40535  -0.40304  -0.39826
 Alpha  occ. eigenvalues --   -0.39644  -0.39365  -0.39327  -0.39139  -0.39044
 Alpha  occ. eigenvalues --   -0.39021  -0.38863  -0.38751  -0.38556  -0.38455
 Alpha  occ. eigenvalues --   -0.38247  -0.37952  -0.37927  -0.37835  -0.37405
 Alpha  occ. eigenvalues --   -0.37265  -0.37075  -0.36909  -0.36600  -0.36533
 Alpha  occ. eigenvalues --   -0.36084  -0.35955  -0.35861  -0.35827  -0.35590
 Alpha  occ. eigenvalues --   -0.35480  -0.35397  -0.35225  -0.34998  -0.34700
 Alpha  occ. eigenvalues --   -0.34629  -0.34550  -0.34483  -0.34352  -0.34049
 Alpha  occ. eigenvalues --   -0.33888  -0.33713  -0.33558  -0.33389  -0.33308
 Alpha  occ. eigenvalues --   -0.33215  -0.33017  -0.32663  -0.32468  -0.32351
 Alpha  occ. eigenvalues --   -0.32100  -0.31957  -0.31767  -0.31559  -0.31433
 Alpha  occ. eigenvalues --   -0.31283  -0.31246  -0.31074  -0.31019  -0.30589
 Alpha  occ. eigenvalues --   -0.30460  -0.30421  -0.30259  -0.30087  -0.29897
 Alpha  occ. eigenvalues --   -0.29707  -0.29509  -0.29232  -0.29068  -0.28881
 Alpha  occ. eigenvalues --   -0.28816  -0.28562  -0.27935  -0.27628  -0.27453
 Alpha  occ. eigenvalues --   -0.27157  -0.26862  -0.26723  -0.26476  -0.26232
 Alpha  occ. eigenvalues --   -0.26131  -0.25949  -0.25830  -0.25778  -0.25267
 Alpha  occ. eigenvalues --   -0.25143  -0.24791  -0.24420  -0.24201  -0.24014
 Alpha  occ. eigenvalues --   -0.22976  -0.22821  -0.22297  -0.21256  -0.20804
 Alpha  occ. eigenvalues --   -0.20773  -0.20178  -0.18548  -0.18117  -0.17071
 Alpha  occ. eigenvalues --   -0.16129
 Alpha virt. eigenvalues --   -0.11824  -0.06693  -0.06290  -0.04677  -0.03819
 Alpha virt. eigenvalues --   -0.03703  -0.02559  -0.02346  -0.01355   0.00323
 Alpha virt. eigenvalues --    0.01417   0.01753   0.01957   0.02434   0.02548

 Mulliken charges:
               1
     1  Mg   0.685288
     2  C    0.107914
     3  C   -0.019410
     4  C   -0.025209
     5  C   -0.080703
     6  N   -0.194106
     7  C   -0.022732
     8  C   -0.049142
     9  C    0.036803
    10  C    0.029655
    11  C    0.117872
    12  C    0.065329
    13  C    0.139582
    14  C    0.077376
    15  O   -0.181879
    16  O   -0.292737
    17  N   -0.242822
    18  C    0.053648
    19  C   -0.111390
    20  C    0.030158
    21  C    0.082577
    22  C    0.166210
    23  C   -0.077959
    24  O   -0.165328
    25  C    0.115564
    26  N   -0.182804
    27  C   -0.027297
    28  C    0.003340
    29  C    0.007466
    30  C    0.003286
    31  C    0.176025
    32  C    0.134298
    33  C    0.045561
    34  N   -0.327677
    35  C    0.148615
    36  C   -0.147848
    37  C    0.228705
    38  C    0.019563
    39  C    0.138885
    40  C   -0.156222
    41  O   -0.148744
    42  C    0.047715
    43  C    0.125252
    44  O   -0.212493
    45  O   -0.280583
    46  C    0.220303
    47  C    0.330603
    48  C   -0.113015
    49  C   -0.156127
    50  C    0.168788
    51  C    0.123966
    52  C    0.129746
    53  C    0.093746
    54  C   -0.101218
    55  C    0.135452
    56  C    0.149407
    57  C    0.090846
    58  C    0.053062
    59  C   -0.053585
    60  C    0.097478
    61  C    0.122491
    62  C    0.050083
    63  C    0.135081
    64  C   -0.111102
    65  C    0.081625
    66  C    0.110972
    67  H   -0.079172
    68  H   -0.041894
    69  H   -0.053635
    70  H    0.034875
    71  H   -0.009046
    72  H   -0.016409
    73  H   -0.005062
    74  H    0.004269
    75  H   -0.028765
    76  H   -0.011189
    77  H   -0.003856
    78  H    0.000369
    79  H   -0.000187
    80  H   -0.018262
    81  H    0.012487
    82  H    0.011695
    83  H    0.008144
    84  H   -0.014304
    85  H   -0.022650
    86  H   -0.043044
    87  H   -0.008970
    88  H    0.008235
    89  H   -0.012187
    90  H   -0.011655
    91  H   -0.038514
    92  H   -0.004527
    93  H   -0.027026
    94  H    0.000795
    95  H   -0.020161
    96  H    0.012110
    97  H   -0.000742
    98  H   -0.004682
    99  H    0.006014
   100  H    0.014948
   101  H    0.030313
   102  H    0.005099
   103  H   -0.008313
   104  H   -0.044011
   105  H   -0.004885
   106  H   -0.018570
   107  H    0.001546
   108  H   -0.046188
   109  H   -0.031845
   110  H   -0.039541
   111  H   -0.035277
   112  H   -0.033737
   113  H   -0.045557
   114  H   -0.040524
   115  H   -0.018600
   116  H   -0.009188
   117  H   -0.001891
   118  H   -0.057683
   119  H   -0.034296
   120  H   -0.046167
   121  H   -0.047073
   122  H   -0.030875
   123  H   -0.039330
   124  H   -0.026122
   125  H   -0.019902
   126  H    0.000585
   127  H   -0.018998
   128  H   -0.035469
   129  H   -0.043409
   130  H   -0.049574
   131  H   -0.038310
   132  H   -0.042399
   133  H   -0.027582
   134  H   -0.035131
   135  H   -0.002013
   136  H   -0.029987
   137  H   -0.024124
   138  H   -0.011655
   139  H   -0.012221
   140  H   -0.023301
 Sum of Mulliken charges =  -0.00000

 Dipole moment (field-independent basis, Debye):
    X=             -5.2554    Y=              0.9393    Z=              3.2109  Tot=              6.2299
 Quadrupole moment (field-independent basis, Debye-Ang):
   XX=           -388.8702   YY=           -439.5960   ZZ=           -407.9903
   XY=             26.9873   XZ=             14.1254   YZ=            -16.7545

 Normal termination of Gaussian 16 at Wed Apr 27 21:33:20 2022.
