 Gaussian 16, Revision A.03,
 Gaussian 16:  ES64L-G16RevA.03 25-Dec-2016

 -----------------------------------
 #p cam-b3lyp/Def2SVP td=(nstates=5)
 -----------------------------------

 --------------------------------------------------------
 step_1301_chromophore_24 TDDFT with cam-b3lyp functional
 --------------------------------------------------------
 Symbolic Z-matrix:
 Charge =  0 Multiplicity = 1

                         Standard orientation:
 ---------------------------------------------------------------------
 Center     Atomic      Atomic             Coordinates (Angstroms)
 Number     Number       Type             X           Y           Z
 ---------------------------------------------------------------------
      1         12           0        5.240866    0.963851    0.144314
      2          6           0        4.623534   -2.242399   -0.135491
      3          6           0        1.785973    1.687658   -0.081792
      4          6           0        5.826772    4.508811    0.028654
      5          6           0        8.541909    0.559065    0.165234
      6          7           0        3.368280   -0.139265   -0.216636
      7          6           0        3.404696   -1.497858   -0.146665
      8          6           0        2.055807   -2.127182   -0.165444
      9          6           0        1.064201   -0.843118   -0.087202
     10          6           0        2.109345    0.312349   -0.074578
     11          6           0        0.207945   -0.816143   -1.319299
     12          6           0        1.790225   -3.004382    1.208622
     13          6           0        0.810079   -4.240113    1.165421
     14          6           0       -0.073379   -4.509428   -0.042883
     15          8           0        0.229170   -5.234331   -0.970552
     16          8           0       -1.287700   -3.857517    0.110297
     17          7           0        3.942621    2.832661   -0.025184
     18          6           0        2.543965    2.882196   -0.149890
     19          6           0        2.141213    4.241814   -0.308040
     20          6           0        3.296693    5.058704   -0.111609
     21          6           0        4.426843    4.113031    0.000236
     22          6           0        0.706394    4.474551   -0.683726
     23          6           0        3.432213    6.554312   -0.067083
     24          8           0        4.427767    7.168592    0.307278
     25          6           0        2.279844    7.398607   -0.506369
     26          7           0        6.912420    2.340398    0.216338
     27          6           0        6.920746    3.691698    0.176895
     28          6           0        8.357864    4.250803    0.163257
     29          6           0        9.187390    2.987347    0.557598
     30          6           0        8.148229    1.856252    0.147081
     31          6           0        8.741361    4.740164   -1.254574
     32          6           0        9.624359    2.934924    2.049266
     33          6           0        8.664426    3.370713    3.136537
     34          7           0        6.440473   -0.575181   -0.014893
     35          6           0        7.798958   -0.597758   -0.046931
     36          6           0        8.171620   -2.029288   -0.064526
     37          6           0        6.946945   -2.709466   -0.232821
     38          6           0        5.939839   -1.799220   -0.164983
     39          6           0        9.603354   -2.505707   -0.029837
     40          6           0        6.348437   -3.909586   -0.361994
     41          8           0        6.893362   -5.009254   -0.560251
     42          6           0        4.808096   -3.660725   -0.259176
     43          6           0        4.059913   -4.370252   -1.332350
     44          8           0        3.947753   -3.998078   -2.517638
     45          8           0        3.687013   -5.587325   -0.817586
     46          6           0        3.072020   -6.572896   -1.770486
     47          6           0       -2.290788   -4.021352   -0.928271
     48          6           0       -3.606236   -3.378950   -0.549487
     49          6           0       -4.569020   -3.880082    0.271638
     50          6           0       -4.450633   -5.182735    0.967766
     51          6           0       -5.924101   -3.231928    0.404264
     52          6           0       -6.239148   -2.453196    1.584282
     53          6           0       -7.053204   -1.241905    1.254813
     54          6           0       -8.585740   -1.472133    1.626530
     55          6           0       -8.834061   -1.598868    3.161186
     56          6           0       -9.492973   -0.402086    0.960419
     57          6           0      -10.656219   -1.002503    0.271692
     58          6           0      -12.020584   -0.634232    0.956900
     59          6           0      -12.840151    0.675927    0.579133
     60          6           0      -14.075314    0.758618    1.594155
     61          6           0      -13.371068    0.635146   -0.857543
     62          6           0      -12.825952    1.705219   -1.766708
     63          6           0      -13.624480    2.990038   -1.683527
     64          6           0      -12.773572    4.182184   -1.197012
     65          6           0      -13.594677    5.105170   -0.203672
     66          6           0      -12.261442    5.016924   -2.349797
     67          1           0        0.731384    1.970084   -0.052898
     68          1           0        6.084984    5.567986   -0.032073
     69          1           0        9.612209    0.447359    0.349293
     70          1           0        1.861459   -2.748253   -1.040232
     71          1           0        0.480168   -0.896687    0.831105
     72          1           0       -0.777191   -0.540709   -0.941922
     73          1           0        0.083848   -1.817575   -1.731496
     74          1           0        0.433444   -0.189735   -2.182772
     75          1           0        1.206239   -2.395042    1.898752
     76          1           0        2.694241   -3.212389    1.779393
     77          1           0        0.169202   -4.244163    2.047250
     78          1           0        1.547605   -5.036211    1.262708
     79          1           0        0.463976    3.811309   -1.514154
     80          1           0        0.522683    5.476376   -1.073057
     81          1           0        0.085837    4.172691    0.160338
     82          1           0        1.374943    7.317906    0.096309
     83          1           0        2.028084    7.189150   -1.545843
     84          1           0        2.599489    8.439732   -0.465001
     85          1           0        8.340779    4.951610    0.997310
     86          1           0       10.031936    2.824411   -0.113288
     87          1           0        9.214303    3.862929   -1.694060
     88          1           0        9.315545    5.659362   -1.137892
     89          1           0        7.822959    4.928989   -1.809531
     90          1           0       10.599519    3.391510    2.223727
     91          1           0        9.682020    1.863294    2.241031
     92          1           0        9.054952    4.019787    3.920485
     93          1           0        8.357016    2.458552    3.647122
     94          1           0        7.668843    3.698062    2.836147
     95          1           0       10.412304   -1.931989    0.421378
     96          1           0        9.931885   -2.640282   -1.059920
     97          1           0        9.782893   -3.428471    0.521025
     98          1           0        4.562655   -4.199462    0.656135
     99          1           0        2.703695   -7.399565   -1.163369
    100          1           0        3.705069   -7.058789   -2.512860
    101          1           0        2.266684   -6.057730   -2.295633
    102          1           0       -2.411713   -5.097028   -1.061196
    103          1           0       -1.915297   -3.448245   -1.775909
    104          1           0       -3.863152   -2.440006   -1.040075
    105          1           0       -4.428963   -5.026820    2.046818
    106          1           0       -3.477172   -5.599641    0.707582
    107          1           0       -5.302038   -5.828436    0.754908
    108          1           0       -6.646587   -4.048033    0.430110
    109          1           0       -6.109651   -2.734454   -0.547523
    110          1           0       -5.255781   -2.190254    1.973649
    111          1           0       -6.771803   -3.080847    2.298734
    112          1           0       -6.896505   -0.816908    0.263343
    113          1           0       -6.630384   -0.462182    1.890204
    114          1           0       -8.834296   -2.402233    1.116056
    115          1           0       -8.604169   -2.651200    3.328540
    116          1           0       -9.897863   -1.471343    3.366134
    117          1           0       -8.139221   -0.958130    3.703835
    118          1           0       -8.835729    0.110140    0.258442
    119          1           0       -9.905092    0.392196    1.583462
    120          1           0      -10.542272   -2.077195    0.132429
    121          1           0      -10.756487   -0.752630   -0.784402
    122          1           0      -11.901326   -0.714926    2.037237
    123          1           0      -12.684058   -1.450450    0.671815
    124          1           0      -12.253809    1.586589    0.708157
    125          1           0      -14.072793   -0.052772    2.322372
    126          1           0      -15.039438    0.866007    1.097762
    127          1           0      -13.773713    1.615709    2.196424
    128          1           0      -14.455598    0.668673   -0.949177
    129          1           0      -13.086926   -0.300633   -1.338454
    130          1           0      -12.761986    1.340960   -2.792166
    131          1           0      -11.806186    2.009609   -1.533863
    132          1           0      -14.267569    2.694040   -0.856076
    133          1           0      -14.170977    3.228387   -2.596370
    134          1           0      -11.907031    3.892063   -0.602038
    135          1           0      -14.675417    4.963318   -0.222308
    136          1           0      -13.363502    6.168264   -0.266978
    137          1           0      -13.166074    4.872570    0.771598
    138          1           0      -13.148749    5.576590   -2.646332
    139          1           0      -11.727780    4.492403   -3.142680
    140          1           0      -11.555235    5.699198   -1.875993
 ---------------------------------------------------------------------

 SCF Done:  E(RCAM-B3LYP) =  -3007.12852489     A.U. after   17 cycles

 Excitation energies and oscillator strengths:

 Excited State   1:      Singlet-A      1.7237 eV  719.29 nm  f=0.3925  <S**2>=0.000
     245 -> 248        0.18172
     246 -> 247        0.68480
     245 <- 248        0.10661
 This state for optimization and/or second-order correction.
 Total Energy, E(TD-HF/TD-DFT) =  -3007.06518002
 Copying the excited state density for this state as the 1-particle RhoCI density.

 Excited State   2:      Singlet-A      2.1297 eV  582.17 nm  f=0.1396  <S**2>=0.000
     245 -> 247        0.65792
     246 -> 248       -0.24079

 Excited State   3:      Singlet-A      3.2222 eV  384.79 nm  f=0.0079  <S**2>=0.000
     244 -> 247        0.67307

 Excited State   4:      Singlet-A      3.2922 eV  376.60 nm  f=0.0023  <S**2>=0.000
     242 -> 247        0.56457
     242 -> 248       -0.11282
     242 -> 249        0.24978
     242 -> 250       -0.17702
     243 -> 247        0.10751
     244 -> 247        0.12594
     246 -> 248        0.12471

 Excited State   5:      Singlet-A      3.5333 eV  350.90 nm  f=0.0746  <S**2>=0.000
     239 -> 247        0.11320
     241 -> 247       -0.15960
     242 -> 247       -0.10827
     243 -> 247        0.53136
     246 -> 248        0.36441

 The electronic state is 1-A.
 Alpha  occ. eigenvalues --  -46.88997 -19.25159 -19.24535 -19.20844 -19.18967
 Alpha  occ. eigenvalues --  -19.18710 -19.17551 -14.42909 -14.41334 -14.39172
 Alpha  occ. eigenvalues --  -14.38862 -10.40184 -10.38625 -10.34872 -10.33402
 Alpha  occ. eigenvalues --  -10.32557 -10.31736 -10.31453 -10.30479 -10.30296
 Alpha  occ. eigenvalues --  -10.29914 -10.29848 -10.29722 -10.29600 -10.28975
 Alpha  occ. eigenvalues --  -10.28835 -10.28788 -10.28787 -10.28417 -10.28059
 Alpha  occ. eigenvalues --  -10.27818 -10.27731 -10.27563 -10.27487 -10.27302
 Alpha  occ. eigenvalues --  -10.27273 -10.27231 -10.27051 -10.26746 -10.26581
 Alpha  occ. eigenvalues --  -10.26494 -10.26348 -10.26258 -10.26128 -10.25968
 Alpha  occ. eigenvalues --  -10.25955 -10.25861 -10.25811 -10.25634 -10.25600
 Alpha  occ. eigenvalues --  -10.25503 -10.25454 -10.25453 -10.25369 -10.25253
 Alpha  occ. eigenvalues --  -10.25113 -10.24900 -10.24808 -10.24739 -10.24460
 Alpha  occ. eigenvalues --  -10.24399 -10.24360 -10.24272 -10.24216 -10.24104
 Alpha  occ. eigenvalues --  -10.23994  -3.17520  -1.92424  -1.91954  -1.91841
 Alpha  occ. eigenvalues --   -1.16544  -1.14190  -1.09737  -1.08853  -1.07998
 Alpha  occ. eigenvalues --   -1.05760  -1.05250  -1.04404  -1.03931  -1.01619
 Alpha  occ. eigenvalues --   -0.94738  -0.92251  -0.90418  -0.89595  -0.89180
 Alpha  occ. eigenvalues --   -0.88742  -0.88320  -0.87896  -0.87644  -0.87115
 Alpha  occ. eigenvalues --   -0.86361  -0.86069  -0.85405  -0.84068  -0.83496
 Alpha  occ. eigenvalues --   -0.82959  -0.82435  -0.81728  -0.81265  -0.80621
 Alpha  occ. eigenvalues --   -0.80277  -0.78669  -0.78164  -0.76863  -0.76484
 Alpha  occ. eigenvalues --   -0.75837  -0.75258  -0.75113  -0.74976  -0.74701
 Alpha  occ. eigenvalues --   -0.73943  -0.73027  -0.71616  -0.70815  -0.69620
 Alpha  occ. eigenvalues --   -0.69489  -0.68724  -0.67432  -0.66909  -0.66380
 Alpha  occ. eigenvalues --   -0.65747  -0.65266  -0.64927  -0.64244  -0.64022
 Alpha  occ. eigenvalues --   -0.63485  -0.63454  -0.62455  -0.61554  -0.60355
 Alpha  occ. eigenvalues --   -0.59990  -0.59642  -0.59294  -0.58860  -0.58001
 Alpha  occ. eigenvalues --   -0.57889  -0.57566  -0.56807  -0.56050  -0.55890
 Alpha  occ. eigenvalues --   -0.55523  -0.55425  -0.55112  -0.55017  -0.54596
 Alpha  occ. eigenvalues --   -0.54019  -0.53678  -0.53558  -0.53074  -0.52846
 Alpha  occ. eigenvalues --   -0.52255  -0.52112  -0.52035  -0.51967  -0.51735
 Alpha  occ. eigenvalues --   -0.51398  -0.51344  -0.51174  -0.51088  -0.50901
 Alpha  occ. eigenvalues --   -0.50655  -0.50470  -0.50396  -0.50139  -0.49631
 Alpha  occ. eigenvalues --   -0.49506  -0.49261  -0.49234  -0.48999  -0.48811
 Alpha  occ. eigenvalues --   -0.48647  -0.48337  -0.48036  -0.47902  -0.47763
 Alpha  occ. eigenvalues --   -0.47652  -0.47589  -0.47091  -0.46892  -0.46840
 Alpha  occ. eigenvalues --   -0.46619  -0.46439  -0.46304  -0.46149  -0.45937
 Alpha  occ. eigenvalues --   -0.45584  -0.45571  -0.45496  -0.45215  -0.45044
 Alpha  occ. eigenvalues --   -0.44824  -0.44752  -0.44379  -0.44111  -0.43995
 Alpha  occ. eigenvalues --   -0.43702  -0.43519  -0.43205  -0.43158  -0.43015
 Alpha  occ. eigenvalues --   -0.42950  -0.42865  -0.42824  -0.42280  -0.41998
 Alpha  occ. eigenvalues --   -0.41934  -0.41797  -0.41730  -0.41363  -0.41318
 Alpha  occ. eigenvalues --   -0.41010  -0.40867  -0.40629  -0.40512  -0.40276
 Alpha  occ. eigenvalues --   -0.40100  -0.39591  -0.38881  -0.38517  -0.38343
 Alpha  occ. eigenvalues --   -0.38254  -0.37634  -0.37459  -0.37328  -0.37260
 Alpha  occ. eigenvalues --   -0.37164  -0.36833  -0.36788  -0.36540  -0.36197
 Alpha  occ. eigenvalues --   -0.35684  -0.35664  -0.35322  -0.34894  -0.34854
 Alpha  occ. eigenvalues --   -0.34091  -0.33490  -0.32866  -0.31439  -0.31095
 Alpha  occ. eigenvalues --   -0.30869  -0.30183  -0.29998  -0.29558  -0.23856
 Alpha  occ. eigenvalues --   -0.21517
 Alpha virt. eigenvalues --   -0.09055  -0.01547   0.00112   0.02252   0.02554
 Alpha virt. eigenvalues --    0.03535   0.03884   0.05298   0.05645   0.06453
 Alpha virt. eigenvalues --    0.07936   0.08537   0.08557   0.08671   0.09094

 Mulliken charges:
               1
     1  Mg   0.817798
     2  C    0.078308
     3  C   -0.034222
     4  C   -0.046983
     5  C   -0.097547
     6  N   -0.261738
     7  C    0.021600
     8  C   -0.100780
     9  C   -0.008580
    10  C    0.045559
    11  C    0.061584
    12  C    0.019998
    13  C    0.076989
    14  C    0.151025
    15  O   -0.221919
    16  O   -0.354960
    17  N   -0.323933
    18  C    0.062736
    19  C   -0.116011
    20  C   -0.040729
    21  C    0.114162
    22  C    0.105312
    23  C    0.001978
    24  O   -0.205383
    25  C    0.032018
    26  N   -0.255038
    27  C   -0.006253
    28  C   -0.059191
    29  C   -0.044479
    30  C    0.024407
    31  C    0.117486
    32  C    0.078222
    33  C   -0.020480
    34  N   -0.421425
    35  C    0.155084
    36  C   -0.139960
    37  C    0.147891
    38  C    0.056503
    39  C    0.089061
    40  C   -0.057779
    41  O   -0.189923
    42  C   -0.031809
    43  C    0.210842
    44  O   -0.248571
    45  O   -0.344428
    46  C    0.183997
    47  C    0.294251
    48  C   -0.133164
    49  C   -0.173748
    50  C    0.106017
    51  C    0.065895
    52  C    0.066990
    53  C    0.036995
    54  C   -0.153331
    55  C    0.079615
    56  C    0.089066
    57  C    0.034684
    58  C    0.004478
    59  C   -0.103665
    60  C    0.040031
    61  C    0.059196
    62  C    0.000703
    63  C    0.075776
    64  C   -0.171160
    65  C    0.022055
    66  C    0.053809
    67  H   -0.042065
    68  H   -0.001604
    69  H   -0.020185
    70  H    0.063232
    71  H    0.025489
    72  H    0.007380
    73  H    0.014341
    74  H    0.031738
    75  H    0.001247
    76  H    0.018795
    77  H    0.028981
    78  H    0.031595
    79  H    0.028928
    80  H    0.010551
    81  H    0.039446
    82  H    0.039373
    83  H    0.035065
    84  H    0.022328
    85  H    0.013742
    86  H   -0.005773
    87  H    0.014964
    88  H    0.032676
    89  H    0.014184
    90  H    0.016705
    91  H   -0.007721
    92  H    0.020745
    93  H   -0.001766
    94  H    0.022724
    95  H    0.005529
    96  H    0.037443
    97  H    0.025596
    98  H    0.038576
    99  H    0.029599
   100  H    0.037746
   101  H    0.053521
   102  H    0.034002
   103  H    0.019190
   104  H   -0.012129
   105  H    0.020056
   106  H    0.005764
   107  H    0.026169
   108  H   -0.015973
   109  H   -0.000643
   110  H   -0.006896
   111  H   -0.006645
   112  H   -0.004025
   113  H   -0.015100
   114  H   -0.010875
   115  H    0.003956
   116  H    0.013055
   117  H    0.021466
   118  H   -0.025086
   119  H   -0.005130
   120  H   -0.014870
   121  H   -0.018284
   122  H   -0.006372
   123  H   -0.009908
   124  H    0.000357
   125  H    0.005573
   126  H    0.022833
   127  H    0.004562
   128  H   -0.005429
   129  H   -0.013278
   130  H   -0.017588
   131  H   -0.011211
   132  H   -0.014352
   133  H    0.002348
   134  H   -0.004624
   135  H    0.021908
   136  H   -0.003551
   137  H   -0.000787
   138  H    0.011259
   139  H    0.011600
   140  H    0.000601
 Sum of Mulliken charges =  -0.00000

 Dipole moment (field-independent basis, Debye):
    X=             -5.9095    Y=              1.4269    Z=              3.2537  Tot=              6.8953
 Quadrupole moment (field-independent basis, Debye-Ang):
   XX=           -392.7913   YY=           -435.6341   ZZ=           -408.3412
   XY=             27.9078   XZ=             15.2479   YZ=            -18.0557

 Normal termination of Gaussian 16 at Wed Apr 27 20:35:39 2022.
