 Gaussian 16, Revision A.03,
 Gaussian 16:  ES64L-G16RevA.03 25-Dec-2016

 ---------------------------------
 #p PBE1PBE/Def2SVP td=(nstates=5)
 ---------------------------------

 ------------------------------------------------------
 step_1301_chromophore_24 TDDFT with PBE1PBE functional
 ------------------------------------------------------
 Symbolic Z-matrix:
 Charge =  0 Multiplicity = 1

                         Standard orientation:
 ---------------------------------------------------------------------
 Center     Atomic      Atomic             Coordinates (Angstroms)
 Number     Number       Type             X           Y           Z
 ---------------------------------------------------------------------
      1         12           0        5.240866    0.963851    0.144314
      2          6           0        4.623534   -2.242399   -0.135491
      3          6           0        1.785973    1.687658   -0.081792
      4          6           0        5.826772    4.508811    0.028654
      5          6           0        8.541909    0.559065    0.165234
      6          7           0        3.368280   -0.139265   -0.216636
      7          6           0        3.404696   -1.497858   -0.146665
      8          6           0        2.055807   -2.127182   -0.165444
      9          6           0        1.064201   -0.843118   -0.087202
     10          6           0        2.109345    0.312349   -0.074578
     11          6           0        0.207945   -0.816143   -1.319299
     12          6           0        1.790225   -3.004382    1.208622
     13          6           0        0.810079   -4.240113    1.165421
     14          6           0       -0.073379   -4.509428   -0.042883
     15          8           0        0.229170   -5.234331   -0.970552
     16          8           0       -1.287700   -3.857517    0.110297
     17          7           0        3.942621    2.832661   -0.025184
     18          6           0        2.543965    2.882196   -0.149890
     19          6           0        2.141213    4.241814   -0.308040
     20          6           0        3.296693    5.058704   -0.111609
     21          6           0        4.426843    4.113031    0.000236
     22          6           0        0.706394    4.474551   -0.683726
     23          6           0        3.432213    6.554312   -0.067083
     24          8           0        4.427767    7.168592    0.307278
     25          6           0        2.279844    7.398607   -0.506369
     26          7           0        6.912420    2.340398    0.216338
     27          6           0        6.920746    3.691698    0.176895
     28          6           0        8.357864    4.250803    0.163257
     29          6           0        9.187390    2.987347    0.557598
     30          6           0        8.148229    1.856252    0.147081
     31          6           0        8.741361    4.740164   -1.254574
     32          6           0        9.624359    2.934924    2.049266
     33          6           0        8.664426    3.370713    3.136537
     34          7           0        6.440473   -0.575181   -0.014893
     35          6           0        7.798958   -0.597758   -0.046931
     36          6           0        8.171620   -2.029288   -0.064526
     37          6           0        6.946945   -2.709466   -0.232821
     38          6           0        5.939839   -1.799220   -0.164983
     39          6           0        9.603354   -2.505707   -0.029837
     40          6           0        6.348437   -3.909586   -0.361994
     41          8           0        6.893362   -5.009254   -0.560251
     42          6           0        4.808096   -3.660725   -0.259176
     43          6           0        4.059913   -4.370252   -1.332350
     44          8           0        3.947753   -3.998078   -2.517638
     45          8           0        3.687013   -5.587325   -0.817586
     46          6           0        3.072020   -6.572896   -1.770486
     47          6           0       -2.290788   -4.021352   -0.928271
     48          6           0       -3.606236   -3.378950   -0.549487
     49          6           0       -4.569020   -3.880082    0.271638
     50          6           0       -4.450633   -5.182735    0.967766
     51          6           0       -5.924101   -3.231928    0.404264
     52          6           0       -6.239148   -2.453196    1.584282
     53          6           0       -7.053204   -1.241905    1.254813
     54          6           0       -8.585740   -1.472133    1.626530
     55          6           0       -8.834061   -1.598868    3.161186
     56          6           0       -9.492973   -0.402086    0.960419
     57          6           0      -10.656219   -1.002503    0.271692
     58          6           0      -12.020584   -0.634232    0.956900
     59          6           0      -12.840151    0.675927    0.579133
     60          6           0      -14.075314    0.758618    1.594155
     61          6           0      -13.371068    0.635146   -0.857543
     62          6           0      -12.825952    1.705219   -1.766708
     63          6           0      -13.624480    2.990038   -1.683527
     64          6           0      -12.773572    4.182184   -1.197012
     65          6           0      -13.594677    5.105170   -0.203672
     66          6           0      -12.261442    5.016924   -2.349797
     67          1           0        0.731384    1.970084   -0.052898
     68          1           0        6.084984    5.567986   -0.032073
     69          1           0        9.612209    0.447359    0.349293
     70          1           0        1.861459   -2.748253   -1.040232
     71          1           0        0.480168   -0.896687    0.831105
     72          1           0       -0.777191   -0.540709   -0.941922
     73          1           0        0.083848   -1.817575   -1.731496
     74          1           0        0.433444   -0.189735   -2.182772
     75          1           0        1.206239   -2.395042    1.898752
     76          1           0        2.694241   -3.212389    1.779393
     77          1           0        0.169202   -4.244163    2.047250
     78          1           0        1.547605   -5.036211    1.262708
     79          1           0        0.463976    3.811309   -1.514154
     80          1           0        0.522683    5.476376   -1.073057
     81          1           0        0.085837    4.172691    0.160338
     82          1           0        1.374943    7.317906    0.096309
     83          1           0        2.028084    7.189150   -1.545843
     84          1           0        2.599489    8.439732   -0.465001
     85          1           0        8.340779    4.951610    0.997310
     86          1           0       10.031936    2.824411   -0.113288
     87          1           0        9.214303    3.862929   -1.694060
     88          1           0        9.315545    5.659362   -1.137892
     89          1           0        7.822959    4.928989   -1.809531
     90          1           0       10.599519    3.391510    2.223727
     91          1           0        9.682020    1.863294    2.241031
     92          1           0        9.054952    4.019787    3.920485
     93          1           0        8.357016    2.458552    3.647122
     94          1           0        7.668843    3.698062    2.836147
     95          1           0       10.412304   -1.931989    0.421378
     96          1           0        9.931885   -2.640282   -1.059920
     97          1           0        9.782893   -3.428471    0.521025
     98          1           0        4.562655   -4.199462    0.656135
     99          1           0        2.703695   -7.399565   -1.163369
    100          1           0        3.705069   -7.058789   -2.512860
    101          1           0        2.266684   -6.057730   -2.295633
    102          1           0       -2.411713   -5.097028   -1.061196
    103          1           0       -1.915297   -3.448245   -1.775909
    104          1           0       -3.863152   -2.440006   -1.040075
    105          1           0       -4.428963   -5.026820    2.046818
    106          1           0       -3.477172   -5.599641    0.707582
    107          1           0       -5.302038   -5.828436    0.754908
    108          1           0       -6.646587   -4.048033    0.430110
    109          1           0       -6.109651   -2.734454   -0.547523
    110          1           0       -5.255781   -2.190254    1.973649
    111          1           0       -6.771803   -3.080847    2.298734
    112          1           0       -6.896505   -0.816908    0.263343
    113          1           0       -6.630384   -0.462182    1.890204
    114          1           0       -8.834296   -2.402233    1.116056
    115          1           0       -8.604169   -2.651200    3.328540
    116          1           0       -9.897863   -1.471343    3.366134
    117          1           0       -8.139221   -0.958130    3.703835
    118          1           0       -8.835729    0.110140    0.258442
    119          1           0       -9.905092    0.392196    1.583462
    120          1           0      -10.542272   -2.077195    0.132429
    121          1           0      -10.756487   -0.752630   -0.784402
    122          1           0      -11.901326   -0.714926    2.037237
    123          1           0      -12.684058   -1.450450    0.671815
    124          1           0      -12.253809    1.586589    0.708157
    125          1           0      -14.072793   -0.052772    2.322372
    126          1           0      -15.039438    0.866007    1.097762
    127          1           0      -13.773713    1.615709    2.196424
    128          1           0      -14.455598    0.668673   -0.949177
    129          1           0      -13.086926   -0.300633   -1.338454
    130          1           0      -12.761986    1.340960   -2.792166
    131          1           0      -11.806186    2.009609   -1.533863
    132          1           0      -14.267569    2.694040   -0.856076
    133          1           0      -14.170977    3.228387   -2.596370
    134          1           0      -11.907031    3.892063   -0.602038
    135          1           0      -14.675417    4.963318   -0.222308
    136          1           0      -13.363502    6.168264   -0.266978
    137          1           0      -13.166074    4.872570    0.771598
    138          1           0      -13.148749    5.576590   -2.646332
    139          1           0      -11.727780    4.492403   -3.142680
    140          1           0      -11.555235    5.699198   -1.875993
 ---------------------------------------------------------------------

 SCF Done:  E(RPBE1PBE) =  -3005.31901216     A.U. after   15 cycles

 Excitation energies and oscillator strengths:

 Excited State   1:      Singlet-A      1.8779 eV  660.23 nm  f=0.3788  <S**2>=0.000
     245 -> 248        0.17504
     246 -> 247        0.69218
     246 <- 247       -0.10842
 This state for optimization and/or second-order correction.
 Total Energy, E(TD-HF/TD-DFT) =  -3005.25000075
 Copying the excited state density for this state as the 1-particle RhoCI density.

 Excited State   2:      Singlet-A      2.1225 eV  584.14 nm  f=0.1293  <S**2>=0.000
     245 -> 247        0.66841
     246 -> 248       -0.21074

 Excited State   3:      Singlet-A      2.7708 eV  447.47 nm  f=0.0017  <S**2>=0.000
     243 -> 247        0.22406
     244 -> 247        0.63622
     244 -> 249        0.13209

 Excited State   4:      Singlet-A      2.9309 eV  423.02 nm  f=0.0071  <S**2>=0.000
     242 -> 247       -0.18293
     243 -> 247        0.63206
     244 -> 247       -0.22928

 Excited State   5:      Singlet-A      2.9769 eV  416.49 nm  f=0.0005  <S**2>=0.000
     242 -> 247        0.64626
     242 -> 249       -0.13799
     243 -> 247        0.16352

 The electronic state is 1-A.
 Alpha  occ. eigenvalues --  -46.92370 -19.25824 -19.25204 -19.21063 -19.19212
 Alpha  occ. eigenvalues --  -19.18840 -19.17893 -14.42280 -14.40927 -14.38803
 Alpha  occ. eigenvalues --  -14.38536 -10.37187 -10.35639 -10.31893 -10.30560
 Alpha  occ. eigenvalues --  -10.29925 -10.29375 -10.29231 -10.28045 -10.27637
 Alpha  occ. eigenvalues --  -10.27591 -10.27534 -10.27514 -10.27201 -10.26824
 Alpha  occ. eigenvalues --  -10.26612 -10.26595 -10.26278 -10.26114 -10.25787
 Alpha  occ. eigenvalues --  -10.25453 -10.25239 -10.25176 -10.25173 -10.25057
 Alpha  occ. eigenvalues --  -10.24906 -10.24654 -10.24582 -10.24544 -10.24294
 Alpha  occ. eigenvalues --  -10.24228 -10.23922 -10.23799 -10.23632 -10.23594
 Alpha  occ. eigenvalues --  -10.23550 -10.23475 -10.23389 -10.23300 -10.23099
 Alpha  occ. eigenvalues --  -10.23040 -10.22958 -10.22857 -10.22773 -10.22696
 Alpha  occ. eigenvalues --  -10.22627 -10.22348 -10.22261 -10.22239 -10.21961
 Alpha  occ. eigenvalues --  -10.21895 -10.21873 -10.21823 -10.21743 -10.21627
 Alpha  occ. eigenvalues --  -10.21505  -3.14477  -1.87322  -1.86829  -1.86721
 Alpha  occ. eigenvalues --   -1.11318  -1.08944  -1.04374  -1.03698  -1.02774
 Alpha  occ. eigenvalues --   -1.00563  -0.99967  -0.99002  -0.98615  -0.96189
 Alpha  occ. eigenvalues --   -0.89195  -0.86394  -0.84495  -0.83724  -0.83361
 Alpha  occ. eigenvalues --   -0.83046  -0.82628  -0.82221  -0.81768  -0.81350
 Alpha  occ. eigenvalues --   -0.80581  -0.80370  -0.79597  -0.78382  -0.77741
 Alpha  occ. eigenvalues --   -0.77162  -0.76701  -0.75919  -0.75478  -0.74798
 Alpha  occ. eigenvalues --   -0.74571  -0.72955  -0.72375  -0.71199  -0.70663
 Alpha  occ. eigenvalues --   -0.70150  -0.69359  -0.69328  -0.69207  -0.68869
 Alpha  occ. eigenvalues --   -0.68250  -0.67462  -0.66038  -0.65114  -0.64134
 Alpha  occ. eigenvalues --   -0.63832  -0.62951  -0.61823  -0.61132  -0.60786
 Alpha  occ. eigenvalues --   -0.59928  -0.59784  -0.59493  -0.58546  -0.58478
 Alpha  occ. eigenvalues --   -0.57917  -0.57564  -0.56672  -0.56115  -0.54864
 Alpha  occ. eigenvalues --   -0.54403  -0.54143  -0.53877  -0.53491  -0.52442
 Alpha  occ. eigenvalues --   -0.52332  -0.51985  -0.51403  -0.50582  -0.50319
 Alpha  occ. eigenvalues --   -0.49980  -0.49810  -0.49666  -0.49507  -0.49106
 Alpha  occ. eigenvalues --   -0.48516  -0.48176  -0.48067  -0.47563  -0.47386
 Alpha  occ. eigenvalues --   -0.46836  -0.46713  -0.46568  -0.46301  -0.46265
 Alpha  occ. eigenvalues --   -0.45950  -0.45887  -0.45762  -0.45685  -0.45436
 Alpha  occ. eigenvalues --   -0.45197  -0.44962  -0.44852  -0.44670  -0.44283
 Alpha  occ. eigenvalues --   -0.44096  -0.43908  -0.43808  -0.43591  -0.43463
 Alpha  occ. eigenvalues --   -0.43200  -0.42992  -0.42679  -0.42528  -0.42366
 Alpha  occ. eigenvalues --   -0.42320  -0.42205  -0.41685  -0.41552  -0.41455
 Alpha  occ. eigenvalues --   -0.41293  -0.41084  -0.41041  -0.40838  -0.40641
 Alpha  occ. eigenvalues --   -0.40313  -0.40217  -0.40138  -0.39988  -0.39763
 Alpha  occ. eigenvalues --   -0.39556  -0.39485  -0.39127  -0.38912  -0.38679
 Alpha  occ. eigenvalues --   -0.38416  -0.38251  -0.38077  -0.37917  -0.37732
 Alpha  occ. eigenvalues --   -0.37705  -0.37634  -0.37607  -0.37147  -0.36851
 Alpha  occ. eigenvalues --   -0.36679  -0.36526  -0.36513  -0.36219  -0.36145
 Alpha  occ. eigenvalues --   -0.35840  -0.35681  -0.35421  -0.35335  -0.35057
 Alpha  occ. eigenvalues --   -0.34898  -0.34386  -0.33863  -0.33307  -0.33187
 Alpha  occ. eigenvalues --   -0.33109  -0.32438  -0.32370  -0.32298  -0.32207
 Alpha  occ. eigenvalues --   -0.32166  -0.31899  -0.31671  -0.31357  -0.31217
 Alpha  occ. eigenvalues --   -0.30601  -0.30589  -0.30168  -0.29809  -0.29657
 Alpha  occ. eigenvalues --   -0.29426  -0.28654  -0.28036  -0.26922  -0.26418
 Alpha  occ. eigenvalues --   -0.25721  -0.25600  -0.25200  -0.25005  -0.20789
 Alpha  occ. eigenvalues --   -0.19118
 Alpha virt. eigenvalues --   -0.11475  -0.05046  -0.04064  -0.02125  -0.00899
 Alpha virt. eigenvalues --   -0.00650  -0.00258   0.00656   0.01411   0.03058
 Alpha virt. eigenvalues --    0.04366   0.04602   0.04946   0.05339   0.05540

 Mulliken charges:
               1
     1  Mg   0.964498
     2  C    0.058166
     3  C   -0.038979
     4  C   -0.032549
     5  C   -0.102289
     6  N   -0.367154
     7  C    0.097011
     8  C   -0.171859
     9  C   -0.086895
    10  C    0.085853
    11  C    0.007339
    12  C   -0.022904
    13  C    0.004266
    14  C    0.213978
    15  O   -0.256382
    16  O   -0.383916
    17  N   -0.429097
    18  C    0.089595
    19  C   -0.144680
    20  C   -0.089895
    21  C    0.152755
    22  C    0.045117
    23  C    0.048829
    24  O   -0.243732
    25  C   -0.039400
    26  N   -0.355349
    27  C    0.023749
    28  C   -0.143457
    29  C   -0.116695
    30  C    0.066366
    31  C    0.061601
    32  C    0.015200
    33  C   -0.090403
    34  N   -0.554976
    35  C    0.185152
    36  C   -0.153615
    37  C    0.087979
    38  C    0.115404
    39  C    0.043719
    40  C    0.038909
    41  O   -0.237352
    42  C   -0.134938
    43  C    0.298509
    44  O   -0.283799
    45  O   -0.376369
    46  C    0.129810
    47  C    0.246178
    48  C   -0.139398
    49  C   -0.216505
    50  C    0.042397
    51  C    0.007214
    52  C   -0.003013
    53  C   -0.016709
    54  C   -0.241587
    55  C    0.016880
    56  C    0.032715
    57  C   -0.021471
    58  C   -0.060089
    59  C   -0.184564
    60  C   -0.018604
    61  C   -0.003021
    62  C   -0.054490
    63  C    0.016351
    64  C   -0.265054
    65  C   -0.038118
    66  C   -0.008609
    67  H   -0.009666
    68  H    0.029183
    69  H    0.011820
    70  H    0.098945
    71  H    0.059367
    72  H    0.035051
    73  H    0.043811
    74  H    0.058003
    75  H    0.033365
    76  H    0.049652
    77  H    0.059924
    78  H    0.065034
    79  H    0.056547
    80  H    0.038483
    81  H    0.066289
    82  H    0.065312
    83  H    0.061291
    84  H    0.049859
    85  H    0.050327
    86  H    0.030944
    87  H    0.042669
    88  H    0.060508
    89  H    0.043173
    90  H    0.048870
    91  H    0.027790
    92  H    0.048783
    93  H    0.026525
    94  H    0.052045
    95  H    0.031042
    96  H    0.065613
    97  H    0.052665
    98  H    0.077350
    99  H    0.051007
   100  H    0.059396
   101  H    0.075427
   102  H    0.059609
   103  H    0.047120
   104  H    0.017211
   105  H    0.048860
   106  H    0.035021
   107  H    0.052759
   108  H    0.018007
   109  H    0.030360
   110  H    0.028119
   111  H    0.026692
   112  H    0.026085
   113  H    0.018950
   114  H    0.029889
   115  H    0.031368
   116  H    0.043154
   117  H    0.048520
   118  H    0.009167
   119  H    0.028395
   120  H    0.016258
   121  H    0.014922
   122  H    0.028299
   123  H    0.024098
   124  H    0.038125
   125  H    0.032344
   126  H    0.048024
   127  H    0.032473
   128  H    0.027181
   129  H    0.019392
   130  H    0.015699
   131  H    0.022239
   132  H    0.023830
   133  H    0.033581
   134  H    0.031679
   135  H    0.048203
   136  H    0.023873
   137  H    0.027423
   138  H    0.039887
   139  H    0.039412
   140  H    0.029748
 Sum of Mulliken charges =  -0.00000

 Dipole moment (field-independent basis, Debye):
    X=             -5.7030    Y=              1.2477    Z=              3.3235  Tot=              6.7177
 Quadrupole moment (field-independent basis, Debye-Ang):
   XX=           -385.0552   YY=           -433.3182   ZZ=           -405.7756
   XY=             27.8774   XZ=             15.5938   YZ=            -18.1195

 Normal termination of Gaussian 16 at Wed Apr 27 20:51:01 2022.
