 Gaussian 16, Revision A.03,
 Gaussian 16:  ES64L-G16RevA.03 25-Dec-2016

 --------------------------------
 #p wB97XD/Def2SVP td=(nstates=5)
 --------------------------------

 -----------------------------------------------------
 step_1301_chromophore_24 TDDFT with wB97XD functional
 -----------------------------------------------------
 Symbolic Z-matrix:
 Charge =  0 Multiplicity = 1

                         Standard orientation:
 ---------------------------------------------------------------------
 Center     Atomic      Atomic             Coordinates (Angstroms)
 Number     Number       Type             X           Y           Z
 ---------------------------------------------------------------------
      1         12           0        5.240866    0.963851    0.144314
      2          6           0        4.623534   -2.242399   -0.135491
      3          6           0        1.785973    1.687658   -0.081792
      4          6           0        5.826772    4.508811    0.028654
      5          6           0        8.541909    0.559065    0.165234
      6          7           0        3.368280   -0.139265   -0.216636
      7          6           0        3.404696   -1.497858   -0.146665
      8          6           0        2.055807   -2.127182   -0.165444
      9          6           0        1.064201   -0.843118   -0.087202
     10          6           0        2.109345    0.312349   -0.074578
     11          6           0        0.207945   -0.816143   -1.319299
     12          6           0        1.790225   -3.004382    1.208622
     13          6           0        0.810079   -4.240113    1.165421
     14          6           0       -0.073379   -4.509428   -0.042883
     15          8           0        0.229170   -5.234331   -0.970552
     16          8           0       -1.287700   -3.857517    0.110297
     17          7           0        3.942621    2.832661   -0.025184
     18          6           0        2.543965    2.882196   -0.149890
     19          6           0        2.141213    4.241814   -0.308040
     20          6           0        3.296693    5.058704   -0.111609
     21          6           0        4.426843    4.113031    0.000236
     22          6           0        0.706394    4.474551   -0.683726
     23          6           0        3.432213    6.554312   -0.067083
     24          8           0        4.427767    7.168592    0.307278
     25          6           0        2.279844    7.398607   -0.506369
     26          7           0        6.912420    2.340398    0.216338
     27          6           0        6.920746    3.691698    0.176895
     28          6           0        8.357864    4.250803    0.163257
     29          6           0        9.187390    2.987347    0.557598
     30          6           0        8.148229    1.856252    0.147081
     31          6           0        8.741361    4.740164   -1.254574
     32          6           0        9.624359    2.934924    2.049266
     33          6           0        8.664426    3.370713    3.136537
     34          7           0        6.440473   -0.575181   -0.014893
     35          6           0        7.798958   -0.597758   -0.046931
     36          6           0        8.171620   -2.029288   -0.064526
     37          6           0        6.946945   -2.709466   -0.232821
     38          6           0        5.939839   -1.799220   -0.164983
     39          6           0        9.603354   -2.505707   -0.029837
     40          6           0        6.348437   -3.909586   -0.361994
     41          8           0        6.893362   -5.009254   -0.560251
     42          6           0        4.808096   -3.660725   -0.259176
     43          6           0        4.059913   -4.370252   -1.332350
     44          8           0        3.947753   -3.998078   -2.517638
     45          8           0        3.687013   -5.587325   -0.817586
     46          6           0        3.072020   -6.572896   -1.770486
     47          6           0       -2.290788   -4.021352   -0.928271
     48          6           0       -3.606236   -3.378950   -0.549487
     49          6           0       -4.569020   -3.880082    0.271638
     50          6           0       -4.450633   -5.182735    0.967766
     51          6           0       -5.924101   -3.231928    0.404264
     52          6           0       -6.239148   -2.453196    1.584282
     53          6           0       -7.053204   -1.241905    1.254813
     54          6           0       -8.585740   -1.472133    1.626530
     55          6           0       -8.834061   -1.598868    3.161186
     56          6           0       -9.492973   -0.402086    0.960419
     57          6           0      -10.656219   -1.002503    0.271692
     58          6           0      -12.020584   -0.634232    0.956900
     59          6           0      -12.840151    0.675927    0.579133
     60          6           0      -14.075314    0.758618    1.594155
     61          6           0      -13.371068    0.635146   -0.857543
     62          6           0      -12.825952    1.705219   -1.766708
     63          6           0      -13.624480    2.990038   -1.683527
     64          6           0      -12.773572    4.182184   -1.197012
     65          6           0      -13.594677    5.105170   -0.203672
     66          6           0      -12.261442    5.016924   -2.349797
     67          1           0        0.731384    1.970084   -0.052898
     68          1           0        6.084984    5.567986   -0.032073
     69          1           0        9.612209    0.447359    0.349293
     70          1           0        1.861459   -2.748253   -1.040232
     71          1           0        0.480168   -0.896687    0.831105
     72          1           0       -0.777191   -0.540709   -0.941922
     73          1           0        0.083848   -1.817575   -1.731496
     74          1           0        0.433444   -0.189735   -2.182772
     75          1           0        1.206239   -2.395042    1.898752
     76          1           0        2.694241   -3.212389    1.779393
     77          1           0        0.169202   -4.244163    2.047250
     78          1           0        1.547605   -5.036211    1.262708
     79          1           0        0.463976    3.811309   -1.514154
     80          1           0        0.522683    5.476376   -1.073057
     81          1           0        0.085837    4.172691    0.160338
     82          1           0        1.374943    7.317906    0.096309
     83          1           0        2.028084    7.189150   -1.545843
     84          1           0        2.599489    8.439732   -0.465001
     85          1           0        8.340779    4.951610    0.997310
     86          1           0       10.031936    2.824411   -0.113288
     87          1           0        9.214303    3.862929   -1.694060
     88          1           0        9.315545    5.659362   -1.137892
     89          1           0        7.822959    4.928989   -1.809531
     90          1           0       10.599519    3.391510    2.223727
     91          1           0        9.682020    1.863294    2.241031
     92          1           0        9.054952    4.019787    3.920485
     93          1           0        8.357016    2.458552    3.647122
     94          1           0        7.668843    3.698062    2.836147
     95          1           0       10.412304   -1.931989    0.421378
     96          1           0        9.931885   -2.640282   -1.059920
     97          1           0        9.782893   -3.428471    0.521025
     98          1           0        4.562655   -4.199462    0.656135
     99          1           0        2.703695   -7.399565   -1.163369
    100          1           0        3.705069   -7.058789   -2.512860
    101          1           0        2.266684   -6.057730   -2.295633
    102          1           0       -2.411713   -5.097028   -1.061196
    103          1           0       -1.915297   -3.448245   -1.775909
    104          1           0       -3.863152   -2.440006   -1.040075
    105          1           0       -4.428963   -5.026820    2.046818
    106          1           0       -3.477172   -5.599641    0.707582
    107          1           0       -5.302038   -5.828436    0.754908
    108          1           0       -6.646587   -4.048033    0.430110
    109          1           0       -6.109651   -2.734454   -0.547523
    110          1           0       -5.255781   -2.190254    1.973649
    111          1           0       -6.771803   -3.080847    2.298734
    112          1           0       -6.896505   -0.816908    0.263343
    113          1           0       -6.630384   -0.462182    1.890204
    114          1           0       -8.834296   -2.402233    1.116056
    115          1           0       -8.604169   -2.651200    3.328540
    116          1           0       -9.897863   -1.471343    3.366134
    117          1           0       -8.139221   -0.958130    3.703835
    118          1           0       -8.835729    0.110140    0.258442
    119          1           0       -9.905092    0.392196    1.583462
    120          1           0      -10.542272   -2.077195    0.132429
    121          1           0      -10.756487   -0.752630   -0.784402
    122          1           0      -11.901326   -0.714926    2.037237
    123          1           0      -12.684058   -1.450450    0.671815
    124          1           0      -12.253809    1.586589    0.708157
    125          1           0      -14.072793   -0.052772    2.322372
    126          1           0      -15.039438    0.866007    1.097762
    127          1           0      -13.773713    1.615709    2.196424
    128          1           0      -14.455598    0.668673   -0.949177
    129          1           0      -13.086926   -0.300633   -1.338454
    130          1           0      -12.761986    1.340960   -2.792166
    131          1           0      -11.806186    2.009609   -1.533863
    132          1           0      -14.267569    2.694040   -0.856076
    133          1           0      -14.170977    3.228387   -2.596370
    134          1           0      -11.907031    3.892063   -0.602038
    135          1           0      -14.675417    4.963318   -0.222308
    136          1           0      -13.363502    6.168264   -0.266978
    137          1           0      -13.166074    4.872570    0.771598
    138          1           0      -13.148749    5.576590   -2.646332
    139          1           0      -11.727780    4.492403   -3.142680
    140          1           0      -11.555235    5.699198   -1.875993
 ---------------------------------------------------------------------

 SCF Done:  E(RwB97XD) =  -3007.82846465     A.U. after   17 cycles

 Excitation energies and oscillator strengths:

 Excited State   1:      Singlet-A      1.6670 eV  743.75 nm  f=0.3909  <S**2>=0.000
     245 -> 248        0.18745
     246 -> 247        0.68240
     245 <- 248        0.11568
 This state for optimization and/or second-order correction.
 Total Energy, E(TD-HF/TD-DFT) =  -3007.76720303
 Copying the excited state density for this state as the 1-particle RhoCI density.

 Excited State   2:      Singlet-A      2.0741 eV  597.78 nm  f=0.1352  <S**2>=0.000
     245 -> 247        0.65539
     246 -> 248       -0.24433

 Excited State   3:      Singlet-A      3.2387 eV  382.82 nm  f=0.0069  <S**2>=0.000
     243 -> 249       -0.10404
     244 -> 247        0.67339

 Excited State   4:      Singlet-A      3.3232 eV  373.09 nm  f=0.0050  <S**2>=0.000
     242 -> 247        0.25933
     242 -> 249        0.15336
     242 -> 250       -0.10534
     243 -> 247        0.50422
     243 -> 249        0.22392
     243 -> 250       -0.15631
     246 -> 248        0.13222

 Excited State   5:      Singlet-A      3.5479 eV  349.46 nm  f=0.0151  <S**2>=0.000
     239 -> 247       -0.11104
     241 -> 247        0.54091
     241 -> 249       -0.29594
     241 -> 250       -0.21747
     246 -> 248        0.10485

 The electronic state is 1-A.
 Alpha  occ. eigenvalues --  -46.95314 -19.30385 -19.29752 -19.25751 -19.23925
 Alpha  occ. eigenvalues --  -19.23749 -19.22620 -14.47509 -14.45879 -14.43791
 Alpha  occ. eigenvalues --  -14.43433 -10.43998 -10.42492 -10.38846 -10.37387
 Alpha  occ. eigenvalues --  -10.36458 -10.35783 -10.35452 -10.34566 -10.34060
 Alpha  occ. eigenvalues --  -10.33945 -10.33820 -10.33709 -10.33681 -10.33070
 Alpha  occ. eigenvalues --  -10.32971 -10.32908 -10.32890 -10.32435 -10.32004
 Alpha  occ. eigenvalues --  -10.31813 -10.31654 -10.31641 -10.31616 -10.31429
 Alpha  occ. eigenvalues --  -10.31318 -10.31195 -10.31085 -10.30771 -10.30579
 Alpha  occ. eigenvalues --  -10.30499 -10.30294 -10.30082 -10.30049 -10.29847
 Alpha  occ. eigenvalues --  -10.29831 -10.29828 -10.29813 -10.29582 -10.29452
 Alpha  occ. eigenvalues --  -10.29412 -10.29374 -10.29322 -10.29301 -10.29170
 Alpha  occ. eigenvalues --  -10.29021 -10.28711 -10.28654 -10.28646 -10.28324
 Alpha  occ. eigenvalues --  -10.28289 -10.28266 -10.28117 -10.28086 -10.28079
 Alpha  occ. eigenvalues --  -10.27880  -3.21287  -1.94881  -1.94386  -1.94275
 Alpha  occ. eigenvalues --   -1.18703  -1.16354  -1.11959  -1.11041  -1.10200
 Alpha  occ. eigenvalues --   -1.07945  -1.07280  -1.06411  -1.05931  -1.03683
 Alpha  occ. eigenvalues --   -0.96761  -0.94057  -0.92168  -0.91391  -0.91014
 Alpha  occ. eigenvalues --   -0.90675  -0.90159  -0.89821  -0.89437  -0.89074
 Alpha  occ. eigenvalues --   -0.88215  -0.88007  -0.87265  -0.85957  -0.85407
 Alpha  occ. eigenvalues --   -0.84822  -0.84325  -0.83608  -0.83194  -0.82462
 Alpha  occ. eigenvalues --   -0.82227  -0.80598  -0.80109  -0.78770  -0.78336
 Alpha  occ. eigenvalues --   -0.77778  -0.77046  -0.76958  -0.76863  -0.76536
 Alpha  occ. eigenvalues --   -0.75863  -0.75005  -0.73581  -0.72738  -0.71621
 Alpha  occ. eigenvalues --   -0.71384  -0.70598  -0.69404  -0.68776  -0.68356
 Alpha  occ. eigenvalues --   -0.67583  -0.67275  -0.66883  -0.66115  -0.65975
 Alpha  occ. eigenvalues --   -0.65434  -0.65254  -0.64298  -0.63545  -0.62308
 Alpha  occ. eigenvalues --   -0.61910  -0.61633  -0.61298  -0.60849  -0.59878
 Alpha  occ. eigenvalues --   -0.59835  -0.59518  -0.58772  -0.57990  -0.57788
 Alpha  occ. eigenvalues --   -0.57433  -0.57293  -0.57098  -0.56942  -0.56507
 Alpha  occ. eigenvalues --   -0.55938  -0.55566  -0.55465  -0.54962  -0.54810
 Alpha  occ. eigenvalues --   -0.54198  -0.54030  -0.53982  -0.53887  -0.53615
 Alpha  occ. eigenvalues --   -0.53299  -0.53235  -0.53050  -0.52993  -0.52795
 Alpha  occ. eigenvalues --   -0.52557  -0.52398  -0.52300  -0.52016  -0.51570
 Alpha  occ. eigenvalues --   -0.51430  -0.51166  -0.51139  -0.50932  -0.50713
 Alpha  occ. eigenvalues --   -0.50560  -0.50273  -0.49944  -0.49794  -0.49706
 Alpha  occ. eigenvalues --   -0.49578  -0.49473  -0.48958  -0.48778  -0.48747
 Alpha  occ. eigenvalues --   -0.48578  -0.48308  -0.48220  -0.48030  -0.47844
 Alpha  occ. eigenvalues --   -0.47497  -0.47420  -0.47407  -0.47140  -0.46932
 Alpha  occ. eigenvalues --   -0.46744  -0.46665  -0.46262  -0.46018  -0.45858
 Alpha  occ. eigenvalues --   -0.45585  -0.45412  -0.45125  -0.45085  -0.44938
 Alpha  occ. eigenvalues --   -0.44811  -0.44803  -0.44731  -0.44247  -0.43964
 Alpha  occ. eigenvalues --   -0.43812  -0.43708  -0.43653  -0.43361  -0.43204
 Alpha  occ. eigenvalues --   -0.42932  -0.42763  -0.42492  -0.42358  -0.42137
 Alpha  occ. eigenvalues --   -0.41978  -0.41440  -0.40767  -0.40361  -0.40213
 Alpha  occ. eigenvalues --   -0.40166  -0.39476  -0.39356  -0.39257  -0.39193
 Alpha  occ. eigenvalues --   -0.39096  -0.38895  -0.38690  -0.38362  -0.38114
 Alpha  occ. eigenvalues --   -0.37669  -0.37526  -0.37166  -0.36779  -0.36713
 Alpha  occ. eigenvalues --   -0.36180  -0.35503  -0.34964  -0.33598  -0.33133
 Alpha  occ. eigenvalues --   -0.32842  -0.32182  -0.32149  -0.31749  -0.25771
 Alpha  occ. eigenvalues --   -0.23323
 Alpha virt. eigenvalues --   -0.07416   0.00362   0.02170   0.04358   0.05634
 Alpha virt. eigenvalues --    0.05764   0.06159   0.07433   0.08087   0.09266
 Alpha virt. eigenvalues --    0.11005   0.11337   0.11730   0.12075   0.12309

 Mulliken charges:
               1
     1  Mg   0.955346
     2  C    0.062794
     3  C   -0.047509
     4  C   -0.055912
     5  C   -0.111998
     6  N   -0.332418
     7  C    0.063290
     8  C   -0.144232
     9  C   -0.058477
    10  C    0.068115
    11  C    0.018029
    12  C   -0.014094
    13  C    0.021935
    14  C    0.198170
    15  O   -0.251189
    16  O   -0.381128
    17  N   -0.398333
    18  C    0.081517
    19  C   -0.133265
    20  C   -0.085059
    21  C    0.143048
    22  C    0.058151
    23  C    0.048129
    24  O   -0.237032
    25  C   -0.030982
    26  N   -0.325444
    27  C    0.015149
    28  C   -0.115719
    29  C   -0.087879
    30  C    0.047505
    31  C    0.071015
    32  C    0.030705
    33  C   -0.075668
    34  N   -0.515528
    35  C    0.172559
    36  C   -0.152862
    37  C    0.098919
    38  C    0.090728
    39  C    0.051112
    40  C    0.020004
    41  O   -0.226991
    42  C   -0.096380
    43  C    0.271481
    44  O   -0.276565
    45  O   -0.373507
    46  C    0.143502
    47  C    0.259172
    48  C   -0.149967
    49  C   -0.202704
    50  C    0.056554
    51  C    0.025144
    52  C    0.016122
    53  C   -0.003269
    54  C   -0.206149
    55  C    0.029709
    56  C    0.045500
    57  C   -0.008224
    58  C   -0.033734
    59  C   -0.159938
    60  C   -0.006074
    61  C    0.016893
    62  C   -0.040119
    63  C    0.034417
    64  C   -0.233199
    65  C   -0.026881
    66  C    0.004262
    67  H   -0.016385
    68  H    0.025123
    69  H    0.004073
    70  H    0.084108
    71  H    0.050762
    72  H    0.029417
    73  H    0.033056
    74  H    0.053998
    75  H    0.024423
    76  H    0.042040
    77  H    0.055534
    78  H    0.058214
    79  H    0.051644
    80  H    0.033530
    81  H    0.062229
    82  H    0.061010
    83  H    0.056390
    84  H    0.048895
    85  H    0.039519
    86  H    0.020698
    87  H    0.035798
    88  H    0.056071
    89  H    0.036183
    90  H    0.043021
    91  H    0.016239
    92  H    0.044539
    93  H    0.020566
    94  H    0.041388
    95  H    0.026255
    96  H    0.060077
    97  H    0.048168
    98  H    0.067677
    99  H    0.048384
   100  H    0.056436
   101  H    0.070940
   102  H    0.054839
   103  H    0.042875
   104  H    0.014035
   105  H    0.043049
   106  H    0.027719
   107  H    0.047832
   108  H    0.008486
   109  H    0.021791
   110  H    0.019112
   111  H    0.016047
   112  H    0.017793
   113  H    0.010014
   114  H    0.012117
   115  H    0.024359
   116  H    0.036022
   117  H    0.043015
   118  H    0.000591
   119  H    0.018452
   120  H    0.008639
   121  H    0.005558
   122  H    0.014512
   123  H    0.013826
   124  H    0.022979
   125  H    0.026679
   126  H    0.042785
   127  H    0.026495
   128  H    0.017294
   129  H    0.009992
   130  H    0.009744
   131  H    0.008965
   132  H    0.004906
   133  H    0.028033
   134  H    0.019487
   135  H    0.043242
   136  H    0.018249
   137  H    0.020922
   138  H    0.031859
   139  H    0.034360
   140  H    0.022765
 Sum of Mulliken charges =  -0.00000

 Dipole moment (field-independent basis, Debye):
    X=             -6.0390    Y=              1.4969    Z=              3.3137  Tot=              7.0491
 Quadrupole moment (field-independent basis, Debye-Ang):
   XX=           -388.7245   YY=           -431.2447   ZZ=           -405.4906
   XY=             27.8900   XZ=             15.5505   YZ=            -18.4936

 Normal termination of Gaussian 16 at Wed Apr 27 21:21:36 2022.
