 Gaussian 16, Revision A.03,
 Gaussian 16:  ES64L-G16RevA.03 25-Dec-2016

 --------------------
 #p ZINDO=(nstates=5)
 --------------------

 ------------------------------
 step_1301_chromophore_24 ZINDO
 ------------------------------
 Symbolic Z-matrix:
 Charge =  0 Multiplicity = 1

                         Standard orientation:
 ---------------------------------------------------------------------
 Center     Atomic      Atomic             Coordinates (Angstroms)
 Number     Number       Type             X           Y           Z
 ---------------------------------------------------------------------
      1         12           0        5.240866    0.963851    0.144314
      2          6           0        4.623534   -2.242399   -0.135491
      3          6           0        1.785973    1.687658   -0.081792
      4          6           0        5.826772    4.508811    0.028654
      5          6           0        8.541909    0.559065    0.165234
      6          7           0        3.368280   -0.139265   -0.216636
      7          6           0        3.404696   -1.497858   -0.146665
      8          6           0        2.055807   -2.127182   -0.165444
      9          6           0        1.064201   -0.843118   -0.087202
     10          6           0        2.109345    0.312349   -0.074578
     11          6           0        0.207945   -0.816143   -1.319299
     12          6           0        1.790225   -3.004382    1.208622
     13          6           0        0.810079   -4.240113    1.165421
     14          6           0       -0.073379   -4.509428   -0.042883
     15          8           0        0.229170   -5.234331   -0.970552
     16          8           0       -1.287700   -3.857517    0.110297
     17          7           0        3.942621    2.832661   -0.025184
     18          6           0        2.543965    2.882196   -0.149890
     19          6           0        2.141213    4.241814   -0.308040
     20          6           0        3.296693    5.058704   -0.111609
     21          6           0        4.426843    4.113031    0.000236
     22          6           0        0.706394    4.474551   -0.683726
     23          6           0        3.432213    6.554312   -0.067083
     24          8           0        4.427767    7.168592    0.307278
     25          6           0        2.279844    7.398607   -0.506369
     26          7           0        6.912420    2.340398    0.216338
     27          6           0        6.920746    3.691698    0.176895
     28          6           0        8.357864    4.250803    0.163257
     29          6           0        9.187390    2.987347    0.557598
     30          6           0        8.148229    1.856252    0.147081
     31          6           0        8.741361    4.740164   -1.254574
     32          6           0        9.624359    2.934924    2.049266
     33          6           0        8.664426    3.370713    3.136537
     34          7           0        6.440473   -0.575181   -0.014893
     35          6           0        7.798958   -0.597758   -0.046931
     36          6           0        8.171620   -2.029288   -0.064526
     37          6           0        6.946945   -2.709466   -0.232821
     38          6           0        5.939839   -1.799220   -0.164983
     39          6           0        9.603354   -2.505707   -0.029837
     40          6           0        6.348437   -3.909586   -0.361994
     41          8           0        6.893362   -5.009254   -0.560251
     42          6           0        4.808096   -3.660725   -0.259176
     43          6           0        4.059913   -4.370252   -1.332350
     44          8           0        3.947753   -3.998078   -2.517638
     45          8           0        3.687013   -5.587325   -0.817586
     46          6           0        3.072020   -6.572896   -1.770486
     47          6           0       -2.290788   -4.021352   -0.928271
     48          6           0       -3.606236   -3.378950   -0.549487
     49          6           0       -4.569020   -3.880082    0.271638
     50          6           0       -4.450633   -5.182735    0.967766
     51          6           0       -5.924101   -3.231928    0.404264
     52          6           0       -6.239148   -2.453196    1.584282
     53          6           0       -7.053204   -1.241905    1.254813
     54          6           0       -8.585740   -1.472133    1.626530
     55          6           0       -8.834061   -1.598868    3.161186
     56          6           0       -9.492973   -0.402086    0.960419
     57          6           0      -10.656219   -1.002503    0.271692
     58          6           0      -12.020584   -0.634232    0.956900
     59          6           0      -12.840151    0.675927    0.579133
     60          6           0      -14.075314    0.758618    1.594155
     61          6           0      -13.371068    0.635146   -0.857543
     62          6           0      -12.825952    1.705219   -1.766708
     63          6           0      -13.624480    2.990038   -1.683527
     64          6           0      -12.773572    4.182184   -1.197012
     65          6           0      -13.594677    5.105170   -0.203672
     66          6           0      -12.261442    5.016924   -2.349797
     67          1           0        0.731384    1.970084   -0.052898
     68          1           0        6.084984    5.567986   -0.032073
     69          1           0        9.612209    0.447359    0.349293
     70          1           0        1.861459   -2.748253   -1.040232
     71          1           0        0.480168   -0.896687    0.831105
     72          1           0       -0.777191   -0.540709   -0.941922
     73          1           0        0.083848   -1.817575   -1.731496
     74          1           0        0.433444   -0.189735   -2.182772
     75          1           0        1.206239   -2.395042    1.898752
     76          1           0        2.694241   -3.212389    1.779393
     77          1           0        0.169202   -4.244163    2.047250
     78          1           0        1.547605   -5.036211    1.262708
     79          1           0        0.463976    3.811309   -1.514154
     80          1           0        0.522683    5.476376   -1.073057
     81          1           0        0.085837    4.172691    0.160338
     82          1           0        1.374943    7.317906    0.096309
     83          1           0        2.028084    7.189150   -1.545843
     84          1           0        2.599489    8.439732   -0.465001
     85          1           0        8.340779    4.951610    0.997310
     86          1           0       10.031936    2.824411   -0.113288
     87          1           0        9.214303    3.862929   -1.694060
     88          1           0        9.315545    5.659362   -1.137892
     89          1           0        7.822959    4.928989   -1.809531
     90          1           0       10.599519    3.391510    2.223727
     91          1           0        9.682020    1.863294    2.241031
     92          1           0        9.054952    4.019787    3.920485
     93          1           0        8.357016    2.458552    3.647122
     94          1           0        7.668843    3.698062    2.836147
     95          1           0       10.412304   -1.931989    0.421378
     96          1           0        9.931885   -2.640282   -1.059920
     97          1           0        9.782893   -3.428471    0.521025
     98          1           0        4.562655   -4.199462    0.656135
     99          1           0        2.703695   -7.399565   -1.163369
    100          1           0        3.705069   -7.058789   -2.512860
    101          1           0        2.266684   -6.057730   -2.295633
    102          1           0       -2.411713   -5.097028   -1.061196
    103          1           0       -1.915297   -3.448245   -1.775909
    104          1           0       -3.863152   -2.440006   -1.040075
    105          1           0       -4.428963   -5.026820    2.046818
    106          1           0       -3.477172   -5.599641    0.707582
    107          1           0       -5.302038   -5.828436    0.754908
    108          1           0       -6.646587   -4.048033    0.430110
    109          1           0       -6.109651   -2.734454   -0.547523
    110          1           0       -5.255781   -2.190254    1.973649
    111          1           0       -6.771803   -3.080847    2.298734
    112          1           0       -6.896505   -0.816908    0.263343
    113          1           0       -6.630384   -0.462182    1.890204
    114          1           0       -8.834296   -2.402233    1.116056
    115          1           0       -8.604169   -2.651200    3.328540
    116          1           0       -9.897863   -1.471343    3.366134
    117          1           0       -8.139221   -0.958130    3.703835
    118          1           0       -8.835729    0.110140    0.258442
    119          1           0       -9.905092    0.392196    1.583462
    120          1           0      -10.542272   -2.077195    0.132429
    121          1           0      -10.756487   -0.752630   -0.784402
    122          1           0      -11.901326   -0.714926    2.037237
    123          1           0      -12.684058   -1.450450    0.671815
    124          1           0      -12.253809    1.586589    0.708157
    125          1           0      -14.072793   -0.052772    2.322372
    126          1           0      -15.039438    0.866007    1.097762
    127          1           0      -13.773713    1.615709    2.196424
    128          1           0      -14.455598    0.668673   -0.949177
    129          1           0      -13.086926   -0.300633   -1.338454
    130          1           0      -12.761986    1.340960   -2.792166
    131          1           0      -11.806186    2.009609   -1.533863
    132          1           0      -14.267569    2.694040   -0.856076
    133          1           0      -14.170977    3.228387   -2.596370
    134          1           0      -11.907031    3.892063   -0.602038
    135          1           0      -14.675417    4.963318   -0.222308
    136          1           0      -13.363502    6.168264   -0.266978
    137          1           0      -13.166074    4.872570    0.771598
    138          1           0      -13.148749    5.576590   -2.646332
    139          1           0      -11.727780    4.492403   -3.142680
    140          1           0      -11.555235    5.699198   -1.875993
 ---------------------------------------------------------------------

 SCF Done:  E(RZINDO/S) =  -474.588014160     A.U. after   20 cycles

 Excitation energies and oscillator strengths:

 Excited State   1:      Singlet-A      1.2579 eV  985.67 nm  f=0.6112  <S**2>=0.000
     175 ->178        -0.18987
     176 ->177         0.66204
 This state for optimization and/or second-order correction.
 Total Energy, E(CIS/TDA) =  -474.541788604
 Copying the excited state density for this state as the 1-particle RhoCI density.

 Excited State   2:      Singlet-A      1.8853 eV  657.65 nm  f=0.0801  <S**2>=0.000
     175 ->177         0.57392
     176 ->178         0.37754

 Excited State   3:      Singlet-A      2.8424 eV  436.19 nm  f=0.0341  <S**2>=0.000
     170 ->177         0.35620
     170 ->178         0.21726
     170 ->179         0.29804
     170 ->180        -0.28145
     170 ->186         0.16616
     170 ->187         0.11494
     170 ->202        -0.12957
     176 ->178        -0.12473

 Excited State   4:      Singlet-A      2.9477 eV  420.61 nm  f=0.1478  <S**2>=0.000
     167 ->179        -0.10463
     168 ->177         0.27715
     168 ->179        -0.33272
     168 ->180        -0.29390
     168 ->186        -0.17943
     168 ->187         0.11367
     175 ->177         0.13350
     176 ->178        -0.23986

 Excited State   5:      Singlet-A      2.9698 eV  417.49 nm  f=0.4667  <S**2>=0.000
     168 ->177         0.12472
     168 ->179        -0.16334
     168 ->180        -0.13139
     171 ->177        -0.11083
     175 ->177        -0.24369
     176 ->178         0.44349
     176 ->179         0.27610
     176 ->180        -0.10380

 The electronic state is 1-A.
 Alpha  occ. eigenvalues --   -1.89111  -1.82729  -1.79348  -1.72979  -1.71164
 Alpha  occ. eigenvalues --   -1.70510  -1.67149  -1.64525  -1.59451  -1.59245
 Alpha  occ. eigenvalues --   -1.56761  -1.51680  -1.48601  -1.48345  -1.45543
 Alpha  occ. eigenvalues --   -1.44357  -1.42872  -1.40946  -1.40592  -1.39561
 Alpha  occ. eigenvalues --   -1.36703  -1.34395  -1.32544  -1.31762  -1.30469
 Alpha  occ. eigenvalues --   -1.28090  -1.25614  -1.22883  -1.21057  -1.19889
 Alpha  occ. eigenvalues --   -1.17650  -1.15441  -1.15089  -1.14364  -1.13536
 Alpha  occ. eigenvalues --   -1.12753  -1.11365  -1.10813  -1.05184  -1.03726
 Alpha  occ. eigenvalues --   -1.03612  -1.02454  -0.98610  -0.97577  -0.96447
 Alpha  occ. eigenvalues --   -0.95655  -0.94716  -0.94337  -0.93727  -0.92879
 Alpha  occ. eigenvalues --   -0.91746  -0.91001  -0.88829  -0.88019  -0.85941
 Alpha  occ. eigenvalues --   -0.85605  -0.84319  -0.83282  -0.81818  -0.80637
 Alpha  occ. eigenvalues --   -0.80462  -0.78921  -0.78552  -0.78084  -0.77484
 Alpha  occ. eigenvalues --   -0.75954  -0.75831  -0.75205  -0.74744  -0.74591
 Alpha  occ. eigenvalues --   -0.74177  -0.72481  -0.71836  -0.71701  -0.70873
 Alpha  occ. eigenvalues --   -0.69984  -0.69236  -0.69076  -0.68844  -0.67299
 Alpha  occ. eigenvalues --   -0.67106  -0.66503  -0.66000  -0.65922  -0.65477
 Alpha  occ. eigenvalues --   -0.65267  -0.64666  -0.64461  -0.63447  -0.63219
 Alpha  occ. eigenvalues --   -0.63026  -0.62807  -0.62563  -0.61906  -0.61522
 Alpha  occ. eigenvalues --   -0.61435  -0.60987  -0.60866  -0.60268  -0.59988
 Alpha  occ. eigenvalues --   -0.59850  -0.58946  -0.58809  -0.58471  -0.58029
 Alpha  occ. eigenvalues --   -0.57893  -0.57472  -0.57023  -0.56916  -0.56533
 Alpha  occ. eigenvalues --   -0.56338  -0.55934  -0.55454  -0.55226  -0.54608
 Alpha  occ. eigenvalues --   -0.54134  -0.53657  -0.53429  -0.52911  -0.52756
 Alpha  occ. eigenvalues --   -0.52238  -0.51985  -0.51733  -0.51487  -0.51326
 Alpha  occ. eigenvalues --   -0.51152  -0.50771  -0.50608  -0.50412  -0.50125
 Alpha  occ. eigenvalues --   -0.49725  -0.49549  -0.49318  -0.49091  -0.48563
 Alpha  occ. eigenvalues --   -0.48308  -0.47914  -0.47809  -0.47732  -0.47570
 Alpha  occ. eigenvalues --   -0.47168  -0.47059  -0.46782  -0.46611  -0.46352
 Alpha  occ. eigenvalues --   -0.46164  -0.46111  -0.45524  -0.45111  -0.44981
 Alpha  occ. eigenvalues --   -0.44575  -0.44445  -0.44051  -0.43712  -0.43229
 Alpha  occ. eigenvalues --   -0.43047  -0.42843  -0.42601  -0.42460  -0.42106
 Alpha  occ. eigenvalues --   -0.41792  -0.41590  -0.40806  -0.39390  -0.38875
 Alpha  occ. eigenvalues --   -0.37745  -0.36795  -0.35476  -0.34671  -0.33950
 Alpha  occ. eigenvalues --   -0.33161  -0.32848  -0.32485  -0.32111  -0.26422
 Alpha  occ. eigenvalues --   -0.22017
 Alpha virt. eigenvalues --   -0.08763  -0.02055  -0.00479   0.01186   0.01635
 Alpha virt. eigenvalues --    0.02459   0.02656   0.02925   0.04141   0.05102
 Alpha virt. eigenvalues --    0.06400   0.06890   0.07041   0.07609   0.08619

 Mulliken charges:
               1
     1  Mg   0.427374
     2  C   -0.036700
     3  C   -0.069023
     4  C   -0.079395
     5  C   -0.059427
     6  N   -0.257514
     7  C    0.113227
     8  C   -0.000814
     9  C    0.007051
    10  C    0.139789
    11  C   -0.046732
    12  C   -0.039395
    13  C    0.000230
    14  C    0.472973
    15  O   -0.504525
    16  O   -0.282417
    17  N   -0.351834
    18  C    0.103054
    19  C    0.029602
    20  C   -0.047873
    21  C    0.151636
    22  C   -0.039668
    23  C    0.334503
    24  O   -0.522328
    25  C   -0.030820
    26  N   -0.271162
    27  C    0.154613
    28  C   -0.005408
    29  C   -0.006928
    30  C    0.111674
    31  C   -0.049923
    32  C   -0.023037
    33  C   -0.058588
    34  N   -0.314074
    35  C    0.085116
    36  C    0.029014
    37  C   -0.030518
    38  C    0.109306
    39  C   -0.041252
    40  C    0.334224
    41  O   -0.550037
    42  C    0.065819
    43  C    0.487048
    44  O   -0.529656
    45  O   -0.264752
    46  C    0.072010
    47  C    0.109812
    48  C   -0.108344
    49  C    0.007932
    50  C   -0.042230
    51  C   -0.015387
    52  C   -0.017165
    53  C   -0.036037
    54  C   -0.016707
    55  C   -0.057403
    56  C   -0.030611
    57  C   -0.034911
    58  C   -0.038140
    59  C   -0.007429
    60  C   -0.070202
    61  C   -0.025125
    62  C   -0.035551
    63  C   -0.038352
    64  C   -0.011929
    65  C   -0.068655
    66  C   -0.057448
    67  H    0.014378
    68  H    0.048053
    69  H    0.018814
    70  H    0.064154
    71  H    0.042431
    72  H    0.008202
    73  H    0.022053
    74  H    0.034038
    75  H    0.013289
    76  H    0.032702
    77  H    0.036174
    78  H    0.036050
    79  H    0.028096
    80  H    0.024918
    81  H    0.038729
    82  H    0.036823
    83  H    0.032152
    84  H    0.031839
    85  H    0.038596
    86  H    0.023002
    87  H    0.032475
    88  H    0.031096
    89  H    0.025114
    90  H    0.023119
    91  H    0.016494
    92  H    0.023972
    93  H    0.007382
    94  H    0.025850
    95  H    0.021910
    96  H    0.033441
    97  H    0.028129
    98  H    0.049237
    99  H    0.029512
   100  H    0.048856
   101  H    0.052297
   102  H    0.056063
   103  H    0.043011
   104  H    0.023987
   105  H    0.025425
   106  H    0.024105
   107  H    0.032818
   108  H    0.009937
   109  H    0.018072
   110  H    0.014312
   111  H    0.024208
   112  H    0.026562
   113  H    0.004025
   114  H    0.021525
   115  H    0.014589
   116  H    0.026221
   117  H    0.031936
   118  H    0.008786
   119  H    0.022090
   120  H    0.016763
   121  H    0.011890
   122  H    0.016894
   123  H    0.007584
   124  H    0.027755
   125  H    0.021157
   126  H    0.031994
   127  H    0.013931
   128  H    0.022095
   129  H    0.006800
   130  H    0.008937
   131  H    0.015913
   132  H    0.018083
   133  H    0.029097
   134  H    0.020269
   135  H    0.026568
   136  H    0.016350
   137  H    0.010139
   138  H    0.023669
   139  H    0.023335
   140  H    0.009151
 Sum of Mulliken charges =  -0.00000

 Dipole moment (field-independent basis, Debye):
    X=             -8.3471    Y=              3.1729    Z=              4.8439  Tot=             10.1590
 N-N= 4.314529568470D+03 E-N= 0.000000000000D+00  KE=-9.303642243217D+03
 Leave Link  601 at Wed Apr 27 21:33:27 2022, MaxMem=  6710886400 cpu:               0.8 elap:               0.0
 (Enter /sw/apps/gaussian-16.0/g16/l9999.exe)
 1\1\GINC-BP1-COMPUTE216\SP\RZINDO CIS\STO-3G\C55H74Mg1N4O6\OF15641\27-
 Apr-2022\0\\#p ZINDO=(nstates=5)\\step_1301_chromophore_24 ZINDO\\0,1\
 Mg,0,-0.255,43.989,25.363\C,0,1.763,43.812,27.939\C,0,-2.994,43.053,27
 .396\C,0,-2.473,43.75,22.544\C,0,2.185,44.673,23.209\N,0,-0.592,43.349
 ,27.444\C,0,0.423,43.516,28.335\C,0,0.015,43.28,29.747\C,0,-1.592,43.0
 79,29.623\C,0,-1.769,43.215,28.081\C,0,-1.948,41.706,30.113\C,0,0.245,
 44.633,30.666\C,0,0.529,44.485,32.211\C,0,0.37,43.15,32.922\O,0,1.268,

 Normal termination of Gaussian 16 at Wed Apr 27 21:33:27 2022.
