 Gaussian 16, Revision A.03,
 Gaussian 16:  ES64L-G16RevA.03 25-Dec-2016

 ------------------------------
 #p blyp/Def2SVP td=(nstates=5)
 ------------------------------

 --------------------------------------------------
 step_451_chromophore_24 TDDFT with blyp functional
 --------------------------------------------------
 Symbolic Z-matrix:
 Charge =  0 Multiplicity = 1

                         Standard orientation:
 ---------------------------------------------------------------------
 Center     Atomic      Atomic             Coordinates (Angstroms)
 Number     Number       Type             X           Y           Z
 ---------------------------------------------------------------------
      1         12           0        5.174717    1.057455    0.224103
      2          6           0        4.180640   -2.347032    0.182789
      3          6           0        1.742810    1.869400   -0.170044
      4          6           0        6.032344    4.303268   -0.057111
      5          6           0        8.473041    0.066578    0.148768
      6          7           0        3.172647   -0.115293    0.320832
      7          6           0        2.981520   -1.489807    0.221801
      8          6           0        1.568057   -1.908143    0.231348
      9          6           0        0.776792   -0.522075   -0.082610
     10          6           0        1.947530    0.501334    0.014488
     11          6           0        0.028136   -0.618687   -1.397043
     12          6           0        1.243375   -2.633478    1.525801
     13          6           0        0.350312   -3.779863    1.529908
     14          6           0       -0.611493   -4.069441    0.329131
     15          8           0       -0.376552   -4.812682   -0.548016
     16          8           0       -1.813470   -3.425184    0.480494
     17          7           0        4.112836    2.798994    0.009724
     18          6           0        2.736895    2.902766   -0.115430
     19          6           0        2.480939    4.261212   -0.457897
     20          6           0        3.629811    5.015192   -0.554828
     21          6           0        4.683636    4.062392   -0.136215
     22          6           0        1.061392    4.732553   -0.519851
     23          6           0        3.888856    6.484515   -0.956656
     24          8           0        4.964985    7.107653   -0.818029
     25          6           0        2.746136    7.260751   -1.524254
     26          7           0        7.033573    1.999745    0.277866
     27          6           0        7.133666    3.373026    0.193865
     28          6           0        8.569073    3.828567    0.124818
     29          6           0        9.315546    2.466539    0.175241
     30          6           0        8.251636    1.420238    0.310148
     31          6           0        8.994514    4.806752   -0.998271
     32          6           0       10.312838    2.335050    1.409900
     33          6           0        9.781411    2.071724    2.761836
     34          7           0        6.178103   -0.776661    0.204250
     35          6           0        7.528788   -0.993169    0.016677
     36          6           0        7.734460   -2.367739   -0.201732
     37          6           0        6.450401   -2.983695   -0.096368
     38          6           0        5.520418   -1.925102    0.152467
     39          6           0        9.023449   -2.982993   -0.465205
     40          6           0        5.732946   -4.226658   -0.134844
     41          8           0        6.109104   -5.394716   -0.346039
     42          6           0        4.232944   -3.882046    0.124722
     43          6           0        3.577991   -4.567451   -1.004952
     44          8           0        3.563722   -4.238226   -2.149134
     45          8           0        2.961611   -5.694269   -0.519229
     46          6           0        2.216740   -6.593373   -1.436512
     47          6           0       -2.723000   -3.737329   -0.643367
     48          6           0       -4.071518   -3.082616   -0.535930
     49          6           0       -5.184933   -3.387009   -1.189484
     50          6           0       -5.252526   -4.402528   -2.365934
     51          6           0       -6.539553   -2.751386   -0.816403
     52          6           0       -7.125420   -3.137787    0.573322
     53          6           0       -6.662668   -2.204430    1.744699
     54          6           0       -7.926637   -1.506511    2.311861
     55          6           0       -7.906677   -1.405153    3.861226
     56          6           0       -7.974199   -0.104552    1.700568
     57          6           0       -9.380583    0.409166    1.255834
     58          6           0       -9.777482    1.828667    1.838802
     59          6           0      -10.371467    2.781911    0.736243
     60          6           0      -10.374488    4.254744    1.225971
     61          6           0      -11.836860    2.412823    0.416729
     62          6           0      -12.121909    2.584838   -1.106237
     63          6           0      -13.552408    3.075962   -1.375639
     64          6           0      -14.509614    1.814789   -1.375434
     65          6           0      -15.429528    1.862230   -2.646128
     66          6           0      -15.328963    1.682785   -0.092357
     67          1           0        0.682395    2.117460   -0.241286
     68          1           0        6.520759    5.216876   -0.402875
     69          1           0        9.519437   -0.225723    0.036674
     70          1           0        1.439920   -2.553537   -0.637426
     71          1           0        0.001415   -0.359076    0.666057
     72          1           0       -1.001097   -0.421146   -1.100612
     73          1           0       -0.022602   -1.620611   -1.825134
     74          1           0        0.440143    0.028146   -2.172129
     75          1           0        0.667440   -1.973042    2.173282
     76          1           0        2.205262   -2.890702    1.970889
     77          1           0       -0.260409   -3.687543    2.428331
     78          1           0        0.925679   -4.703609    1.595685
     79          1           0        1.045686    5.465795    0.286099
     80          1           0        0.326930    3.993189   -0.200413
     81          1           0        0.716161    5.238237   -1.421637
     82          1           0        2.481088    6.760282   -2.455739
     83          1           0        2.891680    8.328947   -1.682108
     84          1           0        1.933865    7.272645   -0.797223
     85          1           0        8.754489    4.487368    0.973066
     86          1           0        9.817093    2.291381   -0.776334
     87          1           0        8.347878    4.610298   -1.853816
     88          1           0       10.078839    4.784841   -1.113306
     89          1           0        8.763410    5.798165   -0.608895
     90          1           0       10.854950    3.275328    1.504226
     91          1           0       11.089552    1.614668    1.152305
     92          1           0       10.197897    1.149525    3.166067
     93          1           0        8.692971    2.012039    2.795963
     94          1           0       10.046598    2.930953    3.378830
     95          1           0        9.407898   -3.778721    0.173147
     96          1           0        9.769995   -2.229415   -0.216983
     97          1           0        9.122528   -3.175843   -1.534454
     98          1           0        4.004351   -4.489544    1.000718
     99          1           0        2.938512   -7.232408   -1.945905
    100          1           0        1.589455   -6.138915   -2.203963
    101          1           0        1.514931   -7.230371   -0.896924
    102          1           0       -2.926669   -4.808427   -0.658091
    103          1           0       -2.214444   -3.517607   -1.582637
    104          1           0       -4.232622   -2.451598    0.338042
    105          1           0       -5.933226   -5.217126   -2.121190
    106          1           0       -4.292465   -4.750496   -2.746152
    107          1           0       -5.829454   -3.917303   -3.153070
    108          1           0       -7.271995   -2.773671   -1.622637
    109          1           0       -6.224711   -1.714244   -0.699241
    110          1           0       -6.797179   -4.150530    0.807350
    111          1           0       -8.198348   -3.205032    0.393922
    112          1           0       -5.838665   -1.540215    1.484083
    113          1           0       -6.327090   -2.978225    2.435364
    114          1           0       -8.799982   -2.061845    1.970434
    115          1           0       -7.695462   -0.392191    4.205084
    116          1           0       -7.072344   -2.028780    4.181175
    117          1           0       -8.892048   -1.799091    4.109837
    118          1           0       -7.421459   -0.098261    0.761364
    119          1           0       -7.466612    0.577136    2.383153
    120          1           0      -10.163522   -0.266351    1.600325
    121          1           0       -9.417373    0.532746    0.173716
    122          1           0       -8.918311    2.285672    2.328912
    123          1           0      -10.513634    1.733083    2.636969
    124          1           0       -9.643788    2.751617   -0.074296
    125          1           0      -11.119692    4.818790    0.665958
    126          1           0       -9.378186    4.678326    1.095288
    127          1           0      -10.533542    4.286215    2.304042
    128          1           0      -12.539456    2.862391    1.117695
    129          1           0      -11.959546    1.372192    0.718248
    130          1           0      -11.914909    1.684323   -1.684739
    131          1           0      -11.509904    3.297312   -1.660051
    132          1           0      -13.601946    3.537614   -2.361622
    133          1           0      -13.847347    3.794529   -0.611542
    134          1           0      -13.967132    0.869497   -1.365123
    135          1           0      -16.116305    1.044312   -2.431667
    136          1           0      -14.815304    1.466934   -3.455311
    137          1           0      -15.948568    2.799840   -2.843771
    138          1           0      -16.400548    1.498406   -0.169664
    139          1           0      -15.248191    2.593137    0.500727
    140          1           0      -14.967726    0.985145    0.663238
 ---------------------------------------------------------------------

 SCF Done:  E(RB-LYP) =  -3007.35442147     A.U. after   22 cycles

 Excitation energies and oscillator strengths:

 Excited State   1:      Singlet-A      1.7371 eV  713.74 nm  f=0.0376  <S**2>=0.000
     244 -> 247        0.64653
     245 -> 247        0.13507
     246 -> 247        0.24640
 This state for optimization and/or second-order correction.
 Total Energy, E(TD-HF/TD-DFT) =  -3007.29058376
 Copying the excited state density for this state as the 1-particle RhoCI density.

 Excited State   2:      Singlet-A      1.7847 eV  694.70 nm  f=0.2613  <S**2>=0.000
     244 -> 247       -0.23183
     245 -> 247       -0.10906
     245 -> 248       -0.18590
     246 -> 247        0.64074
     246 <- 247       -0.13912

 Excited State   3:      Singlet-A      1.9276 eV  643.19 nm  f=0.0065  <S**2>=0.000
     243 -> 247        0.64033
     245 -> 247        0.27000

 Excited State   4:      Singlet-A      2.0425 eV  607.01 nm  f=0.0522  <S**2>=0.000
     243 -> 247       -0.29431
     244 -> 247       -0.13313
     245 -> 247        0.55411
     246 -> 248        0.25919

 Excited State   5:      Singlet-A      2.3781 eV  521.36 nm  f=0.0001  <S**2>=0.000
     241 -> 247        0.70695

 The electronic state is 1-A.
 Alpha  occ. eigenvalues --  -46.26817 -18.82821 -18.80296 -18.77918 -18.75833
 Alpha  occ. eigenvalues --  -18.75216 -18.74674 -14.03624 -14.03265 -14.01557
 Alpha  occ. eigenvalues --  -14.00486 -10.04392 -10.02317 -10.00535  -9.98730
 Alpha  occ. eigenvalues --   -9.98260  -9.97173  -9.96879  -9.96780  -9.96052
 Alpha  occ. eigenvalues --   -9.96048  -9.95980  -9.95975  -9.95215  -9.94438
 Alpha  occ. eigenvalues --   -9.94397  -9.94270  -9.93773  -9.93649  -9.93571
 Alpha  occ. eigenvalues --   -9.93560  -9.93387  -9.93232  -9.93063  -9.93004
 Alpha  occ. eigenvalues --   -9.93000  -9.92933  -9.92916  -9.92790  -9.92685
 Alpha  occ. eigenvalues --   -9.92661  -9.92588  -9.92568  -9.92414  -9.92263
 Alpha  occ. eigenvalues --   -9.92157  -9.92092  -9.92016  -9.91967  -9.91913
 Alpha  occ. eigenvalues --   -9.91905  -9.91720  -9.91701  -9.91652  -9.91564
 Alpha  occ. eigenvalues --   -9.91493  -9.91401  -9.91352  -9.91212  -9.91144
 Alpha  occ. eigenvalues --   -9.91027  -9.91015  -9.90984  -9.90683  -9.90681
 Alpha  occ. eigenvalues --   -9.90333  -2.91452  -1.71896  -1.71334  -1.71156
 Alpha  occ. eigenvalues --   -0.99847  -0.96474  -0.91950  -0.90260  -0.89356
 Alpha  occ. eigenvalues --   -0.88862  -0.86649  -0.85881  -0.85238  -0.84302
 Alpha  occ. eigenvalues --   -0.74905  -0.74061  -0.73759  -0.72860  -0.72328
 Alpha  occ. eigenvalues --   -0.72230  -0.72134  -0.71053  -0.70763  -0.70722
 Alpha  occ. eigenvalues --   -0.70296  -0.69548  -0.68202  -0.67833  -0.67191
 Alpha  occ. eigenvalues --   -0.66442  -0.65972  -0.65355  -0.65065  -0.64396
 Alpha  occ. eigenvalues --   -0.64110  -0.62689  -0.62456  -0.62102  -0.60630
 Alpha  occ. eigenvalues --   -0.60225  -0.60204  -0.59994  -0.59519  -0.59036
 Alpha  occ. eigenvalues --   -0.58669  -0.57581  -0.57035  -0.55600  -0.54545
 Alpha  occ. eigenvalues --   -0.53901  -0.53503  -0.52772  -0.52372  -0.51573
 Alpha  occ. eigenvalues --   -0.51271  -0.51045  -0.50728  -0.50273  -0.50077
 Alpha  occ. eigenvalues --   -0.49918  -0.49462  -0.49299  -0.47432  -0.46533
 Alpha  occ. eigenvalues --   -0.46468  -0.45840  -0.45570  -0.45299  -0.44130
 Alpha  occ. eigenvalues --   -0.44029  -0.43498  -0.43260  -0.43218  -0.42759
 Alpha  occ. eigenvalues --   -0.42255  -0.41807  -0.41447  -0.41376  -0.41203
 Alpha  occ. eigenvalues --   -0.40951  -0.40654  -0.40500  -0.40399  -0.40109
 Alpha  occ. eigenvalues --   -0.39957  -0.39926  -0.39912  -0.39309  -0.39092
 Alpha  occ. eigenvalues --   -0.39009  -0.38792  -0.38652  -0.38454  -0.38150
 Alpha  occ. eigenvalues --   -0.38060  -0.37758  -0.37681  -0.37443  -0.37440
 Alpha  occ. eigenvalues --   -0.37176  -0.36994  -0.36740  -0.36676  -0.36396
 Alpha  occ. eigenvalues --   -0.36363  -0.36034  -0.35913  -0.35791  -0.35621
 Alpha  occ. eigenvalues --   -0.35463  -0.35345  -0.35007  -0.34926  -0.34715
 Alpha  occ. eigenvalues --   -0.34688  -0.34605  -0.34401  -0.34132  -0.34034
 Alpha  occ. eigenvalues --   -0.34018  -0.33874  -0.33645  -0.33463  -0.33363
 Alpha  occ. eigenvalues --   -0.32941  -0.32850  -0.32721  -0.32685  -0.32298
 Alpha  occ. eigenvalues --   -0.32157  -0.31950  -0.31683  -0.31430  -0.31301
 Alpha  occ. eigenvalues --   -0.30967  -0.30878  -0.30707  -0.30682  -0.30354
 Alpha  occ. eigenvalues --   -0.30271  -0.30242  -0.30087  -0.29895  -0.29830
 Alpha  occ. eigenvalues --   -0.29586  -0.29291  -0.29190  -0.28981  -0.28582
 Alpha  occ. eigenvalues --   -0.28563  -0.28441  -0.28213  -0.28076  -0.27763
 Alpha  occ. eigenvalues --   -0.27406  -0.27060  -0.26959  -0.26754  -0.26652
 Alpha  occ. eigenvalues --   -0.26592  -0.26449  -0.26297  -0.26121  -0.25803
 Alpha  occ. eigenvalues --   -0.24981  -0.24156  -0.24125  -0.23659  -0.23385
 Alpha  occ. eigenvalues --   -0.23376  -0.22781  -0.22035  -0.21027  -0.20649
 Alpha  occ. eigenvalues --   -0.20355  -0.20161  -0.18676  -0.17927  -0.17412
 Alpha  occ. eigenvalues --   -0.15834
 Alpha virt. eigenvalues --   -0.11616  -0.07369  -0.06125  -0.04675  -0.02712
 Alpha virt. eigenvalues --   -0.02074  -0.01772  -0.00613  -0.00510  -0.00147
 Alpha virt. eigenvalues --    0.00722   0.01294   0.02378   0.02548   0.02759

 Mulliken charges:
               1
     1  Mg   0.694405
     2  C    0.047288
     3  C   -0.064722
     4  C   -0.067446
     5  C   -0.073635
     6  N   -0.218425
     7  C   -0.093011
     8  C    0.028293
     9  C   -0.022087
    10  C    0.037127
    11  C    0.118302
    12  C    0.155202
    13  C    0.158912
    14  C    0.037664
    15  O   -0.147432
    16  O   -0.279227
    17  N   -0.328946
    18  C    0.174336
    19  C   -0.131099
    20  C    0.035050
    21  C    0.156554
    22  C    0.154724
    23  C   -0.043148
    24  O   -0.181580
    25  C    0.134869
    26  N   -0.236773
    27  C   -0.012464
    28  C    0.007577
    29  C    0.071344
    30  C    0.023098
    31  C    0.118533
    32  C    0.055163
    33  C    0.088174
    34  N   -0.247237
    35  C    0.121801
    36  C   -0.157658
    37  C    0.119041
    38  C    0.060627
    39  C    0.182109
    40  C   -0.105074
    41  O   -0.156405
    42  C    0.048084
    43  C    0.080825
    44  O   -0.151599
    45  O   -0.284473
    46  C    0.228981
    47  C    0.287402
    48  C   -0.088696
    49  C   -0.156333
    50  C    0.139544
    51  C    0.103701
    52  C    0.061904
    53  C    0.105111
    54  C   -0.118608
    55  C    0.152653
    56  C    0.108062
    57  C    0.077416
    58  C    0.054961
    59  C   -0.086416
    60  C    0.109825
    61  C    0.136194
    62  C    0.072646
    63  C    0.113299
    64  C   -0.091899
    65  C    0.106758
    66  C    0.094471
    67  H   -0.057084
    68  H   -0.042799
    69  H   -0.065881
    70  H    0.004245
    71  H   -0.020293
    72  H   -0.011275
    73  H    0.002482
    74  H   -0.000011
    75  H   -0.025724
    76  H   -0.007067
    77  H   -0.016924
    78  H   -0.004417
    79  H    0.001943
    80  H   -0.022152
    81  H    0.004055
    82  H    0.014782
    83  H   -0.013281
    84  H   -0.002998
    85  H   -0.021682
    86  H   -0.025794
    87  H    0.006085
    88  H   -0.001840
    89  H    0.005765
    90  H   -0.034113
    91  H   -0.024304
    92  H   -0.002858
    93  H    0.000614
    94  H   -0.014276
    95  H    0.005892
    96  H   -0.051666
    97  H    0.015169
    98  H   -0.002498
    99  H    0.008084
   100  H    0.013134
   101  H    0.007295
   102  H    0.005328
   103  H    0.008688
   104  H   -0.040444
   105  H   -0.007074
   106  H    0.000131
   107  H   -0.013543
   108  H   -0.037384
   109  H   -0.018014
   110  H   -0.027637
   111  H   -0.023150
   112  H   -0.000169
   113  H   -0.039239
   114  H   -0.032980
   115  H   -0.015189
   116  H   -0.023920
   117  H   -0.006409
   118  H   -0.041854
   119  H   -0.029721
   120  H   -0.021327
   121  H   -0.023914
   122  H   -0.042717
   123  H   -0.038386
   124  H   -0.032284
   125  H   -0.010642
   126  H   -0.027641
   127  H   -0.021036
   128  H   -0.033066
   129  H   -0.045768
   130  H   -0.033574
   131  H   -0.038169
   132  H   -0.041692
   133  H   -0.023760
   134  H   -0.030178
   135  H   -0.027731
   136  H   -0.018932
   137  H    0.006100
   138  H   -0.022705
   139  H   -0.040945
   140  H   -0.027293
 Sum of Mulliken charges =  -0.00000

 Dipole moment (field-independent basis, Debye):
    X=             -4.2437    Y=              2.6285    Z=              1.6479  Tot=              5.2567
 Quadrupole moment (field-independent basis, Debye-Ang):
   XX=           -378.3958   YY=           -439.9448   ZZ=           -407.0684
   XY=             31.3655   XZ=             12.8011   YZ=             -6.1087

 Normal termination of Gaussian 16 at Fri Apr 29 20:24:41 2022.
