 Gaussian 16, Revision A.03,
 Gaussian 16:  ES64L-G16RevA.03 25-Dec-2016

 -----------------------------------
 #p cam-b3lyp/Def2SVP td=(nstates=5)
 -----------------------------------

 -------------------------------------------------------
 step_451_chromophore_24 TDDFT with cam-b3lyp functional
 -------------------------------------------------------
 Symbolic Z-matrix:
 Charge =  0 Multiplicity = 1

                         Standard orientation:
 ---------------------------------------------------------------------
 Center     Atomic      Atomic             Coordinates (Angstroms)
 Number     Number       Type             X           Y           Z
 ---------------------------------------------------------------------
      1         12           0        5.174717    1.057455    0.224103
      2          6           0        4.180640   -2.347032    0.182789
      3          6           0        1.742810    1.869400   -0.170044
      4          6           0        6.032344    4.303268   -0.057111
      5          6           0        8.473041    0.066578    0.148768
      6          7           0        3.172647   -0.115293    0.320832
      7          6           0        2.981520   -1.489807    0.221801
      8          6           0        1.568057   -1.908143    0.231348
      9          6           0        0.776792   -0.522075   -0.082610
     10          6           0        1.947530    0.501334    0.014488
     11          6           0        0.028136   -0.618687   -1.397043
     12          6           0        1.243375   -2.633478    1.525801
     13          6           0        0.350312   -3.779863    1.529908
     14          6           0       -0.611493   -4.069441    0.329131
     15          8           0       -0.376552   -4.812682   -0.548016
     16          8           0       -1.813470   -3.425184    0.480494
     17          7           0        4.112836    2.798994    0.009724
     18          6           0        2.736895    2.902766   -0.115430
     19          6           0        2.480939    4.261212   -0.457897
     20          6           0        3.629811    5.015192   -0.554828
     21          6           0        4.683636    4.062392   -0.136215
     22          6           0        1.061392    4.732553   -0.519851
     23          6           0        3.888856    6.484515   -0.956656
     24          8           0        4.964985    7.107653   -0.818029
     25          6           0        2.746136    7.260751   -1.524254
     26          7           0        7.033573    1.999745    0.277866
     27          6           0        7.133666    3.373026    0.193865
     28          6           0        8.569073    3.828567    0.124818
     29          6           0        9.315546    2.466539    0.175241
     30          6           0        8.251636    1.420238    0.310148
     31          6           0        8.994514    4.806752   -0.998271
     32          6           0       10.312838    2.335050    1.409900
     33          6           0        9.781411    2.071724    2.761836
     34          7           0        6.178103   -0.776661    0.204250
     35          6           0        7.528788   -0.993169    0.016677
     36          6           0        7.734460   -2.367739   -0.201732
     37          6           0        6.450401   -2.983695   -0.096368
     38          6           0        5.520418   -1.925102    0.152467
     39          6           0        9.023449   -2.982993   -0.465205
     40          6           0        5.732946   -4.226658   -0.134844
     41          8           0        6.109104   -5.394716   -0.346039
     42          6           0        4.232944   -3.882046    0.124722
     43          6           0        3.577991   -4.567451   -1.004952
     44          8           0        3.563722   -4.238226   -2.149134
     45          8           0        2.961611   -5.694269   -0.519229
     46          6           0        2.216740   -6.593373   -1.436512
     47          6           0       -2.723000   -3.737329   -0.643367
     48          6           0       -4.071518   -3.082616   -0.535930
     49          6           0       -5.184933   -3.387009   -1.189484
     50          6           0       -5.252526   -4.402528   -2.365934
     51          6           0       -6.539553   -2.751386   -0.816403
     52          6           0       -7.125420   -3.137787    0.573322
     53          6           0       -6.662668   -2.204430    1.744699
     54          6           0       -7.926637   -1.506511    2.311861
     55          6           0       -7.906677   -1.405153    3.861226
     56          6           0       -7.974199   -0.104552    1.700568
     57          6           0       -9.380583    0.409166    1.255834
     58          6           0       -9.777482    1.828667    1.838802
     59          6           0      -10.371467    2.781911    0.736243
     60          6           0      -10.374488    4.254744    1.225971
     61          6           0      -11.836860    2.412823    0.416729
     62          6           0      -12.121909    2.584838   -1.106237
     63          6           0      -13.552408    3.075962   -1.375639
     64          6           0      -14.509614    1.814789   -1.375434
     65          6           0      -15.429528    1.862230   -2.646128
     66          6           0      -15.328963    1.682785   -0.092357
     67          1           0        0.682395    2.117460   -0.241286
     68          1           0        6.520759    5.216876   -0.402875
     69          1           0        9.519437   -0.225723    0.036674
     70          1           0        1.439920   -2.553537   -0.637426
     71          1           0        0.001415   -0.359076    0.666057
     72          1           0       -1.001097   -0.421146   -1.100612
     73          1           0       -0.022602   -1.620611   -1.825134
     74          1           0        0.440143    0.028146   -2.172129
     75          1           0        0.667440   -1.973042    2.173282
     76          1           0        2.205262   -2.890702    1.970889
     77          1           0       -0.260409   -3.687543    2.428331
     78          1           0        0.925679   -4.703609    1.595685
     79          1           0        1.045686    5.465795    0.286099
     80          1           0        0.326930    3.993189   -0.200413
     81          1           0        0.716161    5.238237   -1.421637
     82          1           0        2.481088    6.760282   -2.455739
     83          1           0        2.891680    8.328947   -1.682108
     84          1           0        1.933865    7.272645   -0.797223
     85          1           0        8.754489    4.487368    0.973066
     86          1           0        9.817093    2.291381   -0.776334
     87          1           0        8.347878    4.610298   -1.853816
     88          1           0       10.078839    4.784841   -1.113306
     89          1           0        8.763410    5.798165   -0.608895
     90          1           0       10.854950    3.275328    1.504226
     91          1           0       11.089552    1.614668    1.152305
     92          1           0       10.197897    1.149525    3.166067
     93          1           0        8.692971    2.012039    2.795963
     94          1           0       10.046598    2.930953    3.378830
     95          1           0        9.407898   -3.778721    0.173147
     96          1           0        9.769995   -2.229415   -0.216983
     97          1           0        9.122528   -3.175843   -1.534454
     98          1           0        4.004351   -4.489544    1.000718
     99          1           0        2.938512   -7.232408   -1.945905
    100          1           0        1.589455   -6.138915   -2.203963
    101          1           0        1.514931   -7.230371   -0.896924
    102          1           0       -2.926669   -4.808427   -0.658091
    103          1           0       -2.214444   -3.517607   -1.582637
    104          1           0       -4.232622   -2.451598    0.338042
    105          1           0       -5.933226   -5.217126   -2.121190
    106          1           0       -4.292465   -4.750496   -2.746152
    107          1           0       -5.829454   -3.917303   -3.153070
    108          1           0       -7.271995   -2.773671   -1.622637
    109          1           0       -6.224711   -1.714244   -0.699241
    110          1           0       -6.797179   -4.150530    0.807350
    111          1           0       -8.198348   -3.205032    0.393922
    112          1           0       -5.838665   -1.540215    1.484083
    113          1           0       -6.327090   -2.978225    2.435364
    114          1           0       -8.799982   -2.061845    1.970434
    115          1           0       -7.695462   -0.392191    4.205084
    116          1           0       -7.072344   -2.028780    4.181175
    117          1           0       -8.892048   -1.799091    4.109837
    118          1           0       -7.421459   -0.098261    0.761364
    119          1           0       -7.466612    0.577136    2.383153
    120          1           0      -10.163522   -0.266351    1.600325
    121          1           0       -9.417373    0.532746    0.173716
    122          1           0       -8.918311    2.285672    2.328912
    123          1           0      -10.513634    1.733083    2.636969
    124          1           0       -9.643788    2.751617   -0.074296
    125          1           0      -11.119692    4.818790    0.665958
    126          1           0       -9.378186    4.678326    1.095288
    127          1           0      -10.533542    4.286215    2.304042
    128          1           0      -12.539456    2.862391    1.117695
    129          1           0      -11.959546    1.372192    0.718248
    130          1           0      -11.914909    1.684323   -1.684739
    131          1           0      -11.509904    3.297312   -1.660051
    132          1           0      -13.601946    3.537614   -2.361622
    133          1           0      -13.847347    3.794529   -0.611542
    134          1           0      -13.967132    0.869497   -1.365123
    135          1           0      -16.116305    1.044312   -2.431667
    136          1           0      -14.815304    1.466934   -3.455311
    137          1           0      -15.948568    2.799840   -2.843771
    138          1           0      -16.400548    1.498406   -0.169664
    139          1           0      -15.248191    2.593137    0.500727
    140          1           0      -14.967726    0.985145    0.663238
 ---------------------------------------------------------------------

 SCF Done:  E(RCAM-B3LYP) =  -3007.15257024     A.U. after   19 cycles

 Excitation energies and oscillator strengths:

 Excited State   1:      Singlet-A      1.6735 eV  740.89 nm  f=0.3680  <S**2>=0.000
     245 -> 248       -0.18107
     246 -> 247        0.68388
     245 <- 248       -0.10952
 This state for optimization and/or second-order correction.
 Total Energy, E(TD-HF/TD-DFT) =  -3007.09107185
 Copying the excited state density for this state as the 1-particle RhoCI density.

 Excited State   2:      Singlet-A      2.2309 eV  555.76 nm  f=0.0852  <S**2>=0.000
     245 -> 247        0.62410
     246 -> 248        0.31645

 Excited State   3:      Singlet-A      3.3229 eV  373.12 nm  f=0.0133  <S**2>=0.000
     243 -> 247        0.43792
     243 -> 249        0.18736
     243 -> 250       -0.16565
     244 -> 247        0.44530
     246 -> 248       -0.13432

 Excited State   4:      Singlet-A      3.3731 eV  367.57 nm  f=0.0167  <S**2>=0.000
     241 -> 247       -0.17375
     243 -> 247       -0.39521
     243 -> 249       -0.16894
     243 -> 250        0.13984
     244 -> 247        0.47054
     246 -> 248       -0.15094

 Excited State   5:      Singlet-A      3.4592 eV  358.42 nm  f=0.5834  <S**2>=0.000
     240 -> 247       -0.15088
     241 -> 247       -0.28161
     244 -> 247        0.12951
     245 -> 247       -0.26396
     246 -> 248        0.54173

 The electronic state is 1-A.
 Alpha  occ. eigenvalues --  -46.88369 -19.25635 -19.23054 -19.20915 -19.19333
 Alpha  occ. eigenvalues --  -19.18171 -19.17589 -14.42533 -14.42273 -14.40231
 Alpha  occ. eigenvalues --  -14.38721 -10.39572 -10.37530 -10.36068 -10.33855
 Alpha  occ. eigenvalues --  -10.32308 -10.31695 -10.31657 -10.31503 -10.30721
 Alpha  occ. eigenvalues --  -10.30673 -10.30128 -10.29940 -10.29104 -10.28524
 Alpha  occ. eigenvalues --  -10.28512 -10.28424 -10.28403 -10.27766 -10.27612
 Alpha  occ. eigenvalues --  -10.27570 -10.27512 -10.27501 -10.27432 -10.27160
 Alpha  occ. eigenvalues --  -10.27103 -10.26956 -10.26874 -10.26867 -10.26782
 Alpha  occ. eigenvalues --  -10.26750 -10.26354 -10.26333 -10.26206 -10.26070
 Alpha  occ. eigenvalues --  -10.26021 -10.25875 -10.25802 -10.25758 -10.25698
 Alpha  occ. eigenvalues --  -10.25675 -10.25624 -10.25407 -10.25291 -10.25197
 Alpha  occ. eigenvalues --  -10.25163 -10.25023 -10.24897 -10.24890 -10.24884
 Alpha  occ. eigenvalues --  -10.24709 -10.24615 -10.24586 -10.24479 -10.24306
 Alpha  occ. eigenvalues --  -10.23943  -3.16912  -1.91831  -1.91365  -1.91213
 Alpha  occ. eigenvalues --   -1.18381  -1.14937  -1.09784  -1.08869  -1.07454
 Alpha  occ. eigenvalues --   -1.06637  -1.04344  -1.03398  -1.03046  -1.01896
 Alpha  occ. eigenvalues --   -0.91887  -0.90937  -0.90583  -0.89675  -0.89114
 Alpha  occ. eigenvalues --   -0.88952  -0.88869  -0.87762  -0.87449  -0.87317
 Alpha  occ. eigenvalues --   -0.86756  -0.85983  -0.84427  -0.83955  -0.83395
 Alpha  occ. eigenvalues --   -0.82496  -0.82302  -0.81364  -0.80901  -0.80237
 Alpha  occ. eigenvalues --   -0.79889  -0.78462  -0.78051  -0.77658  -0.75975
 Alpha  occ. eigenvalues --   -0.75582  -0.75504  -0.75313  -0.74820  -0.74251
 Alpha  occ. eigenvalues --   -0.73762  -0.72542  -0.71999  -0.70406  -0.69158
 Alpha  occ. eigenvalues --   -0.68533  -0.68051  -0.67273  -0.66748  -0.65798
 Alpha  occ. eigenvalues --   -0.65521  -0.65121  -0.64670  -0.64193  -0.64062
 Alpha  occ. eigenvalues --   -0.63814  -0.63463  -0.63270  -0.60936  -0.60220
 Alpha  occ. eigenvalues --   -0.60108  -0.59283  -0.58980  -0.58597  -0.57463
 Alpha  occ. eigenvalues --   -0.57407  -0.56815  -0.56593  -0.56389  -0.55814
 Alpha  occ. eigenvalues --   -0.55546  -0.54989  -0.54608  -0.54231  -0.53993
 Alpha  occ. eigenvalues --   -0.53658  -0.53375  -0.53283  -0.53142  -0.52934
 Alpha  occ. eigenvalues --   -0.52697  -0.52693  -0.52414  -0.52294  -0.51961
 Alpha  occ. eigenvalues --   -0.51488  -0.51447  -0.51061  -0.50865  -0.50507
 Alpha  occ. eigenvalues --   -0.50495  -0.50223  -0.50126  -0.49804  -0.49685
 Alpha  occ. eigenvalues --   -0.49574  -0.49342  -0.49234  -0.49021  -0.48774
 Alpha  occ. eigenvalues --   -0.48692  -0.48369  -0.47967  -0.47864  -0.47714
 Alpha  occ. eigenvalues --   -0.47564  -0.47428  -0.47270  -0.46953  -0.46813
 Alpha  occ. eigenvalues --   -0.46550  -0.46430  -0.46349  -0.45976  -0.45901
 Alpha  occ. eigenvalues --   -0.45791  -0.45656  -0.45520  -0.45055  -0.45051
 Alpha  occ. eigenvalues --   -0.44658  -0.44559  -0.44449  -0.44289  -0.44042
 Alpha  occ. eigenvalues --   -0.43788  -0.43583  -0.43454  -0.43167  -0.42923
 Alpha  occ. eigenvalues --   -0.42380  -0.42294  -0.42253  -0.42161  -0.41760
 Alpha  occ. eigenvalues --   -0.41590  -0.41545  -0.41416  -0.41350  -0.41052
 Alpha  occ. eigenvalues --   -0.40995  -0.40669  -0.40417  -0.40074  -0.40014
 Alpha  occ. eigenvalues --   -0.39727  -0.39572  -0.39393  -0.39117  -0.38657
 Alpha  occ. eigenvalues --   -0.38320  -0.38249  -0.37927  -0.37911  -0.37556
 Alpha  occ. eigenvalues --   -0.37362  -0.37291  -0.37179  -0.36981  -0.36780
 Alpha  occ. eigenvalues --   -0.35501  -0.35152  -0.34640  -0.34546  -0.34505
 Alpha  occ. eigenvalues --   -0.33754  -0.33511  -0.32782  -0.31424  -0.31295
 Alpha  occ. eigenvalues --   -0.30363  -0.30066  -0.29756  -0.29215  -0.24194
 Alpha  occ. eigenvalues --   -0.21108
 Alpha virt. eigenvalues --   -0.08737  -0.02278   0.00284   0.02260   0.03969
 Alpha virt. eigenvalues --    0.04614   0.05188   0.05821   0.06376   0.07353
 Alpha virt. eigenvalues --    0.07659   0.08693   0.08828   0.09008   0.09078

 Mulliken charges:
               1
     1  Mg   0.827968
     2  C    0.019859
     3  C   -0.083593
     4  C   -0.082305
     5  C   -0.071993
     6  N   -0.283933
     7  C   -0.047536
     8  C   -0.026840
     9  C   -0.067278
    10  C    0.055289
    11  C    0.060318
    12  C    0.099318
    13  C    0.097538
    14  C    0.108664
    15  O   -0.186585
    16  O   -0.341665
    17  N   -0.417296
    18  C    0.191313
    19  C   -0.141757
    20  C   -0.028096
    21  C    0.177685
    22  C    0.092120
    23  C    0.037451
    24  O   -0.219777
    25  C    0.052010
    26  N   -0.307922
    27  C    0.014534
    28  C   -0.050183
    29  C    0.006780
    30  C    0.035482
    31  C    0.058431
    32  C    0.006046
    33  C    0.022137
    34  N   -0.339125
    35  C    0.120768
    36  C   -0.156793
    37  C    0.035818
    38  C    0.096752
    39  C    0.131107
    40  C   -0.001660
    41  O   -0.197981
    42  C   -0.027857
    43  C    0.169650
    44  O   -0.188278
    45  O   -0.349902
    46  C    0.191607
    47  C    0.256761
    48  C   -0.111645
    49  C   -0.175083
    50  C    0.079263
    51  C    0.045623
    52  C    0.012877
    53  C    0.042886
    54  C   -0.172827
    55  C    0.094005
    56  C    0.057906
    57  C    0.025575
    58  C    0.007422
    59  C   -0.143286
    60  C    0.054894
    61  C    0.077775
    62  C    0.017753
    63  C    0.056711
    64  C   -0.150476
    65  C    0.047180
    66  C    0.032938
    67  H   -0.022410
    68  H   -0.002831
    69  H   -0.030589
    70  H    0.036318
    71  H    0.014987
    72  H    0.012401
    73  H    0.025067
    74  H    0.026860
    75  H    0.004422
    76  H    0.025728
    77  H    0.017721
    78  H    0.026770
    79  H    0.028593
    80  H    0.008674
    81  H    0.031842
    82  H    0.042003
    83  H    0.023619
    84  H    0.024589
    85  H    0.013172
    86  H    0.010835
    87  H    0.030839
    88  H    0.024363
    89  H    0.028688
    90  H   -0.005373
    91  H    0.004135
    92  H    0.021786
    93  H    0.023140
    94  H    0.009839
    95  H    0.032940
    96  H   -0.027041
    97  H    0.041321
    98  H    0.040439
    99  H    0.031049
   100  H    0.036336
   101  H    0.029522
   102  H    0.032501
   103  H    0.034284
   104  H   -0.007179
   105  H    0.017502
   106  H    0.023731
   107  H    0.010842
   108  H   -0.005531
   109  H    0.009835
   110  H    0.001512
   111  H    0.004813
   112  H    0.022834
   113  H   -0.006891
   114  H   -0.001148
   115  H    0.007996
   116  H    0.000859
   117  H    0.016905
   118  H   -0.013883
   119  H   -0.002959
   120  H    0.004617
   121  H    0.003110
   122  H   -0.013675
   123  H   -0.010540
   124  H   -0.001402
   125  H    0.012015
   126  H   -0.002635
   127  H    0.002605
   128  H   -0.004193
   129  H   -0.017377
   130  H   -0.005144
   131  H   -0.009012
   132  H   -0.010000
   133  H    0.002892
   134  H    0.000984
   135  H   -0.003487
   136  H    0.005638
   137  H    0.028637
   138  H    0.003859
   139  H   -0.016728
   140  H   -0.002482
 Sum of Mulliken charges =  -0.00000

 Dipole moment (field-independent basis, Debye):
    X=             -4.7687    Y=              3.5397    Z=              1.5874  Tot=              6.1474
 Quadrupole moment (field-independent basis, Debye-Ang):
   XX=           -379.3382   YY=           -435.8641   ZZ=           -407.1185
   XY=             34.7767   XZ=             12.8129   YZ=             -7.2949

 Normal termination of Gaussian 16 at Fri Apr 29 19:29:05 2022.
