 Gaussian 16, Revision A.03,
 Gaussian 16:  ES64L-G16RevA.03 25-Dec-2016

 ---------------------------------
 #p PBE1PBE/Def2SVP td=(nstates=5)
 ---------------------------------

 -----------------------------------------------------
 step_451_chromophore_24 TDDFT with PBE1PBE functional
 -----------------------------------------------------
 Symbolic Z-matrix:
 Charge =  0 Multiplicity = 1

                         Standard orientation:
 ---------------------------------------------------------------------
 Center     Atomic      Atomic             Coordinates (Angstroms)
 Number     Number       Type             X           Y           Z
 ---------------------------------------------------------------------
      1         12           0        5.174717    1.057455    0.224103
      2          6           0        4.180640   -2.347032    0.182789
      3          6           0        1.742810    1.869400   -0.170044
      4          6           0        6.032344    4.303268   -0.057111
      5          6           0        8.473041    0.066578    0.148768
      6          7           0        3.172647   -0.115293    0.320832
      7          6           0        2.981520   -1.489807    0.221801
      8          6           0        1.568057   -1.908143    0.231348
      9          6           0        0.776792   -0.522075   -0.082610
     10          6           0        1.947530    0.501334    0.014488
     11          6           0        0.028136   -0.618687   -1.397043
     12          6           0        1.243375   -2.633478    1.525801
     13          6           0        0.350312   -3.779863    1.529908
     14          6           0       -0.611493   -4.069441    0.329131
     15          8           0       -0.376552   -4.812682   -0.548016
     16          8           0       -1.813470   -3.425184    0.480494
     17          7           0        4.112836    2.798994    0.009724
     18          6           0        2.736895    2.902766   -0.115430
     19          6           0        2.480939    4.261212   -0.457897
     20          6           0        3.629811    5.015192   -0.554828
     21          6           0        4.683636    4.062392   -0.136215
     22          6           0        1.061392    4.732553   -0.519851
     23          6           0        3.888856    6.484515   -0.956656
     24          8           0        4.964985    7.107653   -0.818029
     25          6           0        2.746136    7.260751   -1.524254
     26          7           0        7.033573    1.999745    0.277866
     27          6           0        7.133666    3.373026    0.193865
     28          6           0        8.569073    3.828567    0.124818
     29          6           0        9.315546    2.466539    0.175241
     30          6           0        8.251636    1.420238    0.310148
     31          6           0        8.994514    4.806752   -0.998271
     32          6           0       10.312838    2.335050    1.409900
     33          6           0        9.781411    2.071724    2.761836
     34          7           0        6.178103   -0.776661    0.204250
     35          6           0        7.528788   -0.993169    0.016677
     36          6           0        7.734460   -2.367739   -0.201732
     37          6           0        6.450401   -2.983695   -0.096368
     38          6           0        5.520418   -1.925102    0.152467
     39          6           0        9.023449   -2.982993   -0.465205
     40          6           0        5.732946   -4.226658   -0.134844
     41          8           0        6.109104   -5.394716   -0.346039
     42          6           0        4.232944   -3.882046    0.124722
     43          6           0        3.577991   -4.567451   -1.004952
     44          8           0        3.563722   -4.238226   -2.149134
     45          8           0        2.961611   -5.694269   -0.519229
     46          6           0        2.216740   -6.593373   -1.436512
     47          6           0       -2.723000   -3.737329   -0.643367
     48          6           0       -4.071518   -3.082616   -0.535930
     49          6           0       -5.184933   -3.387009   -1.189484
     50          6           0       -5.252526   -4.402528   -2.365934
     51          6           0       -6.539553   -2.751386   -0.816403
     52          6           0       -7.125420   -3.137787    0.573322
     53          6           0       -6.662668   -2.204430    1.744699
     54          6           0       -7.926637   -1.506511    2.311861
     55          6           0       -7.906677   -1.405153    3.861226
     56          6           0       -7.974199   -0.104552    1.700568
     57          6           0       -9.380583    0.409166    1.255834
     58          6           0       -9.777482    1.828667    1.838802
     59          6           0      -10.371467    2.781911    0.736243
     60          6           0      -10.374488    4.254744    1.225971
     61          6           0      -11.836860    2.412823    0.416729
     62          6           0      -12.121909    2.584838   -1.106237
     63          6           0      -13.552408    3.075962   -1.375639
     64          6           0      -14.509614    1.814789   -1.375434
     65          6           0      -15.429528    1.862230   -2.646128
     66          6           0      -15.328963    1.682785   -0.092357
     67          1           0        0.682395    2.117460   -0.241286
     68          1           0        6.520759    5.216876   -0.402875
     69          1           0        9.519437   -0.225723    0.036674
     70          1           0        1.439920   -2.553537   -0.637426
     71          1           0        0.001415   -0.359076    0.666057
     72          1           0       -1.001097   -0.421146   -1.100612
     73          1           0       -0.022602   -1.620611   -1.825134
     74          1           0        0.440143    0.028146   -2.172129
     75          1           0        0.667440   -1.973042    2.173282
     76          1           0        2.205262   -2.890702    1.970889
     77          1           0       -0.260409   -3.687543    2.428331
     78          1           0        0.925679   -4.703609    1.595685
     79          1           0        1.045686    5.465795    0.286099
     80          1           0        0.326930    3.993189   -0.200413
     81          1           0        0.716161    5.238237   -1.421637
     82          1           0        2.481088    6.760282   -2.455739
     83          1           0        2.891680    8.328947   -1.682108
     84          1           0        1.933865    7.272645   -0.797223
     85          1           0        8.754489    4.487368    0.973066
     86          1           0        9.817093    2.291381   -0.776334
     87          1           0        8.347878    4.610298   -1.853816
     88          1           0       10.078839    4.784841   -1.113306
     89          1           0        8.763410    5.798165   -0.608895
     90          1           0       10.854950    3.275328    1.504226
     91          1           0       11.089552    1.614668    1.152305
     92          1           0       10.197897    1.149525    3.166067
     93          1           0        8.692971    2.012039    2.795963
     94          1           0       10.046598    2.930953    3.378830
     95          1           0        9.407898   -3.778721    0.173147
     96          1           0        9.769995   -2.229415   -0.216983
     97          1           0        9.122528   -3.175843   -1.534454
     98          1           0        4.004351   -4.489544    1.000718
     99          1           0        2.938512   -7.232408   -1.945905
    100          1           0        1.589455   -6.138915   -2.203963
    101          1           0        1.514931   -7.230371   -0.896924
    102          1           0       -2.926669   -4.808427   -0.658091
    103          1           0       -2.214444   -3.517607   -1.582637
    104          1           0       -4.232622   -2.451598    0.338042
    105          1           0       -5.933226   -5.217126   -2.121190
    106          1           0       -4.292465   -4.750496   -2.746152
    107          1           0       -5.829454   -3.917303   -3.153070
    108          1           0       -7.271995   -2.773671   -1.622637
    109          1           0       -6.224711   -1.714244   -0.699241
    110          1           0       -6.797179   -4.150530    0.807350
    111          1           0       -8.198348   -3.205032    0.393922
    112          1           0       -5.838665   -1.540215    1.484083
    113          1           0       -6.327090   -2.978225    2.435364
    114          1           0       -8.799982   -2.061845    1.970434
    115          1           0       -7.695462   -0.392191    4.205084
    116          1           0       -7.072344   -2.028780    4.181175
    117          1           0       -8.892048   -1.799091    4.109837
    118          1           0       -7.421459   -0.098261    0.761364
    119          1           0       -7.466612    0.577136    2.383153
    120          1           0      -10.163522   -0.266351    1.600325
    121          1           0       -9.417373    0.532746    0.173716
    122          1           0       -8.918311    2.285672    2.328912
    123          1           0      -10.513634    1.733083    2.636969
    124          1           0       -9.643788    2.751617   -0.074296
    125          1           0      -11.119692    4.818790    0.665958
    126          1           0       -9.378186    4.678326    1.095288
    127          1           0      -10.533542    4.286215    2.304042
    128          1           0      -12.539456    2.862391    1.117695
    129          1           0      -11.959546    1.372192    0.718248
    130          1           0      -11.914909    1.684323   -1.684739
    131          1           0      -11.509904    3.297312   -1.660051
    132          1           0      -13.601946    3.537614   -2.361622
    133          1           0      -13.847347    3.794529   -0.611542
    134          1           0      -13.967132    0.869497   -1.365123
    135          1           0      -16.116305    1.044312   -2.431667
    136          1           0      -14.815304    1.466934   -3.455311
    137          1           0      -15.948568    2.799840   -2.843771
    138          1           0      -16.400548    1.498406   -0.169664
    139          1           0      -15.248191    2.593137    0.500727
    140          1           0      -14.967726    0.985145    0.663238
 ---------------------------------------------------------------------

 SCF Done:  E(RPBE1PBE) =  -3005.34138721     A.U. after   15 cycles

 Excitation energies and oscillator strengths:

 Excited State   1:      Singlet-A      1.8252 eV  679.28 nm  f=0.3569  <S**2>=0.000
     245 -> 248       -0.17571
     246 -> 247        0.69080
     246 <- 247       -0.10564
 This state for optimization and/or second-order correction.
 Total Energy, E(TD-HF/TD-DFT) =  -3005.27431094
 Copying the excited state density for this state as the 1-particle RhoCI density.

 Excited State   2:      Singlet-A      2.2427 eV  552.84 nm  f=0.0851  <S**2>=0.000
     245 -> 247        0.63695
     246 -> 248        0.29087

 Excited State   3:      Singlet-A      2.7887 eV  444.60 nm  f=0.0002  <S**2>=0.000
     243 -> 247       -0.10169
     244 -> 247        0.67224
     244 -> 249       -0.14056
     244 -> 250       -0.10109

 Excited State   4:      Singlet-A      3.0097 eV  411.95 nm  f=0.0008  <S**2>=0.000
     241 -> 247       -0.18608
     243 -> 247        0.65985
     244 -> 247        0.10686

 Excited State   5:      Singlet-A      3.0884 eV  401.45 nm  f=0.0032  <S**2>=0.000
     240 -> 247        0.23088
     241 -> 247        0.59852
     241 -> 249        0.12374
     243 -> 247        0.15696
     246 -> 248       -0.11740

 The electronic state is 1-A.
 Alpha  occ. eigenvalues --  -46.91745 -19.26342 -19.23794 -19.21158 -19.19393
 Alpha  occ. eigenvalues --  -19.18422 -19.18021 -14.42089 -14.41715 -14.39792
 Alpha  occ. eigenvalues --  -14.38458 -10.36638 -10.34593 -10.33055 -10.31169
 Alpha  occ. eigenvalues --  -10.29731 -10.29519 -10.29262 -10.29100 -10.28227
 Alpha  occ. eigenvalues --  -10.28133 -10.27976 -10.27228 -10.27021 -10.26396
 Alpha  occ. eigenvalues --  -10.26291 -10.26290 -10.25824 -10.25590 -10.25362
 Alpha  occ. eigenvalues --  -10.25270 -10.25193 -10.25120 -10.25107 -10.24964
 Alpha  occ. eigenvalues --  -10.24850 -10.24506 -10.24448 -10.24414 -10.24362
 Alpha  occ. eigenvalues --  -10.24079 -10.23806 -10.23757 -10.23719 -10.23612
 Alpha  occ. eigenvalues --  -10.23435 -10.23412 -10.23369 -10.23364 -10.23353
 Alpha  occ. eigenvalues --  -10.23286 -10.23242 -10.23049 -10.22844 -10.22746
 Alpha  occ. eigenvalues --  -10.22683 -10.22561 -10.22481 -10.22461 -10.22425
 Alpha  occ. eigenvalues --  -10.22282 -10.22264 -10.22032 -10.21978 -10.21681
 Alpha  occ. eigenvalues --  -10.21319  -3.13869  -1.86730  -1.86240  -1.86092
 Alpha  occ. eigenvalues --   -1.13215  -1.09756  -1.04699  -1.03421  -1.02338
 Alpha  occ. eigenvalues --   -1.01544  -0.98981  -0.98137  -0.97546  -0.96478
 Alpha  occ. eigenvalues --   -0.86327  -0.85125  -0.84787  -0.83765  -0.83334
 Alpha  occ. eigenvalues --   -0.83141  -0.83076  -0.81991  -0.81708  -0.81409
 Alpha  occ. eigenvalues --   -0.81150  -0.80229  -0.78623  -0.78257  -0.77708
 Alpha  occ. eigenvalues --   -0.76669  -0.76397  -0.75605  -0.75149  -0.74518
 Alpha  occ. eigenvalues --   -0.74092  -0.72683  -0.72430  -0.71959  -0.70167
 Alpha  occ. eigenvalues --   -0.69870  -0.69665  -0.69647  -0.68943  -0.68430
 Alpha  occ. eigenvalues --   -0.68051  -0.67019  -0.66419  -0.64725  -0.63471
 Alpha  occ. eigenvalues --   -0.62967  -0.62303  -0.61694  -0.60954  -0.60120
 Alpha  occ. eigenvalues --   -0.59899  -0.59650  -0.59138  -0.58749  -0.58410
 Alpha  occ. eigenvalues --   -0.58132  -0.57585  -0.57428  -0.55590  -0.54657
 Alpha  occ. eigenvalues --   -0.54564  -0.53894  -0.53514  -0.53238  -0.52077
 Alpha  occ. eigenvalues --   -0.51903  -0.51329  -0.51066  -0.50871  -0.50359
 Alpha  occ. eigenvalues --   -0.50109  -0.49528  -0.49167  -0.48797  -0.48496
 Alpha  occ. eigenvalues --   -0.48146  -0.47912  -0.47791  -0.47471  -0.47335
 Alpha  occ. eigenvalues --   -0.47235  -0.47158  -0.46890  -0.46813  -0.46624
 Alpha  occ. eigenvalues --   -0.46066  -0.45935  -0.45624  -0.45421  -0.45076
 Alpha  occ. eigenvalues --   -0.45001  -0.44753  -0.44708  -0.44465  -0.44230
 Alpha  occ. eigenvalues --   -0.44116  -0.43885  -0.43859  -0.43668  -0.43391
 Alpha  occ. eigenvalues --   -0.43317  -0.42957  -0.42640  -0.42470  -0.42348
 Alpha  occ. eigenvalues --   -0.42107  -0.42077  -0.41927  -0.41657  -0.41461
 Alpha  occ. eigenvalues --   -0.41219  -0.41092  -0.40974  -0.40739  -0.40668
 Alpha  occ. eigenvalues --   -0.40374  -0.40316  -0.40177  -0.39803  -0.39661
 Alpha  occ. eigenvalues --   -0.39468  -0.39354  -0.39194  -0.39024  -0.38765
 Alpha  occ. eigenvalues --   -0.38563  -0.38409  -0.38151  -0.37981  -0.37750
 Alpha  occ. eigenvalues --   -0.37192  -0.37112  -0.37026  -0.36991  -0.36645
 Alpha  occ. eigenvalues --   -0.36343  -0.36288  -0.36192  -0.36173  -0.35915
 Alpha  occ. eigenvalues --   -0.35757  -0.35491  -0.35304  -0.34939  -0.34845
 Alpha  occ. eigenvalues --   -0.34563  -0.34336  -0.34220  -0.33884  -0.33439
 Alpha  occ. eigenvalues --   -0.33280  -0.33194  -0.32871  -0.32673  -0.32342
 Alpha  occ. eigenvalues --   -0.32276  -0.32184  -0.32019  -0.32006  -0.31861
 Alpha  occ. eigenvalues --   -0.30427  -0.30120  -0.29751  -0.29564  -0.29495
 Alpha  occ. eigenvalues --   -0.29009  -0.28711  -0.27747  -0.26861  -0.26205
 Alpha  occ. eigenvalues --   -0.25639  -0.25327  -0.25036  -0.24749  -0.21115
 Alpha  occ. eigenvalues --   -0.18752
 Alpha virt. eigenvalues --   -0.11204  -0.05738  -0.03889  -0.02125   0.00330
 Alpha virt. eigenvalues --    0.00791   0.01229   0.01689   0.02566   0.02808
 Alpha virt. eigenvalues --    0.03423   0.04511   0.05332   0.05500   0.05777

 Mulliken charges:
               1
     1  Mg   0.979534
     2  C    0.021276
     3  C   -0.076402
     4  C   -0.074711
     5  C   -0.061707
     6  N   -0.376967
     7  C    0.019402
     8  C   -0.096999
     9  C   -0.139143
    10  C    0.085448
    11  C    0.005318
    12  C    0.047317
    13  C    0.024392
    14  C    0.173357
    15  O   -0.219933
    16  O   -0.372965
    17  N   -0.532964
    18  C    0.221982
    19  C   -0.183105
    20  C   -0.067500
    21  C    0.198995
    22  C    0.033286
    23  C    0.084303
    24  O   -0.257857
    25  C   -0.019225
    26  N   -0.419759
    27  C    0.055524
    28  C   -0.118682
    29  C   -0.082824
    30  C    0.077289
    31  C   -0.005721
    32  C   -0.051446
    33  C   -0.050452
    34  N   -0.472767
    35  C    0.148544
    36  C   -0.184928
    37  C   -0.010892
    38  C    0.146169
    39  C    0.083607
    40  C    0.091344
    41  O   -0.240920
    42  C   -0.138069
    43  C    0.268692
    44  O   -0.226637
    45  O   -0.384226
    46  C    0.137165
    47  C    0.217838
    48  C   -0.129330
    49  C   -0.214698
    50  C    0.016285
    51  C   -0.021862
    52  C   -0.042235
    53  C   -0.019486
    54  C   -0.260411
    55  C    0.035610
    56  C    0.007645
    57  C   -0.036215
    58  C   -0.042209
    59  C   -0.232718
    60  C   -0.005089
    61  C    0.026073
    62  C   -0.046866
    63  C   -0.001294
    64  C   -0.238272
    65  C   -0.019706
    66  C   -0.022528
    67  H    0.009199
    68  H    0.029419
    69  H    0.001235
    70  H    0.078341
    71  H    0.049958
    72  H    0.039118
    73  H    0.051647
    74  H    0.054025
    75  H    0.036557
    76  H    0.059515
    77  H    0.050265
    78  H    0.059385
    79  H    0.057142
    80  H    0.035442
    81  H    0.057891
    82  H    0.068488
    83  H    0.050512
    84  H    0.050474
    85  H    0.051165
    86  H    0.048049
    87  H    0.059906
    88  H    0.052498
    89  H    0.055679
    90  H    0.028744
    91  H    0.036037
    92  H    0.049190
    93  H    0.053064
    94  H    0.037478
    95  H    0.059827
    96  H    0.002532
    97  H    0.069632
    98  H    0.077746
    99  H    0.053684
   100  H    0.057533
   101  H    0.051114
   102  H    0.059518
   103  H    0.060707
   104  H    0.027928
   105  H    0.045924
   106  H    0.049611
   107  H    0.039347
   108  H    0.025149
   109  H    0.045232
   110  H    0.034846
   111  H    0.035706
   112  H    0.051636
   113  H    0.027238
   114  H    0.035641
   115  H    0.034403
   116  H    0.028354
   117  H    0.044215
   118  H    0.022014
   119  H    0.027932
   120  H    0.035922
   121  H    0.035618
   122  H    0.018816
   123  H    0.022312
   124  H    0.035269
   125  H    0.040560
   126  H    0.026081
   127  H    0.030352
   128  H    0.026073
   129  H    0.016907
   130  H    0.027638
   131  H    0.023107
   132  H    0.023336
   133  H    0.034596
   134  H    0.037434
   135  H    0.025575
   136  H    0.035268
   137  H    0.055093
   138  H    0.030322
   139  H    0.010480
   140  H    0.024674
 Sum of Mulliken charges =  -0.00000

 Dipole moment (field-independent basis, Debye):
    X=             -4.5958    Y=              3.1357    Z=              1.6362  Tot=              5.7992
 Quadrupole moment (field-independent basis, Debye-Ang):
   XX=           -371.8881   YY=           -433.5494   ZZ=           -404.6505
   XY=             34.0617   XZ=             12.9248   YZ=             -6.8557

 Normal termination of Gaussian 16 at Fri Apr 29 19:45:16 2022.
