 Gaussian 16, Revision A.03,
 Gaussian 16:  ES64L-G16RevA.03 25-Dec-2016

 --------------------------------
 #p wB97XD/Def2SVP td=(nstates=5)
 --------------------------------

 ----------------------------------------------------
 step_451_chromophore_24 TDDFT with wB97XD functional
 ----------------------------------------------------
 Symbolic Z-matrix:
 Charge =  0 Multiplicity = 1

                         Standard orientation:
 ---------------------------------------------------------------------
 Center     Atomic      Atomic             Coordinates (Angstroms)
 Number     Number       Type             X           Y           Z
 ---------------------------------------------------------------------
      1         12           0        5.174717    1.057455    0.224103
      2          6           0        4.180640   -2.347032    0.182789
      3          6           0        1.742810    1.869400   -0.170044
      4          6           0        6.032344    4.303268   -0.057111
      5          6           0        8.473041    0.066578    0.148768
      6          7           0        3.172647   -0.115293    0.320832
      7          6           0        2.981520   -1.489807    0.221801
      8          6           0        1.568057   -1.908143    0.231348
      9          6           0        0.776792   -0.522075   -0.082610
     10          6           0        1.947530    0.501334    0.014488
     11          6           0        0.028136   -0.618687   -1.397043
     12          6           0        1.243375   -2.633478    1.525801
     13          6           0        0.350312   -3.779863    1.529908
     14          6           0       -0.611493   -4.069441    0.329131
     15          8           0       -0.376552   -4.812682   -0.548016
     16          8           0       -1.813470   -3.425184    0.480494
     17          7           0        4.112836    2.798994    0.009724
     18          6           0        2.736895    2.902766   -0.115430
     19          6           0        2.480939    4.261212   -0.457897
     20          6           0        3.629811    5.015192   -0.554828
     21          6           0        4.683636    4.062392   -0.136215
     22          6           0        1.061392    4.732553   -0.519851
     23          6           0        3.888856    6.484515   -0.956656
     24          8           0        4.964985    7.107653   -0.818029
     25          6           0        2.746136    7.260751   -1.524254
     26          7           0        7.033573    1.999745    0.277866
     27          6           0        7.133666    3.373026    0.193865
     28          6           0        8.569073    3.828567    0.124818
     29          6           0        9.315546    2.466539    0.175241
     30          6           0        8.251636    1.420238    0.310148
     31          6           0        8.994514    4.806752   -0.998271
     32          6           0       10.312838    2.335050    1.409900
     33          6           0        9.781411    2.071724    2.761836
     34          7           0        6.178103   -0.776661    0.204250
     35          6           0        7.528788   -0.993169    0.016677
     36          6           0        7.734460   -2.367739   -0.201732
     37          6           0        6.450401   -2.983695   -0.096368
     38          6           0        5.520418   -1.925102    0.152467
     39          6           0        9.023449   -2.982993   -0.465205
     40          6           0        5.732946   -4.226658   -0.134844
     41          8           0        6.109104   -5.394716   -0.346039
     42          6           0        4.232944   -3.882046    0.124722
     43          6           0        3.577991   -4.567451   -1.004952
     44          8           0        3.563722   -4.238226   -2.149134
     45          8           0        2.961611   -5.694269   -0.519229
     46          6           0        2.216740   -6.593373   -1.436512
     47          6           0       -2.723000   -3.737329   -0.643367
     48          6           0       -4.071518   -3.082616   -0.535930
     49          6           0       -5.184933   -3.387009   -1.189484
     50          6           0       -5.252526   -4.402528   -2.365934
     51          6           0       -6.539553   -2.751386   -0.816403
     52          6           0       -7.125420   -3.137787    0.573322
     53          6           0       -6.662668   -2.204430    1.744699
     54          6           0       -7.926637   -1.506511    2.311861
     55          6           0       -7.906677   -1.405153    3.861226
     56          6           0       -7.974199   -0.104552    1.700568
     57          6           0       -9.380583    0.409166    1.255834
     58          6           0       -9.777482    1.828667    1.838802
     59          6           0      -10.371467    2.781911    0.736243
     60          6           0      -10.374488    4.254744    1.225971
     61          6           0      -11.836860    2.412823    0.416729
     62          6           0      -12.121909    2.584838   -1.106237
     63          6           0      -13.552408    3.075962   -1.375639
     64          6           0      -14.509614    1.814789   -1.375434
     65          6           0      -15.429528    1.862230   -2.646128
     66          6           0      -15.328963    1.682785   -0.092357
     67          1           0        0.682395    2.117460   -0.241286
     68          1           0        6.520759    5.216876   -0.402875
     69          1           0        9.519437   -0.225723    0.036674
     70          1           0        1.439920   -2.553537   -0.637426
     71          1           0        0.001415   -0.359076    0.666057
     72          1           0       -1.001097   -0.421146   -1.100612
     73          1           0       -0.022602   -1.620611   -1.825134
     74          1           0        0.440143    0.028146   -2.172129
     75          1           0        0.667440   -1.973042    2.173282
     76          1           0        2.205262   -2.890702    1.970889
     77          1           0       -0.260409   -3.687543    2.428331
     78          1           0        0.925679   -4.703609    1.595685
     79          1           0        1.045686    5.465795    0.286099
     80          1           0        0.326930    3.993189   -0.200413
     81          1           0        0.716161    5.238237   -1.421637
     82          1           0        2.481088    6.760282   -2.455739
     83          1           0        2.891680    8.328947   -1.682108
     84          1           0        1.933865    7.272645   -0.797223
     85          1           0        8.754489    4.487368    0.973066
     86          1           0        9.817093    2.291381   -0.776334
     87          1           0        8.347878    4.610298   -1.853816
     88          1           0       10.078839    4.784841   -1.113306
     89          1           0        8.763410    5.798165   -0.608895
     90          1           0       10.854950    3.275328    1.504226
     91          1           0       11.089552    1.614668    1.152305
     92          1           0       10.197897    1.149525    3.166067
     93          1           0        8.692971    2.012039    2.795963
     94          1           0       10.046598    2.930953    3.378830
     95          1           0        9.407898   -3.778721    0.173147
     96          1           0        9.769995   -2.229415   -0.216983
     97          1           0        9.122528   -3.175843   -1.534454
     98          1           0        4.004351   -4.489544    1.000718
     99          1           0        2.938512   -7.232408   -1.945905
    100          1           0        1.589455   -6.138915   -2.203963
    101          1           0        1.514931   -7.230371   -0.896924
    102          1           0       -2.926669   -4.808427   -0.658091
    103          1           0       -2.214444   -3.517607   -1.582637
    104          1           0       -4.232622   -2.451598    0.338042
    105          1           0       -5.933226   -5.217126   -2.121190
    106          1           0       -4.292465   -4.750496   -2.746152
    107          1           0       -5.829454   -3.917303   -3.153070
    108          1           0       -7.271995   -2.773671   -1.622637
    109          1           0       -6.224711   -1.714244   -0.699241
    110          1           0       -6.797179   -4.150530    0.807350
    111          1           0       -8.198348   -3.205032    0.393922
    112          1           0       -5.838665   -1.540215    1.484083
    113          1           0       -6.327090   -2.978225    2.435364
    114          1           0       -8.799982   -2.061845    1.970434
    115          1           0       -7.695462   -0.392191    4.205084
    116          1           0       -7.072344   -2.028780    4.181175
    117          1           0       -8.892048   -1.799091    4.109837
    118          1           0       -7.421459   -0.098261    0.761364
    119          1           0       -7.466612    0.577136    2.383153
    120          1           0      -10.163522   -0.266351    1.600325
    121          1           0       -9.417373    0.532746    0.173716
    122          1           0       -8.918311    2.285672    2.328912
    123          1           0      -10.513634    1.733083    2.636969
    124          1           0       -9.643788    2.751617   -0.074296
    125          1           0      -11.119692    4.818790    0.665958
    126          1           0       -9.378186    4.678326    1.095288
    127          1           0      -10.533542    4.286215    2.304042
    128          1           0      -12.539456    2.862391    1.117695
    129          1           0      -11.959546    1.372192    0.718248
    130          1           0      -11.914909    1.684323   -1.684739
    131          1           0      -11.509904    3.297312   -1.660051
    132          1           0      -13.601946    3.537614   -2.361622
    133          1           0      -13.847347    3.794529   -0.611542
    134          1           0      -13.967132    0.869497   -1.365123
    135          1           0      -16.116305    1.044312   -2.431667
    136          1           0      -14.815304    1.466934   -3.455311
    137          1           0      -15.948568    2.799840   -2.843771
    138          1           0      -16.400548    1.498406   -0.169664
    139          1           0      -15.248191    2.593137    0.500727
    140          1           0      -14.967726    0.985145    0.663238
 ---------------------------------------------------------------------

 SCF Done:  E(RwB97XD) =  -3007.85114827     A.U. after   20 cycles

 Excitation energies and oscillator strengths:

 Excited State   1:      Singlet-A      1.6170 eV  766.75 nm  f=0.3665  <S**2>=0.000
     245 -> 248       -0.18611
     246 -> 247        0.68212
     245 <- 248       -0.11920
 This state for optimization and/or second-order correction.
 Total Energy, E(TD-HF/TD-DFT) =  -3007.79172407
 Copying the excited state density for this state as the 1-particle RhoCI density.

 Excited State   2:      Singlet-A      2.1764 eV  569.68 nm  f=0.0828  <S**2>=0.000
     245 -> 247        0.62267
     246 -> 248        0.31778

 Excited State   3:      Singlet-A      3.3639 eV  368.57 nm  f=0.0274  <S**2>=0.000
     241 -> 247       -0.10039
     243 -> 247        0.30389
     243 -> 249        0.15752
     243 -> 250       -0.14804
     244 -> 247        0.53405
     246 -> 248       -0.17796

 Excited State   4:      Singlet-A      3.4111 eV  363.47 nm  f=0.0304  <S**2>=0.000
     241 -> 247        0.11701
     243 -> 247        0.49137
     243 -> 249        0.22317
     243 -> 250       -0.18734
     244 -> 247       -0.32184
     246 -> 248        0.17202

 Excited State   5:      Singlet-A      3.4745 eV  356.84 nm  f=0.5199  <S**2>=0.000
     239 -> 247       -0.12629
     241 -> 247       -0.34695
     244 -> 247        0.14186
     245 -> 247       -0.24371
     246 -> 248        0.50502

 The electronic state is 1-A.
 Alpha  occ. eigenvalues --  -46.94706 -19.30863 -19.28261 -19.25779 -19.24407
 Alpha  occ. eigenvalues --  -19.23065 -19.22618 -14.47132 -14.46882 -14.44882
 Alpha  occ. eigenvalues --  -14.43283 -10.43358 -10.41338 -10.40087 -10.37849
 Alpha  occ. eigenvalues --  -10.36212 -10.35721 -10.35699 -10.35579 -10.34815
 Alpha  occ. eigenvalues --  -10.34772 -10.34095 -10.33687 -10.33060 -10.32564
 Alpha  occ. eigenvalues --  -10.32560 -10.32555 -10.32457 -10.31801 -10.31745
 Alpha  occ. eigenvalues --  -10.31629 -10.31545 -10.31530 -10.31446 -10.31219
 Alpha  occ. eigenvalues --  -10.31134 -10.30969 -10.30902 -10.30827 -10.30748
 Alpha  occ. eigenvalues --  -10.30668 -10.30221 -10.30196 -10.30093 -10.29983
 Alpha  occ. eigenvalues --  -10.29971 -10.29753 -10.29713 -10.29705 -10.29658
 Alpha  occ. eigenvalues --  -10.29640 -10.29626 -10.29383 -10.29224 -10.29136
 Alpha  occ. eigenvalues --  -10.28995 -10.28942 -10.28846 -10.28827 -10.28659
 Alpha  occ. eigenvalues --  -10.28624 -10.28483 -10.28451 -10.28410 -10.28132
 Alpha  occ. eigenvalues --  -10.27752  -3.20682  -1.94292  -1.93806  -1.93654
 Alpha  occ. eigenvalues --   -1.20519  -1.17066  -1.11979  -1.11117  -1.09648
 Alpha  occ. eigenvalues --   -1.08815  -1.06337  -1.05409  -1.05106  -1.03898
 Alpha  occ. eigenvalues --   -0.93833  -0.92755  -0.92405  -0.91446  -0.91051
 Alpha  occ. eigenvalues --   -0.90743  -0.90735  -0.89714  -0.89377  -0.89083
 Alpha  occ. eigenvalues --   -0.88671  -0.87863  -0.86284  -0.85825  -0.85335
 Alpha  occ. eigenvalues --   -0.84347  -0.84224  -0.83265  -0.82780  -0.82154
 Alpha  occ. eigenvalues --   -0.81757  -0.80416  -0.79964  -0.79569  -0.77830
 Alpha  occ. eigenvalues --   -0.77441  -0.77355  -0.77250  -0.76639  -0.76092
 Alpha  occ. eigenvalues --   -0.75664  -0.74510  -0.73978  -0.72324  -0.71057
 Alpha  occ. eigenvalues --   -0.70499  -0.69934  -0.69287  -0.68601  -0.67708
 Alpha  occ. eigenvalues --   -0.67481  -0.67097  -0.66606  -0.66182  -0.65930
 Alpha  occ. eigenvalues --   -0.65729  -0.65272  -0.65087  -0.62917  -0.62235
 Alpha  occ. eigenvalues --   -0.62036  -0.61263  -0.60939  -0.60579  -0.59461
 Alpha  occ. eigenvalues --   -0.59323  -0.58753  -0.58502  -0.58299  -0.57750
 Alpha  occ. eigenvalues --   -0.57480  -0.56930  -0.56544  -0.56138  -0.55882
 Alpha  occ. eigenvalues --   -0.55539  -0.55286  -0.55166  -0.55087  -0.54821
 Alpha  occ. eigenvalues --   -0.54584  -0.54568  -0.54294  -0.54214  -0.53898
 Alpha  occ. eigenvalues --   -0.53393  -0.53323  -0.52957  -0.52775  -0.52456
 Alpha  occ. eigenvalues --   -0.52397  -0.52138  -0.52055  -0.51716  -0.51627
 Alpha  occ. eigenvalues --   -0.51467  -0.51217  -0.51146  -0.50982  -0.50687
 Alpha  occ. eigenvalues --   -0.50593  -0.50271  -0.49866  -0.49762  -0.49644
 Alpha  occ. eigenvalues --   -0.49426  -0.49353  -0.49199  -0.48884  -0.48704
 Alpha  occ. eigenvalues --   -0.48451  -0.48298  -0.48237  -0.47876  -0.47814
 Alpha  occ. eigenvalues --   -0.47638  -0.47594  -0.47408  -0.46944  -0.46895
 Alpha  occ. eigenvalues --   -0.46550  -0.46435  -0.46318  -0.46169  -0.45959
 Alpha  occ. eigenvalues --   -0.45694  -0.45505  -0.45366  -0.45083  -0.44868
 Alpha  occ. eigenvalues --   -0.44290  -0.44209  -0.44137  -0.44102  -0.43669
 Alpha  occ. eigenvalues --   -0.43572  -0.43422  -0.43300  -0.43293  -0.42967
 Alpha  occ. eigenvalues --   -0.42889  -0.42567  -0.42349  -0.42016  -0.41883
 Alpha  occ. eigenvalues --   -0.41618  -0.41416  -0.41261  -0.40968  -0.40501
 Alpha  occ. eigenvalues --   -0.40258  -0.40214  -0.39808  -0.39747  -0.39405
 Alpha  occ. eigenvalues --   -0.39210  -0.39207  -0.39019  -0.38971  -0.38859
 Alpha  occ. eigenvalues --   -0.37349  -0.37130  -0.36551  -0.36482  -0.36397
 Alpha  occ. eigenvalues --   -0.35696  -0.35581  -0.34753  -0.33561  -0.33350
 Alpha  occ. eigenvalues --   -0.32541  -0.32099  -0.31709  -0.31350  -0.26112
 Alpha  occ. eigenvalues --   -0.22902
 Alpha virt. eigenvalues --   -0.07080  -0.00364   0.02334   0.04377   0.06936
 Alpha virt. eigenvalues --    0.07157   0.07609   0.08213   0.09049   0.09596
 Alpha virt. eigenvalues --    0.10034   0.11476   0.12152   0.12293   0.12564

 Mulliken charges:
               1
     1  Mg   0.967881
     2  C    0.008514
     3  C   -0.095165
     4  C   -0.086982
     5  C   -0.077843
     6  N   -0.348783
     7  C   -0.003627
     8  C   -0.070198
     9  C   -0.115970
    10  C    0.076465
    11  C    0.014572
    12  C    0.057471
    13  C    0.042142
    14  C    0.158632
    15  O   -0.216471
    16  O   -0.371365
    17  N   -0.502193
    18  C    0.213702
    19  C   -0.164428
    20  C   -0.065958
    21  C    0.196763
    22  C    0.043456
    23  C    0.082779
    24  O   -0.250337
    25  C   -0.008901
    26  N   -0.382655
    27  C    0.038389
    28  C   -0.097900
    29  C   -0.054629
    30  C    0.062281
    31  C    0.005919
    32  C   -0.037706
    33  C   -0.034497
    34  N   -0.430963
    35  C    0.135519
    36  C   -0.176626
    37  C   -0.010114
    38  C    0.129902
    39  C    0.092671
    40  C    0.074297
    41  O   -0.233799
    42  C   -0.095867
    43  C    0.240157
    44  O   -0.219554
    45  O   -0.381096
    46  C    0.148928
    47  C    0.232472
    48  C   -0.133552
    49  C   -0.204423
    50  C    0.030308
    51  C    0.003288
    52  C   -0.029998
    53  C   -0.000927
    54  C   -0.227799
    55  C    0.047030
    56  C    0.022905
    57  C   -0.019439
    58  C   -0.027902
    59  C   -0.201478
    60  C    0.007189
    61  C    0.038444
    62  C   -0.028316
    63  C    0.014800
    64  C   -0.212404
    65  C   -0.004383
    66  C   -0.012699
    67  H    0.002401
    68  H    0.021029
    69  H   -0.005793
    70  H    0.059378
    71  H    0.041618
    72  H    0.034225
    73  H    0.045548
    74  H    0.048934
    75  H    0.029000
    76  H    0.050063
    77  H    0.045406
    78  H    0.053516
    79  H    0.050674
    80  H    0.032665
    81  H    0.054519
    82  H    0.063780
    83  H    0.050485
    84  H    0.044600
    85  H    0.040364
    86  H    0.039226
    87  H    0.053273
    88  H    0.048008
    89  H    0.050144
    90  H    0.019531
    91  H    0.029117
    92  H    0.044587
    93  H    0.043053
    94  H    0.032341
    95  H    0.055985
    96  H   -0.005783
    97  H    0.064936
    98  H    0.070236
    99  H    0.050385
   100  H    0.054682
   101  H    0.048339
   102  H    0.052680
   103  H    0.054816
   104  H    0.020271
   105  H    0.039851
   106  H    0.045596
   107  H    0.032632
   108  H    0.020113
   109  H    0.030631
   110  H    0.026195
   111  H    0.028185
   112  H    0.040533
   113  H    0.018374
   114  H    0.020978
   115  H    0.028535
   116  H    0.021939
   117  H    0.039224
   118  H    0.010109
   119  H    0.017166
   120  H    0.027030
   121  H    0.025698
   122  H    0.009339
   123  H    0.012886
   124  H    0.023327
   125  H    0.033372
   126  H    0.020457
   127  H    0.023676
   128  H    0.016737
   129  H    0.005630
   130  H    0.018580
   131  H    0.014906
   132  H    0.015968
   133  H    0.024103
   134  H    0.025934
   135  H    0.018009
   136  H    0.028676
   137  H    0.050346
   138  H    0.025607
   139  H    0.002268
   140  H    0.019219
 Sum of Mulliken charges =  -0.00000

 Dipole moment (field-independent basis, Debye):
    X=             -4.8743    Y=              3.6589    Z=              1.5839  Tot=              6.2972
 Quadrupole moment (field-independent basis, Debye-Ang):
   XX=           -374.4367   YY=           -431.2867   ZZ=           -404.1905
   XY=             35.5325   XZ=             12.8810   YZ=             -7.4709

 Normal termination of Gaussian 16 at Fri Apr 29 20:11:24 2022.
