 Gaussian 16, Revision A.03,
 Gaussian 16:  ES64L-G16RevA.03 25-Dec-2016

 --------------------
 #p ZINDO=(nstates=5)
 --------------------

 -----------------------------
 step_451_chromophore_24 ZINDO
 -----------------------------
 Symbolic Z-matrix:
 Charge =  0 Multiplicity = 1

                         Standard orientation:
 ---------------------------------------------------------------------
 Center     Atomic      Atomic             Coordinates (Angstroms)
 Number     Number       Type             X           Y           Z
 ---------------------------------------------------------------------
      1         12           0        5.174717    1.057455    0.224103
      2          6           0        4.180640   -2.347032    0.182789
      3          6           0        1.742810    1.869400   -0.170044
      4          6           0        6.032344    4.303268   -0.057111
      5          6           0        8.473041    0.066578    0.148768
      6          7           0        3.172647   -0.115293    0.320832
      7          6           0        2.981520   -1.489807    0.221801
      8          6           0        1.568057   -1.908143    0.231348
      9          6           0        0.776792   -0.522075   -0.082610
     10          6           0        1.947530    0.501334    0.014488
     11          6           0        0.028136   -0.618687   -1.397043
     12          6           0        1.243375   -2.633478    1.525801
     13          6           0        0.350312   -3.779863    1.529908
     14          6           0       -0.611493   -4.069441    0.329131
     15          8           0       -0.376552   -4.812682   -0.548016
     16          8           0       -1.813470   -3.425184    0.480494
     17          7           0        4.112836    2.798994    0.009724
     18          6           0        2.736895    2.902766   -0.115430
     19          6           0        2.480939    4.261212   -0.457897
     20          6           0        3.629811    5.015192   -0.554828
     21          6           0        4.683636    4.062392   -0.136215
     22          6           0        1.061392    4.732553   -0.519851
     23          6           0        3.888856    6.484515   -0.956656
     24          8           0        4.964985    7.107653   -0.818029
     25          6           0        2.746136    7.260751   -1.524254
     26          7           0        7.033573    1.999745    0.277866
     27          6           0        7.133666    3.373026    0.193865
     28          6           0        8.569073    3.828567    0.124818
     29          6           0        9.315546    2.466539    0.175241
     30          6           0        8.251636    1.420238    0.310148
     31          6           0        8.994514    4.806752   -0.998271
     32          6           0       10.312838    2.335050    1.409900
     33          6           0        9.781411    2.071724    2.761836
     34          7           0        6.178103   -0.776661    0.204250
     35          6           0        7.528788   -0.993169    0.016677
     36          6           0        7.734460   -2.367739   -0.201732
     37          6           0        6.450401   -2.983695   -0.096368
     38          6           0        5.520418   -1.925102    0.152467
     39          6           0        9.023449   -2.982993   -0.465205
     40          6           0        5.732946   -4.226658   -0.134844
     41          8           0        6.109104   -5.394716   -0.346039
     42          6           0        4.232944   -3.882046    0.124722
     43          6           0        3.577991   -4.567451   -1.004952
     44          8           0        3.563722   -4.238226   -2.149134
     45          8           0        2.961611   -5.694269   -0.519229
     46          6           0        2.216740   -6.593373   -1.436512
     47          6           0       -2.723000   -3.737329   -0.643367
     48          6           0       -4.071518   -3.082616   -0.535930
     49          6           0       -5.184933   -3.387009   -1.189484
     50          6           0       -5.252526   -4.402528   -2.365934
     51          6           0       -6.539553   -2.751386   -0.816403
     52          6           0       -7.125420   -3.137787    0.573322
     53          6           0       -6.662668   -2.204430    1.744699
     54          6           0       -7.926637   -1.506511    2.311861
     55          6           0       -7.906677   -1.405153    3.861226
     56          6           0       -7.974199   -0.104552    1.700568
     57          6           0       -9.380583    0.409166    1.255834
     58          6           0       -9.777482    1.828667    1.838802
     59          6           0      -10.371467    2.781911    0.736243
     60          6           0      -10.374488    4.254744    1.225971
     61          6           0      -11.836860    2.412823    0.416729
     62          6           0      -12.121909    2.584838   -1.106237
     63          6           0      -13.552408    3.075962   -1.375639
     64          6           0      -14.509614    1.814789   -1.375434
     65          6           0      -15.429528    1.862230   -2.646128
     66          6           0      -15.328963    1.682785   -0.092357
     67          1           0        0.682395    2.117460   -0.241286
     68          1           0        6.520759    5.216876   -0.402875
     69          1           0        9.519437   -0.225723    0.036674
     70          1           0        1.439920   -2.553537   -0.637426
     71          1           0        0.001415   -0.359076    0.666057
     72          1           0       -1.001097   -0.421146   -1.100612
     73          1           0       -0.022602   -1.620611   -1.825134
     74          1           0        0.440143    0.028146   -2.172129
     75          1           0        0.667440   -1.973042    2.173282
     76          1           0        2.205262   -2.890702    1.970889
     77          1           0       -0.260409   -3.687543    2.428331
     78          1           0        0.925679   -4.703609    1.595685
     79          1           0        1.045686    5.465795    0.286099
     80          1           0        0.326930    3.993189   -0.200413
     81          1           0        0.716161    5.238237   -1.421637
     82          1           0        2.481088    6.760282   -2.455739
     83          1           0        2.891680    8.328947   -1.682108
     84          1           0        1.933865    7.272645   -0.797223
     85          1           0        8.754489    4.487368    0.973066
     86          1           0        9.817093    2.291381   -0.776334
     87          1           0        8.347878    4.610298   -1.853816
     88          1           0       10.078839    4.784841   -1.113306
     89          1           0        8.763410    5.798165   -0.608895
     90          1           0       10.854950    3.275328    1.504226
     91          1           0       11.089552    1.614668    1.152305
     92          1           0       10.197897    1.149525    3.166067
     93          1           0        8.692971    2.012039    2.795963
     94          1           0       10.046598    2.930953    3.378830
     95          1           0        9.407898   -3.778721    0.173147
     96          1           0        9.769995   -2.229415   -0.216983
     97          1           0        9.122528   -3.175843   -1.534454
     98          1           0        4.004351   -4.489544    1.000718
     99          1           0        2.938512   -7.232408   -1.945905
    100          1           0        1.589455   -6.138915   -2.203963
    101          1           0        1.514931   -7.230371   -0.896924
    102          1           0       -2.926669   -4.808427   -0.658091
    103          1           0       -2.214444   -3.517607   -1.582637
    104          1           0       -4.232622   -2.451598    0.338042
    105          1           0       -5.933226   -5.217126   -2.121190
    106          1           0       -4.292465   -4.750496   -2.746152
    107          1           0       -5.829454   -3.917303   -3.153070
    108          1           0       -7.271995   -2.773671   -1.622637
    109          1           0       -6.224711   -1.714244   -0.699241
    110          1           0       -6.797179   -4.150530    0.807350
    111          1           0       -8.198348   -3.205032    0.393922
    112          1           0       -5.838665   -1.540215    1.484083
    113          1           0       -6.327090   -2.978225    2.435364
    114          1           0       -8.799982   -2.061845    1.970434
    115          1           0       -7.695462   -0.392191    4.205084
    116          1           0       -7.072344   -2.028780    4.181175
    117          1           0       -8.892048   -1.799091    4.109837
    118          1           0       -7.421459   -0.098261    0.761364
    119          1           0       -7.466612    0.577136    2.383153
    120          1           0      -10.163522   -0.266351    1.600325
    121          1           0       -9.417373    0.532746    0.173716
    122          1           0       -8.918311    2.285672    2.328912
    123          1           0      -10.513634    1.733083    2.636969
    124          1           0       -9.643788    2.751617   -0.074296
    125          1           0      -11.119692    4.818790    0.665958
    126          1           0       -9.378186    4.678326    1.095288
    127          1           0      -10.533542    4.286215    2.304042
    128          1           0      -12.539456    2.862391    1.117695
    129          1           0      -11.959546    1.372192    0.718248
    130          1           0      -11.914909    1.684323   -1.684739
    131          1           0      -11.509904    3.297312   -1.660051
    132          1           0      -13.601946    3.537614   -2.361622
    133          1           0      -13.847347    3.794529   -0.611542
    134          1           0      -13.967132    0.869497   -1.365123
    135          1           0      -16.116305    1.044312   -2.431667
    136          1           0      -14.815304    1.466934   -3.455311
    137          1           0      -15.948568    2.799840   -2.843771
    138          1           0      -16.400548    1.498406   -0.169664
    139          1           0      -15.248191    2.593137    0.500727
    140          1           0      -14.967726    0.985145    0.663238
 ---------------------------------------------------------------------

 SCF Done:  E(RZINDO/S) =  -474.405638794     A.U. after   20 cycles

 Excitation energies and oscillator strengths:

 Excited State   1:      Singlet-A      1.2124 eV 1022.63 nm  f=0.5754  <S**2>=0.000
     175 ->178         0.18139
     176 ->177         0.66372
 This state for optimization and/or second-order correction.
 Total Energy, E(CIS/TDA) =  -474.361083761
 Copying the excited state density for this state as the 1-particle RhoCI density.

 Excited State   2:      Singlet-A      1.8988 eV  652.96 nm  f=0.0292  <S**2>=0.000
     175 ->177         0.52838
     176 ->178        -0.44122

 Excited State   3:      Singlet-A      2.9406 eV  421.63 nm  f=0.5930  <S**2>=0.000
     168 ->179        -0.11555
     168 ->180        -0.10204
     175 ->177         0.29266
     176 ->178         0.40781
     176 ->179         0.35700

 Excited State   4:      Singlet-A      2.9606 eV  418.78 nm  f=0.0067  <S**2>=0.000
     168 ->179         0.12189
     171 ->177         0.33720
     171 ->179         0.30164
     171 ->180        -0.33300
     171 ->184        -0.13914
     171 ->188         0.19101
     171 ->202        -0.14161
     173 ->177         0.10170

 Excited State   5:      Singlet-A      2.9844 eV  415.44 nm  f=0.1164  <S**2>=0.000
     167 ->179         0.12983
     168 ->177         0.24216
     168 ->178        -0.15074
     168 ->179        -0.32524
     168 ->180        -0.27409
     168 ->184         0.16238
     175 ->177        -0.12627
     176 ->178        -0.16902
     176 ->179        -0.16663

 The electronic state is 1-A.
 Alpha  occ. eigenvalues --   -1.84281  -1.81657  -1.79503  -1.75417  -1.71671
 Alpha  occ. eigenvalues --   -1.70770  -1.65385  -1.61950  -1.57355  -1.56377
 Alpha  occ. eigenvalues --   -1.54765  -1.51995  -1.49156  -1.47041  -1.46354
 Alpha  occ. eigenvalues --   -1.45940  -1.44073  -1.41805  -1.40617  -1.37338
 Alpha  occ. eigenvalues --   -1.37062  -1.34864  -1.33315  -1.32071  -1.28902
 Alpha  occ. eigenvalues --   -1.28185  -1.25467  -1.22908  -1.20987  -1.18562
 Alpha  occ. eigenvalues --   -1.16625  -1.16531  -1.15671  -1.13713  -1.13210
 Alpha  occ. eigenvalues --   -1.12821  -1.11111  -1.10198  -1.04268  -1.03342
 Alpha  occ. eigenvalues --   -1.03186  -1.00705  -0.98560  -0.97921  -0.96664
 Alpha  occ. eigenvalues --   -0.96096  -0.95090  -0.93862  -0.92695  -0.91229
 Alpha  occ. eigenvalues --   -0.90530  -0.89966  -0.89697  -0.88932  -0.87981
 Alpha  occ. eigenvalues --   -0.85207  -0.84707  -0.83757  -0.81923  -0.80902
 Alpha  occ. eigenvalues --   -0.79437  -0.78213  -0.76834  -0.76571  -0.75995
 Alpha  occ. eigenvalues --   -0.75734  -0.75360  -0.75305  -0.73962  -0.73305
 Alpha  occ. eigenvalues --   -0.73190  -0.72727  -0.71927  -0.71584  -0.70658
 Alpha  occ. eigenvalues --   -0.70123  -0.69427  -0.68908  -0.68708  -0.68054
 Alpha  occ. eigenvalues --   -0.67272  -0.67186  -0.66760  -0.66386  -0.65953
 Alpha  occ. eigenvalues --   -0.65007  -0.64491  -0.64226  -0.63762  -0.63468
 Alpha  occ. eigenvalues --   -0.63007  -0.62919  -0.62561  -0.62290  -0.62011
 Alpha  occ. eigenvalues --   -0.61260  -0.61143  -0.60860  -0.60757  -0.60272
 Alpha  occ. eigenvalues --   -0.59971  -0.59657  -0.59383  -0.58847  -0.58564
 Alpha  occ. eigenvalues --   -0.58045  -0.57711  -0.57536  -0.56746  -0.56184
 Alpha  occ. eigenvalues --   -0.55868  -0.55742  -0.55142  -0.54902  -0.54425
 Alpha  occ. eigenvalues --   -0.54385  -0.54015  -0.53751  -0.52971  -0.52816
 Alpha  occ. eigenvalues --   -0.52554  -0.51930  -0.51478  -0.51104  -0.50885
 Alpha  occ. eigenvalues --   -0.50786  -0.50521  -0.50163  -0.50030  -0.49920
 Alpha  occ. eigenvalues --   -0.49686  -0.49307  -0.49140  -0.49017  -0.48709
 Alpha  occ. eigenvalues --   -0.48404  -0.48176  -0.47764  -0.47650  -0.47394
 Alpha  occ. eigenvalues --   -0.47103  -0.46982  -0.46821  -0.46635  -0.46550
 Alpha  occ. eigenvalues --   -0.46382  -0.45976  -0.45847  -0.45684  -0.45078
 Alpha  occ. eigenvalues --   -0.44872  -0.44694  -0.44534  -0.44228  -0.43818
 Alpha  occ. eigenvalues --   -0.43493  -0.43309  -0.43151  -0.42931  -0.41944
 Alpha  occ. eigenvalues --   -0.41576  -0.41431  -0.40294  -0.38893  -0.38609
 Alpha  occ. eigenvalues --   -0.37161  -0.36628  -0.36189  -0.34999  -0.34116
 Alpha  occ. eigenvalues --   -0.33890  -0.32375  -0.32166  -0.31745  -0.26694
 Alpha  occ. eigenvalues --   -0.21697
 Alpha virt. eigenvalues --   -0.08581  -0.02476  -0.00637   0.01244   0.02627
 Alpha virt. eigenvalues --    0.02823   0.03457   0.04067   0.04874   0.04896
 Alpha virt. eigenvalues --    0.06164   0.06254   0.06802   0.07794   0.08089

 Mulliken charges:
               1
     1  Mg   0.423062
     2  C   -0.065887
     3  C   -0.089370
     4  C   -0.059736
     5  C   -0.054614
     6  N   -0.308687
     7  C    0.140105
     8  C    0.007722
     9  C    0.000345
    10  C    0.138113
    11  C   -0.049737
    12  C   -0.007816
    13  C    0.008215
    14  C    0.466276
    15  O   -0.492284
    16  O   -0.279274
    17  N   -0.327253
    18  C    0.124006
    19  C    0.033733
    20  C   -0.038867
    21  C    0.133952
    22  C   -0.054193
    23  C    0.334647
    24  O   -0.526524
    25  C   -0.026887
    26  N   -0.253697
    27  C    0.136244
    28  C   -0.000220
    29  C    0.006554
    30  C    0.109851
    31  C   -0.052262
    32  C   -0.025476
    33  C   -0.046274
    34  N   -0.319579
    35  C    0.075328
    36  C    0.045421
    37  C   -0.074075
    38  C    0.127557
    39  C   -0.040059
    40  C    0.332291
    41  O   -0.543424
    42  C    0.049000
    43  C    0.504386
    44  O   -0.522279
    45  O   -0.280941
    46  C    0.074748
    47  C    0.107418
    48  C   -0.090806
    49  C   -0.007078
    50  C   -0.051343
    51  C   -0.031090
    52  C   -0.034017
    53  C   -0.035338
    54  C   -0.015466
    55  C   -0.065011
    56  C   -0.036104
    57  C   -0.044250
    58  C   -0.045306
    59  C   -0.017118
    60  C   -0.061836
    61  C   -0.024972
    62  C   -0.033930
    63  C   -0.035618
    64  C   -0.013371
    65  C   -0.062822
    66  C   -0.063169
    67  H    0.033704
    68  H    0.051759
    69  H    0.024679
    70  H    0.046589
    71  H    0.033078
    72  H    0.016986
    73  H    0.027130
    74  H    0.029464
    75  H    0.020955
    76  H    0.030821
    77  H    0.029258
    78  H    0.034947
    79  H    0.022606
    80  H    0.025273
    81  H    0.032901
    82  H    0.039472
    83  H    0.038240
    84  H    0.033597
    85  H    0.032983
    86  H    0.032253
    87  H    0.033386
    88  H    0.028069
    89  H    0.019909
    90  H    0.008051
    91  H    0.015593
    92  H    0.022815
    93  H    0.022659
    94  H    0.015642
    95  H    0.039598
    96  H    0.004567
    97  H    0.040906
    98  H    0.059354
    99  H    0.039382
   100  H    0.047890
   101  H    0.031110
   102  H    0.047415
   103  H    0.052045
   104  H    0.026810
   105  H    0.029131
   106  H    0.031606
   107  H    0.020231
   108  H    0.024362
   109  H    0.016609
   110  H    0.015533
   111  H    0.022024
   112  H    0.037377
   113  H    0.012110
   114  H    0.027117
   115  H    0.026673
   116  H    0.020675
   117  H    0.026002
   118  H    0.009440
   119  H    0.023566
   120  H    0.020767
   121  H    0.023015
   122  H    0.013936
   123  H    0.015147
   124  H    0.026729
   125  H    0.022084
   126  H    0.009505
   127  H    0.019398
   128  H    0.030621
   129  H    0.009657
   130  H    0.019889
   131  H    0.012441
   132  H    0.015766
   133  H    0.026694
   134  H    0.025045
   135  H    0.010571
   136  H    0.017669
   137  H    0.036547
   138  H    0.019623
   139  H    0.006211
   140  H    0.013418
 Sum of Mulliken charges =  -0.00000

 Dipole moment (field-independent basis, Debye):
    X=             -6.7631    Y=              5.8628    Z=              2.9054  Tot=              9.4103
 N-N= 4.333979672944D+03 E-N= 0.000000000000D+00  KE=-9.342565311099D+03
 Leave Link  601 at Fri Apr 29 20:24:48 2022, MaxMem=  6710886400 cpu:               0.8 elap:               0.1
 (Enter /sw/apps/gaussian-16.0/g16/l9999.exe)
 1\1\GINC-BP1-COMPUTE082\SP\RZINDO CIS\STO-3G\C55H74Mg1N4O6\OF15641\29-
 Apr-2022\0\\#p ZINDO=(nstates=5)\\step_451_chromophore_24 ZINDO\\0,1\M
 g,0,0.033,43.308,24.499\C,0,2.126,42.891,27.332\C,0,-2.687,42.474,26.6
 2\C,0,-2.006,43.376,21.818\C,0,2.83,43.647,22.517\N,0,-0.261,43.032,26
 .786\C,0,0.715,42.813,27.753\C,0,0.185,42.588,29.11\C,0,-1.384,42.257,
 28.837\C,0,-1.485,42.593,27.319\C,0,-1.717,40.844,29.273\C,0,0.516,43.
 769,30.006\C,0,0.88,43.565,31.398\C,0,0.566,42.22,32.135\O,0,1.329,41.

 Normal termination of Gaussian 16 at Fri Apr 29 20:24:48 2022.
