 Gaussian 16, Revision A.03,
 Gaussian 16:  ES64L-G16RevA.03 25-Dec-2016

 ------------------------------
 #p blyp/Def2SVP td=(nstates=5)
 ------------------------------

 ---------------------------------------------------
 step_1201_chromophore_23 TDDFT with blyp functional
 ---------------------------------------------------
 Symbolic Z-matrix:
 Charge =  0 Multiplicity = 1

                         Standard orientation:
 ---------------------------------------------------------------------
 Center     Atomic      Atomic             Coordinates (Angstroms)
 Number     Number       Type             X           Y           Z
 ---------------------------------------------------------------------
      1         12           0        4.667702    0.306591   -0.389198
      2          6           0        2.613438   -2.494522   -0.047444
      3          6           0        2.412397    1.581257   -2.672497
      4          6           0        6.290036    3.133037   -0.139743
      5          6           0        6.213591   -0.813918    2.501254
      6          7           0        2.794004   -0.290086   -1.263935
      7          6           0        2.226011   -1.529825   -1.057807
      8          6           0        1.169598   -1.846312   -2.094531
      9          6           0        1.195107   -0.595249   -3.020179
     10          6           0        2.271536    0.275668   -2.298035
     11          6           0        1.587852   -0.873141   -4.523007
     12          6           0       -0.215498   -2.076183   -1.479832
     13          6           0       -0.865169   -3.465718   -1.597140
     14          6           0       -2.165112   -3.646392   -2.358661
     15          8           0       -2.326534   -3.590729   -3.569809
     16          8           0       -3.323986   -3.636174   -1.566581
     17          7           0        4.432599    2.143829   -1.316188
     18          6           0        3.472012    2.416574   -2.232053
     19          6           0        3.816373    3.710501   -2.773445
     20          6           0        4.923071    4.222651   -2.072181
     21          6           0        5.270382    3.169955   -1.096127
     22          6           0        2.995603    4.475649   -3.822788
     23          6           0        5.581651    5.642689   -2.206197
     24          8           0        5.277390    6.350073   -3.206066
     25          6           0        6.500552    6.220630   -1.215705
     26          7           0        5.967066    1.062376    0.968715
     27          6           0        6.605165    2.236000    0.807027
     28          6           0        7.641881    2.543900    1.929846
     29          6           0        7.455202    1.229699    2.825716
     30          6           0        6.503724    0.467156    2.065124
     31          6           0        9.086804    2.637016    1.383154
     32          6           0        6.878212    1.480838    4.273434
     33          6           0        7.427047    0.426503    5.260595
     34          7           0        4.572099   -1.375263    0.935349
     35          6           0        5.310429   -1.712603    2.000510
     36          6           0        4.981755   -2.976562    2.513181
     37          6           0        3.831141   -3.315489    1.712243
     38          6           0        3.672614   -2.296365    0.832642
     39          6           0        5.534224   -3.860148    3.755455
     40          6           0        2.795592   -4.395262    1.587763
     41          8           0        2.657850   -5.456979    2.216405
     42          6           0        1.974844   -3.950642    0.336956
     43          6           0        2.156937   -5.047686   -0.648353
     44          8           0        2.935814   -5.011127   -1.538998
     45          8           0        1.125729   -5.944469   -0.433325
     46          6           0        1.172261   -7.159069   -1.289957
     47          6           0       -4.595515   -3.650725   -2.239418
     48          6           0       -5.582754   -3.065818   -1.301191
     49          6           0       -5.660093   -1.751536   -0.982324
     50          6           0       -4.669989   -0.619842   -1.488850
     51          6           0       -6.534904   -1.204343    0.095745
     52          6           0       -7.830715   -0.678290   -0.524836
     53          6           0       -9.114222   -1.446691   -0.052683
     54          6           0      -10.170292   -0.556232    0.587258
     55          6           0      -11.663556   -0.959652    0.265607
     56          6           0       -9.947524   -0.244925    2.129060
     57          6           0       -9.679722    1.236473    2.400817
     58          6           0       -8.776677    1.638988    3.557223
     59          6           0       -7.358789    2.127541    3.065379
     60          6           0       -6.280984    1.785442    4.110361
     61          6           0       -7.375499    3.661643    2.891136
     62          6           0       -6.262090    4.240112    1.948347
     63          6           0       -6.920336    5.093613    0.816210
     64          6           0       -7.603192    4.249227   -0.333754
     65          6           0       -6.629375    4.055335   -1.485754
     66          6           0       -8.964127    4.903513   -0.872571
     67          1           0        1.830036    1.973676   -3.508898
     68          1           0        7.042849    3.918910   -0.044216
     69          1           0        6.650954   -1.221776    3.414669
     70          1           0        1.533654   -2.675898   -2.700587
     71          1           0        0.257311   -0.045952   -2.941875
     72          1           0        1.118137   -1.737684   -4.992337
     73          1           0        2.656764   -0.952170   -4.719810
     74          1           0        1.133469   -0.010328   -5.011325
     75          1           0       -0.935579   -1.478714   -2.038676
     76          1           0       -0.343475   -1.670654   -0.476325
     77          1           0       -1.090666   -3.867859   -0.609121
     78          1           0       -0.157416   -4.212942   -1.956909
     79          1           0        2.205500    3.938600   -4.347804
     80          1           0        3.734731    4.717211   -4.585928
     81          1           0        2.551339    5.385541   -3.416922
     82          1           0        7.471563    5.750407   -1.370166
     83          1           0        5.993226    6.271886   -0.252771
     84          1           0        6.666323    7.270060   -1.461123
     85          1           0        7.359429    3.398988    2.543083
     86          1           0        8.333677    0.627930    3.060428
     87          1           0        9.655809    1.801212    1.789836
     88          1           0        9.416288    3.577781    1.824299
     89          1           0        9.176111    2.882666    0.325569
     90          1           0        5.796696    1.500216    4.136146
     91          1           0        7.077733    2.473836    4.676339
     92          1           0        8.307999   -0.129470    4.940976
     93          1           0        6.624699   -0.242719    5.569925
     94          1           0        7.721300    0.985905    6.148204
     95          1           0        5.479715   -3.384176    4.734361
     96          1           0        6.582934   -4.010887    3.499360
     97          1           0        5.012693   -4.815469    3.694709
     98          1           0        0.904386   -3.882343    0.536099
     99          1           0        1.859777   -7.173339   -2.135140
    100          1           0        0.169289   -7.477410   -1.574444
    101          1           0        1.427225   -7.822449   -0.462806
    102          1           0       -4.848007   -4.682082   -2.487363
    103          1           0       -4.601534   -3.011218   -3.122259
    104          1           0       -6.199122   -3.711865   -0.675439
    105          1           0       -5.086816    0.384557   -1.563246
    106          1           0       -4.183961   -0.894417   -2.424502
    107          1           0       -3.886458   -0.486184   -0.742246
    108          1           0       -6.049579   -0.324332    0.518954
    109          1           0       -6.684426   -1.882330    0.936109
    110          1           0       -7.650026   -0.930283   -1.569394
    111          1           0       -7.955795    0.400601   -0.435353
    112          1           0       -8.910085   -2.234697    0.672797
    113          1           0       -9.448175   -1.973801   -0.947084
    114          1           0      -10.088035    0.371875    0.021696
    115          1           0      -12.242567   -0.553824    1.095511
    116          1           0      -11.812824   -2.021152    0.065601
    117          1           0      -11.932341   -0.510393   -0.690181
    118          1           0       -9.113013   -0.786509    2.573586
    119          1           0      -10.818991   -0.556690    2.704157
    120          1           0      -10.574695    1.853133    2.470154
    121          1           0       -9.187588    1.561154    1.484216
    122          1           0       -8.655347    0.791490    4.231667
    123          1           0       -9.316847    2.390284    4.133205
    124          1           0       -7.098409    1.699317    2.096579
    125          1           0       -6.652878    1.326349    5.026371
    126          1           0       -5.795670    2.670672    4.520313
    127          1           0       -5.546394    1.245136    3.512812
    128          1           0       -7.388098    4.140176    3.869734
    129          1           0       -8.371203    3.921208    2.531531
    130          1           0       -5.635564    3.444481    1.545827
    131          1           0       -5.725591    4.885902    2.642951
    132          1           0       -6.267201    5.912735    0.515327
    133          1           0       -7.729696    5.695316    1.231315
    134          1           0       -7.973731    3.279605   -0.001234
    135          1           0       -6.706530    2.994269   -1.723739
    136          1           0       -5.603900    4.258223   -1.177342
    137          1           0       -7.007085    4.540972   -2.385569
    138          1           0       -9.294803    4.453245   -1.808607
    139          1           0       -8.819601    5.976442   -1.005005
    140          1           0       -9.710257    4.779393   -0.088761
 ---------------------------------------------------------------------

 SCF Done:  E(RB-LYP) =  -3007.31907644     A.U. after   20 cycles

 Excitation energies and oscillator strengths:

 Excited State   1:      Singlet-A      1.7980 eV  689.56 nm  f=0.0091  <S**2>=0.000
     244 -> 247        0.68981
     245 -> 247        0.11290
     246 -> 247        0.10311
 This state for optimization and/or second-order correction.
 Total Energy, E(TD-HF/TD-DFT) =  -3007.25300062
 Copying the excited state density for this state as the 1-particle RhoCI density.

 Excited State   2:      Singlet-A      1.8738 eV  661.67 nm  f=0.3171  <S**2>=0.000
     245 -> 248       -0.18446
     246 -> 247        0.68304
     246 <- 247       -0.14893

 Excited State   3:      Singlet-A      2.0870 eV  594.09 nm  f=0.0579  <S**2>=0.000
     243 -> 247       -0.40974
     245 -> 247        0.52702
     246 -> 248        0.18058

 Excited State   4:      Singlet-A      2.1806 eV  568.57 nm  f=0.0350  <S**2>=0.000
     243 -> 247        0.57121
     245 -> 247        0.35486
     246 -> 248        0.17163

 Excited State   5:      Singlet-A      2.3119 eV  536.28 nm  f=0.0005  <S**2>=0.000
     242 -> 247        0.70127

 The electronic state is 1-A.
 Alpha  occ. eigenvalues --  -46.26748 -18.82306 -18.80838 -18.77498 -18.76501
 Alpha  occ. eigenvalues --  -18.76347 -18.75091 -14.03608 -14.03087 -14.00725
 Alpha  occ. eigenvalues --  -13.99923 -10.04051 -10.03797 -10.00451  -9.99973
 Alpha  occ. eigenvalues --   -9.97750  -9.96968  -9.96946  -9.95865  -9.95834
 Alpha  occ. eigenvalues --   -9.95832  -9.95743  -9.95213  -9.94630  -9.94615
 Alpha  occ. eigenvalues --   -9.94199  -9.94159  -9.93852  -9.93690  -9.93628
 Alpha  occ. eigenvalues --   -9.93567  -9.93463  -9.93458  -9.93372  -9.93298
 Alpha  occ. eigenvalues --   -9.93252  -9.93096  -9.93036  -9.92954  -9.92553
 Alpha  occ. eigenvalues --   -9.92542  -9.92531  -9.92482  -9.92481  -9.92413
 Alpha  occ. eigenvalues --   -9.92322  -9.92014  -9.91944  -9.91846  -9.91784
 Alpha  occ. eigenvalues --   -9.91539  -9.91482  -9.91477  -9.91463  -9.91345
 Alpha  occ. eigenvalues --   -9.91333  -9.91297  -9.91189  -9.91166  -9.90918
 Alpha  occ. eigenvalues --   -9.90877  -9.90813  -9.90732  -9.90659  -9.90628
 Alpha  occ. eigenvalues --   -9.90460  -2.91617  -1.72016  -1.71503  -1.71333
 Alpha  occ. eigenvalues --   -0.98427  -0.97056  -0.91546  -0.90790  -0.89302
 Alpha  occ. eigenvalues --   -0.88859  -0.88686  -0.87729  -0.87231  -0.85809
 Alpha  occ. eigenvalues --   -0.75170  -0.73699  -0.73594  -0.73210  -0.72808
 Alpha  occ. eigenvalues --   -0.72182  -0.71526  -0.71098  -0.70503  -0.69755
 Alpha  occ. eigenvalues --   -0.69287  -0.68746  -0.68104  -0.68019  -0.67738
 Alpha  occ. eigenvalues --   -0.66639  -0.66432  -0.65590  -0.65149  -0.64732
 Alpha  occ. eigenvalues --   -0.63713  -0.62760  -0.62229  -0.61406  -0.60851
 Alpha  occ. eigenvalues --   -0.60150  -0.59940  -0.59933  -0.59423  -0.58657
 Alpha  occ. eigenvalues --   -0.58503  -0.57856  -0.56940  -0.56188  -0.55084
 Alpha  occ. eigenvalues --   -0.54190  -0.53589  -0.52719  -0.52487  -0.52339
 Alpha  occ. eigenvalues --   -0.51442  -0.50904  -0.50846  -0.50497  -0.49833
 Alpha  occ. eigenvalues --   -0.49277  -0.49178  -0.48747  -0.48393  -0.46827
 Alpha  occ. eigenvalues --   -0.46503  -0.45964  -0.45757  -0.45356  -0.44887
 Alpha  occ. eigenvalues --   -0.44591  -0.43819  -0.43603  -0.43328  -0.42708
 Alpha  occ. eigenvalues --   -0.42328  -0.41942  -0.41762  -0.41436  -0.40793
 Alpha  occ. eigenvalues --   -0.40728  -0.40529  -0.40417  -0.40211  -0.40155
 Alpha  occ. eigenvalues --   -0.39855  -0.39498  -0.39420  -0.39317  -0.39105
 Alpha  occ. eigenvalues --   -0.38999  -0.38694  -0.38643  -0.38292  -0.37974
 Alpha  occ. eigenvalues --   -0.37812  -0.37605  -0.37554  -0.37286  -0.37222
 Alpha  occ. eigenvalues --   -0.37136  -0.36921  -0.36541  -0.36424  -0.36263
 Alpha  occ. eigenvalues --   -0.36227  -0.36034  -0.35967  -0.35691  -0.35631
 Alpha  occ. eigenvalues --   -0.35520  -0.35340  -0.35056  -0.34963  -0.34662
 Alpha  occ. eigenvalues --   -0.34523  -0.34484  -0.34286  -0.34044  -0.33877
 Alpha  occ. eigenvalues --   -0.33709  -0.33507  -0.33412  -0.33319  -0.33264
 Alpha  occ. eigenvalues --   -0.33241  -0.32976  -0.32865  -0.32811  -0.32496
 Alpha  occ. eigenvalues --   -0.32413  -0.32127  -0.32049  -0.31853  -0.31458
 Alpha  occ. eigenvalues --   -0.31419  -0.31247  -0.30945  -0.30899  -0.30624
 Alpha  occ. eigenvalues --   -0.30493  -0.30375  -0.30277  -0.30209  -0.29905
 Alpha  occ. eigenvalues --   -0.29607  -0.29431  -0.29268  -0.28981  -0.28905
 Alpha  occ. eigenvalues --   -0.28874  -0.28391  -0.28156  -0.28126  -0.27880
 Alpha  occ. eigenvalues --   -0.27456  -0.27331  -0.26829  -0.26523  -0.26086
 Alpha  occ. eigenvalues --   -0.26069  -0.25919  -0.25807  -0.25548  -0.25038
 Alpha  occ. eigenvalues --   -0.24896  -0.24545  -0.24398  -0.24294  -0.24218
 Alpha  occ. eigenvalues --   -0.23349  -0.22852  -0.22252  -0.21816  -0.20579
 Alpha  occ. eigenvalues --   -0.20222  -0.19970  -0.19255  -0.18044  -0.17533
 Alpha  occ. eigenvalues --   -0.15906
 Alpha virt. eigenvalues --   -0.11486  -0.06555  -0.06282  -0.04748  -0.03686
 Alpha virt. eigenvalues --   -0.03279  -0.02598  -0.02161  -0.01196   0.00154
 Alpha virt. eigenvalues --    0.00227   0.01231   0.01780   0.02599   0.02855

 Mulliken charges:
               1
     1  Mg   0.714066
     2  C   -0.032078
     3  C   -0.055104
     4  C   -0.042580
     5  C   -0.137963
     6  N   -0.175687
     7  C   -0.089234
     8  C    0.064204
     9  C   -0.016929
    10  C    0.012970
    11  C    0.118730
    12  C    0.135967
    13  C    0.127188
    14  C    0.056299
    15  O   -0.202062
    16  O   -0.284464
    17  N   -0.274071
    18  C    0.116675
    19  C   -0.155250
    20  C    0.045705
    21  C    0.148634
    22  C    0.174997
    23  C   -0.098387
    24  O   -0.202422
    25  C    0.192119
    26  N   -0.237006
    27  C   -0.027777
    28  C    0.042705
    29  C   -0.020351
    30  C    0.119222
    31  C    0.137711
    32  C    0.061665
    33  C    0.083410
    34  N   -0.164188
    35  C    0.073736
    36  C   -0.176724
    37  C    0.014235
    38  C    0.107133
    39  C    0.157167
    40  C   -0.006134
    41  O   -0.145258
    42  C    0.016045
    43  C    0.116005
    44  O   -0.133910
    45  O   -0.296583
    46  C    0.199451
    47  C    0.344503
    48  C   -0.102760
    49  C   -0.148098
    50  C    0.112408
    51  C    0.145001
    52  C    0.057295
    53  C    0.113468
    54  C   -0.089983
    55  C    0.101831
    56  C    0.139161
    57  C    0.028222
    58  C    0.123976
    59  C   -0.111079
    60  C    0.130910
    61  C    0.056629
    62  C    0.127313
    63  C    0.092687
    64  C   -0.118758
    65  C    0.134160
    66  C    0.066776
    67  H   -0.061896
    68  H   -0.092446
    69  H   -0.092864
    70  H   -0.011731
    71  H   -0.023011
    72  H    0.004874
    73  H    0.001823
    74  H   -0.008217
    75  H   -0.018043
    76  H   -0.011344
    77  H   -0.010525
    78  H    0.002710
    79  H   -0.030973
    80  H    0.007981
    81  H    0.009671
    82  H    0.024035
    83  H    0.011018
    84  H   -0.020462
    85  H   -0.014695
    86  H   -0.024781
    87  H    0.004817
    88  H   -0.018118
    89  H    0.001694
    90  H   -0.016739
    91  H   -0.023825
    92  H    0.001813
    93  H    0.007625
    94  H   -0.016727
    95  H    0.011787
    96  H   -0.006240
    97  H    0.015870
    98  H    0.009230
    99  H    0.039166
   100  H    0.016617
   101  H    0.024060
   102  H   -0.018626
   103  H    0.001333
   104  H   -0.044389
   105  H   -0.008063
   106  H   -0.004757
   107  H    0.002643
   108  H   -0.044802
   109  H   -0.019325
   110  H   -0.024929
   111  H   -0.014504
   112  H   -0.033350
   113  H   -0.038530
   114  H   -0.031877
   115  H   -0.011098
   116  H   -0.016104
   117  H   -0.022626
   118  H   -0.039679
   119  H   -0.034953
   120  H   -0.035921
   121  H   -0.024334
   122  H   -0.043660
   123  H   -0.038680
   124  H   -0.023817
   125  H   -0.016040
   126  H   -0.028924
   127  H   -0.012376
   128  H   -0.039434
   129  H   -0.040360
   130  H   -0.025726
   131  H   -0.031324
   132  H   -0.038310
   133  H   -0.050887
   134  H   -0.016416
   135  H   -0.029941
   136  H   -0.007268
   137  H   -0.017694
   138  H   -0.008918
   139  H   -0.012505
   140  H   -0.011525
 Sum of Mulliken charges =  -0.00000

 Dipole moment (field-independent basis, Debye):
    X=              1.3638    Y=              1.2478    Z=              3.0418  Tot=              3.5594
 Quadrupole moment (field-independent basis, Debye-Ang):
   XX=           -365.3335   YY=           -430.9113   ZZ=           -412.8667
   XY=              2.7897   XZ=             20.5812   YZ=             27.3170

 Normal termination of Gaussian 16 at Wed Apr 27 15:18:13 2022.
