 Gaussian 16, Revision A.03,
 Gaussian 16:  ES64L-G16RevA.03 25-Dec-2016

 -----------------------------------
 #p cam-b3lyp/Def2SVP td=(nstates=5)
 -----------------------------------

 --------------------------------------------------------
 step_1201_chromophore_23 TDDFT with cam-b3lyp functional
 --------------------------------------------------------
 Symbolic Z-matrix:
 Charge =  0 Multiplicity = 1

                         Standard orientation:
 ---------------------------------------------------------------------
 Center     Atomic      Atomic             Coordinates (Angstroms)
 Number     Number       Type             X           Y           Z
 ---------------------------------------------------------------------
      1         12           0        4.667702    0.306591   -0.389198
      2          6           0        2.613438   -2.494522   -0.047444
      3          6           0        2.412397    1.581257   -2.672497
      4          6           0        6.290036    3.133037   -0.139743
      5          6           0        6.213591   -0.813918    2.501254
      6          7           0        2.794004   -0.290086   -1.263935
      7          6           0        2.226011   -1.529825   -1.057807
      8          6           0        1.169598   -1.846312   -2.094531
      9          6           0        1.195107   -0.595249   -3.020179
     10          6           0        2.271536    0.275668   -2.298035
     11          6           0        1.587852   -0.873141   -4.523007
     12          6           0       -0.215498   -2.076183   -1.479832
     13          6           0       -0.865169   -3.465718   -1.597140
     14          6           0       -2.165112   -3.646392   -2.358661
     15          8           0       -2.326534   -3.590729   -3.569809
     16          8           0       -3.323986   -3.636174   -1.566581
     17          7           0        4.432599    2.143829   -1.316188
     18          6           0        3.472012    2.416574   -2.232053
     19          6           0        3.816373    3.710501   -2.773445
     20          6           0        4.923071    4.222651   -2.072181
     21          6           0        5.270382    3.169955   -1.096127
     22          6           0        2.995603    4.475649   -3.822788
     23          6           0        5.581651    5.642689   -2.206197
     24          8           0        5.277390    6.350073   -3.206066
     25          6           0        6.500552    6.220630   -1.215705
     26          7           0        5.967066    1.062376    0.968715
     27          6           0        6.605165    2.236000    0.807027
     28          6           0        7.641881    2.543900    1.929846
     29          6           0        7.455202    1.229699    2.825716
     30          6           0        6.503724    0.467156    2.065124
     31          6           0        9.086804    2.637016    1.383154
     32          6           0        6.878212    1.480838    4.273434
     33          6           0        7.427047    0.426503    5.260595
     34          7           0        4.572099   -1.375263    0.935349
     35          6           0        5.310429   -1.712603    2.000510
     36          6           0        4.981755   -2.976562    2.513181
     37          6           0        3.831141   -3.315489    1.712243
     38          6           0        3.672614   -2.296365    0.832642
     39          6           0        5.534224   -3.860148    3.755455
     40          6           0        2.795592   -4.395262    1.587763
     41          8           0        2.657850   -5.456979    2.216405
     42          6           0        1.974844   -3.950642    0.336956
     43          6           0        2.156937   -5.047686   -0.648353
     44          8           0        2.935814   -5.011127   -1.538998
     45          8           0        1.125729   -5.944469   -0.433325
     46          6           0        1.172261   -7.159069   -1.289957
     47          6           0       -4.595515   -3.650725   -2.239418
     48          6           0       -5.582754   -3.065818   -1.301191
     49          6           0       -5.660093   -1.751536   -0.982324
     50          6           0       -4.669989   -0.619842   -1.488850
     51          6           0       -6.534904   -1.204343    0.095745
     52          6           0       -7.830715   -0.678290   -0.524836
     53          6           0       -9.114222   -1.446691   -0.052683
     54          6           0      -10.170292   -0.556232    0.587258
     55          6           0      -11.663556   -0.959652    0.265607
     56          6           0       -9.947524   -0.244925    2.129060
     57          6           0       -9.679722    1.236473    2.400817
     58          6           0       -8.776677    1.638988    3.557223
     59          6           0       -7.358789    2.127541    3.065379
     60          6           0       -6.280984    1.785442    4.110361
     61          6           0       -7.375499    3.661643    2.891136
     62          6           0       -6.262090    4.240112    1.948347
     63          6           0       -6.920336    5.093613    0.816210
     64          6           0       -7.603192    4.249227   -0.333754
     65          6           0       -6.629375    4.055335   -1.485754
     66          6           0       -8.964127    4.903513   -0.872571
     67          1           0        1.830036    1.973676   -3.508898
     68          1           0        7.042849    3.918910   -0.044216
     69          1           0        6.650954   -1.221776    3.414669
     70          1           0        1.533654   -2.675898   -2.700587
     71          1           0        0.257311   -0.045952   -2.941875
     72          1           0        1.118137   -1.737684   -4.992337
     73          1           0        2.656764   -0.952170   -4.719810
     74          1           0        1.133469   -0.010328   -5.011325
     75          1           0       -0.935579   -1.478714   -2.038676
     76          1           0       -0.343475   -1.670654   -0.476325
     77          1           0       -1.090666   -3.867859   -0.609121
     78          1           0       -0.157416   -4.212942   -1.956909
     79          1           0        2.205500    3.938600   -4.347804
     80          1           0        3.734731    4.717211   -4.585928
     81          1           0        2.551339    5.385541   -3.416922
     82          1           0        7.471563    5.750407   -1.370166
     83          1           0        5.993226    6.271886   -0.252771
     84          1           0        6.666323    7.270060   -1.461123
     85          1           0        7.359429    3.398988    2.543083
     86          1           0        8.333677    0.627930    3.060428
     87          1           0        9.655809    1.801212    1.789836
     88          1           0        9.416288    3.577781    1.824299
     89          1           0        9.176111    2.882666    0.325569
     90          1           0        5.796696    1.500216    4.136146
     91          1           0        7.077733    2.473836    4.676339
     92          1           0        8.307999   -0.129470    4.940976
     93          1           0        6.624699   -0.242719    5.569925
     94          1           0        7.721300    0.985905    6.148204
     95          1           0        5.479715   -3.384176    4.734361
     96          1           0        6.582934   -4.010887    3.499360
     97          1           0        5.012693   -4.815469    3.694709
     98          1           0        0.904386   -3.882343    0.536099
     99          1           0        1.859777   -7.173339   -2.135140
    100          1           0        0.169289   -7.477410   -1.574444
    101          1           0        1.427225   -7.822449   -0.462806
    102          1           0       -4.848007   -4.682082   -2.487363
    103          1           0       -4.601534   -3.011218   -3.122259
    104          1           0       -6.199122   -3.711865   -0.675439
    105          1           0       -5.086816    0.384557   -1.563246
    106          1           0       -4.183961   -0.894417   -2.424502
    107          1           0       -3.886458   -0.486184   -0.742246
    108          1           0       -6.049579   -0.324332    0.518954
    109          1           0       -6.684426   -1.882330    0.936109
    110          1           0       -7.650026   -0.930283   -1.569394
    111          1           0       -7.955795    0.400601   -0.435353
    112          1           0       -8.910085   -2.234697    0.672797
    113          1           0       -9.448175   -1.973801   -0.947084
    114          1           0      -10.088035    0.371875    0.021696
    115          1           0      -12.242567   -0.553824    1.095511
    116          1           0      -11.812824   -2.021152    0.065601
    117          1           0      -11.932341   -0.510393   -0.690181
    118          1           0       -9.113013   -0.786509    2.573586
    119          1           0      -10.818991   -0.556690    2.704157
    120          1           0      -10.574695    1.853133    2.470154
    121          1           0       -9.187588    1.561154    1.484216
    122          1           0       -8.655347    0.791490    4.231667
    123          1           0       -9.316847    2.390284    4.133205
    124          1           0       -7.098409    1.699317    2.096579
    125          1           0       -6.652878    1.326349    5.026371
    126          1           0       -5.795670    2.670672    4.520313
    127          1           0       -5.546394    1.245136    3.512812
    128          1           0       -7.388098    4.140176    3.869734
    129          1           0       -8.371203    3.921208    2.531531
    130          1           0       -5.635564    3.444481    1.545827
    131          1           0       -5.725591    4.885902    2.642951
    132          1           0       -6.267201    5.912735    0.515327
    133          1           0       -7.729696    5.695316    1.231315
    134          1           0       -7.973731    3.279605   -0.001234
    135          1           0       -6.706530    2.994269   -1.723739
    136          1           0       -5.603900    4.258223   -1.177342
    137          1           0       -7.007085    4.540972   -2.385569
    138          1           0       -9.294803    4.453245   -1.808607
    139          1           0       -8.819601    5.976442   -1.005005
    140          1           0       -9.710257    4.779393   -0.088761
 ---------------------------------------------------------------------

 SCF Done:  E(RCAM-B3LYP) =  -3007.12313914     A.U. after   17 cycles

 Excitation energies and oscillator strengths:

 Excited State   1:      Singlet-A      1.7726 eV  699.45 nm  f=0.4065  <S**2>=0.000
     245 -> 248        0.17181
     246 -> 247        0.68769
     245 <- 248        0.10430
 This state for optimization and/or second-order correction.
 Total Energy, E(TD-HF/TD-DFT) =  -3007.05799701
 Copying the excited state density for this state as the 1-particle RhoCI density.

 Excited State   2:      Singlet-A      2.3362 eV  530.70 nm  f=0.1244  <S**2>=0.000
     245 -> 247        0.63726
     246 -> 248       -0.29215

 Excited State   3:      Singlet-A      3.3972 eV  364.96 nm  f=0.0018  <S**2>=0.000
     242 -> 247       -0.10604
     243 -> 247        0.29447
     244 -> 247        0.61593

 Excited State   4:      Singlet-A      3.4998 eV  354.26 nm  f=0.0083  <S**2>=0.000
     240 -> 247       -0.11387
     241 -> 247        0.11818
     242 -> 247       -0.29513
     243 -> 247        0.46632
     244 -> 247       -0.28047
     246 -> 248        0.22869

 Excited State   5:      Singlet-A      3.5479 eV  349.45 nm  f=0.0021  <S**2>=0.000
     241 -> 247        0.48592
     241 -> 248       -0.14291
     241 -> 249        0.27674
     241 -> 250       -0.10826
     241 -> 251        0.31616
     243 -> 247       -0.13284

 The electronic state is 1-A.
 Alpha  occ. eigenvalues --  -46.88290 -19.25255 -19.23661 -19.20682 -19.19720
 Alpha  occ. eigenvalues --  -19.19428 -19.18439 -14.42508 -14.41906 -14.39251
 Alpha  occ. eigenvalues --  -14.38125 -10.39513 -10.39207 -10.35885 -10.35327
 Alpha  occ. eigenvalues --  -10.31770 -10.31422 -10.30915 -10.30431 -10.30362
 Alpha  occ. eigenvalues --  -10.30300 -10.29893 -10.29674 -10.29065 -10.28641
 Alpha  occ. eigenvalues --  -10.28579 -10.28098 -10.27917 -10.27806 -10.27730
 Alpha  occ. eigenvalues --  -10.27690 -10.27610 -10.27541 -10.27445 -10.27398
 Alpha  occ. eigenvalues --  -10.27269 -10.27015 -10.26890 -10.26780 -10.26723
 Alpha  occ. eigenvalues --  -10.26656 -10.26414 -10.26281 -10.26187 -10.26184
 Alpha  occ. eigenvalues --  -10.26115 -10.26064 -10.25673 -10.25564 -10.25458
 Alpha  occ. eigenvalues --  -10.25394 -10.25251 -10.25176 -10.25167 -10.25128
 Alpha  occ. eigenvalues --  -10.25117 -10.24987 -10.24814 -10.24810 -10.24803
 Alpha  occ. eigenvalues --  -10.24532 -10.24503 -10.24407 -10.24239 -10.24220
 Alpha  occ. eigenvalues --  -10.24020  -3.17066  -1.91937  -1.91536  -1.91364
 Alpha  occ. eigenvalues --   -1.17105  -1.15535  -1.09558  -1.09134  -1.07738
 Alpha  occ. eigenvalues --   -1.06716  -1.06351  -1.05468  -1.04918  -1.03488
 Alpha  occ. eigenvalues --   -0.92256  -0.90536  -0.90339  -0.90031  -0.89592
 Alpha  occ. eigenvalues --   -0.88840  -0.88174  -0.87700  -0.87040  -0.86192
 Alpha  occ. eigenvalues --   -0.85687  -0.85406  -0.84362  -0.84207  -0.83934
 Alpha  occ. eigenvalues --   -0.82809  -0.82635  -0.81406  -0.81112  -0.80604
 Alpha  occ. eigenvalues --   -0.79408  -0.78259  -0.77813  -0.77030  -0.76254
 Alpha  occ. eigenvalues --   -0.75465  -0.75310  -0.75279  -0.74692  -0.73848
 Alpha  occ. eigenvalues --   -0.73576  -0.72861  -0.71839  -0.71039  -0.69618
 Alpha  occ. eigenvalues --   -0.68787  -0.68140  -0.67155  -0.66850  -0.66427
 Alpha  occ. eigenvalues --   -0.65788  -0.65107  -0.64852  -0.64567  -0.63824
 Alpha  occ. eigenvalues --   -0.63143  -0.62937  -0.62630  -0.62105  -0.60542
 Alpha  occ. eigenvalues --   -0.60116  -0.59480  -0.59175  -0.58834  -0.58586
 Alpha  occ. eigenvalues --   -0.58194  -0.57228  -0.56836  -0.56592  -0.55914
 Alpha  occ. eigenvalues --   -0.55216  -0.54984  -0.54828  -0.54196  -0.54104
 Alpha  occ. eigenvalues --   -0.53654  -0.53493  -0.53216  -0.52952  -0.52773
 Alpha  occ. eigenvalues --   -0.52602  -0.52051  -0.51907  -0.51859  -0.51691
 Alpha  occ. eigenvalues --   -0.51514  -0.51214  -0.51085  -0.50991  -0.50580
 Alpha  occ. eigenvalues --   -0.50198  -0.50065  -0.49743  -0.49709  -0.49656
 Alpha  occ. eigenvalues --   -0.49485  -0.49329  -0.49078  -0.48813  -0.48543
 Alpha  occ. eigenvalues --   -0.48403  -0.48309  -0.48086  -0.48019  -0.47595
 Alpha  occ. eigenvalues --   -0.47440  -0.47255  -0.47017  -0.46843  -0.46666
 Alpha  occ. eigenvalues --   -0.46486  -0.46328  -0.46097  -0.45915  -0.45757
 Alpha  occ. eigenvalues --   -0.45508  -0.45340  -0.45266  -0.45033  -0.44953
 Alpha  occ. eigenvalues --   -0.44890  -0.44850  -0.44701  -0.44459  -0.44346
 Alpha  occ. eigenvalues --   -0.43848  -0.43785  -0.43679  -0.43521  -0.43095
 Alpha  occ. eigenvalues --   -0.42863  -0.42651  -0.42547  -0.42377  -0.42065
 Alpha  occ. eigenvalues --   -0.41896  -0.41836  -0.41656  -0.41616  -0.41243
 Alpha  occ. eigenvalues --   -0.41034  -0.40878  -0.40413  -0.40156  -0.39989
 Alpha  occ. eigenvalues --   -0.39887  -0.39460  -0.39372  -0.39057  -0.38999
 Alpha  occ. eigenvalues --   -0.38331  -0.38166  -0.37358  -0.37226  -0.37185
 Alpha  occ. eigenvalues --   -0.36925  -0.36755  -0.36553  -0.36516  -0.36190
 Alpha  occ. eigenvalues --   -0.35815  -0.35545  -0.35125  -0.35095  -0.34630
 Alpha  occ. eigenvalues --   -0.34382  -0.33748  -0.33682  -0.31533  -0.31118
 Alpha  occ. eigenvalues --   -0.30589  -0.29919  -0.29897  -0.29694  -0.24352
 Alpha  occ. eigenvalues --   -0.21222
 Alpha virt. eigenvalues --   -0.08565  -0.01285   0.00358   0.01597   0.02281
 Alpha virt. eigenvalues --    0.04037   0.04755   0.05316   0.05732   0.06198
 Alpha virt. eigenvalues --    0.07449   0.08038   0.08543   0.08932   0.08958

 Mulliken charges:
               1
     1  Mg   0.848878
     2  C   -0.043977
     3  C   -0.057943
     4  C   -0.066715
     5  C   -0.136992
     6  N   -0.249105
     7  C   -0.045445
     8  C    0.001668
     9  C   -0.068575
    10  C    0.030270
    11  C    0.063017
    12  C    0.080320
    13  C    0.055824
    14  C    0.142081
    15  O   -0.240908
    16  O   -0.348018
    17  N   -0.365642
    18  C    0.123115
    19  C   -0.162698
    20  C   -0.022200
    21  C    0.180140
    22  C    0.121865
    23  C   -0.015864
    24  O   -0.240968
    25  C    0.098758
    26  N   -0.313043
    27  C   -0.005288
    28  C   -0.009088
    29  C   -0.079028
    30  C    0.134072
    31  C    0.078227
    32  C    0.012776
    33  C    0.013079
    34  N   -0.256962
    35  C    0.070586
    36  C   -0.168890
    37  C   -0.065336
    38  C    0.132541
    39  C    0.114360
    40  C    0.089701
    41  O   -0.183434
    42  C   -0.050503
    43  C    0.196702
    44  O   -0.169094
    45  O   -0.359565
    46  C    0.157578
    47  C    0.304961
    48  C   -0.121839
    49  C   -0.170585
    50  C    0.059884
    51  C    0.082451
    52  C    0.008699
    53  C    0.062475
    54  C   -0.150613
    55  C    0.050396
    56  C    0.082697
    57  C   -0.014024
    58  C    0.066601
    59  C   -0.158767
    60  C    0.070060
    61  C    0.009330
    62  C    0.071292
    63  C    0.032732
    64  C   -0.172329
    65  C    0.075275
    66  C    0.014255
    67  H   -0.025936
    68  H   -0.057311
    69  H   -0.054839
    70  H    0.024201
    71  H    0.012744
    72  H    0.030351
    73  H    0.026850
    74  H    0.014731
    75  H    0.011445
    76  H    0.021908
    77  H    0.024912
    78  H    0.031543
    79  H   -0.003990
    80  H    0.036465
    81  H    0.036421
    82  H    0.051046
    83  H    0.041155
    84  H    0.018167
    85  H    0.019337
    86  H    0.009756
    87  H    0.029926
    88  H    0.006476
    89  H    0.026242
    90  H    0.013829
    91  H    0.003912
    92  H    0.023769
    93  H    0.029688
    94  H    0.009625
    95  H    0.034161
    96  H    0.017793
    97  H    0.042667
    98  H    0.049948
    99  H    0.064578
   100  H    0.038190
   101  H    0.048587
   102  H    0.010885
   103  H    0.031771
   104  H   -0.011456
   105  H    0.013798
   106  H    0.016431
   107  H    0.026731
   108  H   -0.014652
   109  H    0.010549
   110  H    0.006596
   111  H    0.005571
   112  H   -0.006560
   113  H   -0.007604
   114  H   -0.000671
   115  H    0.011427
   116  H    0.007226
   117  H    0.001383
   118  H   -0.011713
   119  H   -0.005515
   120  H   -0.008076
   121  H   -0.005724
   122  H   -0.013737
   123  H   -0.008207
   124  H   -0.000455
   125  H    0.009202
   126  H   -0.004077
   127  H    0.010545
   128  H   -0.010187
   129  H   -0.014983
   130  H   -0.000235
   131  H   -0.000668
   132  H   -0.007459
   133  H   -0.020395
   134  H    0.008145
   135  H   -0.008839
   136  H    0.016333
   137  H    0.007725
   138  H    0.014659
   139  H    0.010224
   140  H    0.010435
 Sum of Mulliken charges =  -0.00000

 Dipole moment (field-independent basis, Debye):
    X=              1.4948    Y=              1.6742    Z=              2.8541  Tot=              3.6309
 Quadrupole moment (field-independent basis, Debye-Ang):
   XX=           -363.5508   YY=           -427.1477   ZZ=           -412.0870
   XY=              5.8308   XZ=             20.5935   YZ=             27.7954

 Normal termination of Gaussian 16 at Wed Apr 27 14:16:10 2022.
