 Gaussian 16, Revision A.03,
 Gaussian 16:  ES64L-G16RevA.03 25-Dec-2016

 ---------------------------------
 #p PBE1PBE/Def2SVP td=(nstates=5)
 ---------------------------------

 ------------------------------------------------------
 step_1201_chromophore_23 TDDFT with PBE1PBE functional
 ------------------------------------------------------
 Symbolic Z-matrix:
 Charge =  0 Multiplicity = 1

                         Standard orientation:
 ---------------------------------------------------------------------
 Center     Atomic      Atomic             Coordinates (Angstroms)
 Number     Number       Type             X           Y           Z
 ---------------------------------------------------------------------
      1         12           0        4.667702    0.306591   -0.389198
      2          6           0        2.613438   -2.494522   -0.047444
      3          6           0        2.412397    1.581257   -2.672497
      4          6           0        6.290036    3.133037   -0.139743
      5          6           0        6.213591   -0.813918    2.501254
      6          7           0        2.794004   -0.290086   -1.263935
      7          6           0        2.226011   -1.529825   -1.057807
      8          6           0        1.169598   -1.846312   -2.094531
      9          6           0        1.195107   -0.595249   -3.020179
     10          6           0        2.271536    0.275668   -2.298035
     11          6           0        1.587852   -0.873141   -4.523007
     12          6           0       -0.215498   -2.076183   -1.479832
     13          6           0       -0.865169   -3.465718   -1.597140
     14          6           0       -2.165112   -3.646392   -2.358661
     15          8           0       -2.326534   -3.590729   -3.569809
     16          8           0       -3.323986   -3.636174   -1.566581
     17          7           0        4.432599    2.143829   -1.316188
     18          6           0        3.472012    2.416574   -2.232053
     19          6           0        3.816373    3.710501   -2.773445
     20          6           0        4.923071    4.222651   -2.072181
     21          6           0        5.270382    3.169955   -1.096127
     22          6           0        2.995603    4.475649   -3.822788
     23          6           0        5.581651    5.642689   -2.206197
     24          8           0        5.277390    6.350073   -3.206066
     25          6           0        6.500552    6.220630   -1.215705
     26          7           0        5.967066    1.062376    0.968715
     27          6           0        6.605165    2.236000    0.807027
     28          6           0        7.641881    2.543900    1.929846
     29          6           0        7.455202    1.229699    2.825716
     30          6           0        6.503724    0.467156    2.065124
     31          6           0        9.086804    2.637016    1.383154
     32          6           0        6.878212    1.480838    4.273434
     33          6           0        7.427047    0.426503    5.260595
     34          7           0        4.572099   -1.375263    0.935349
     35          6           0        5.310429   -1.712603    2.000510
     36          6           0        4.981755   -2.976562    2.513181
     37          6           0        3.831141   -3.315489    1.712243
     38          6           0        3.672614   -2.296365    0.832642
     39          6           0        5.534224   -3.860148    3.755455
     40          6           0        2.795592   -4.395262    1.587763
     41          8           0        2.657850   -5.456979    2.216405
     42          6           0        1.974844   -3.950642    0.336956
     43          6           0        2.156937   -5.047686   -0.648353
     44          8           0        2.935814   -5.011127   -1.538998
     45          8           0        1.125729   -5.944469   -0.433325
     46          6           0        1.172261   -7.159069   -1.289957
     47          6           0       -4.595515   -3.650725   -2.239418
     48          6           0       -5.582754   -3.065818   -1.301191
     49          6           0       -5.660093   -1.751536   -0.982324
     50          6           0       -4.669989   -0.619842   -1.488850
     51          6           0       -6.534904   -1.204343    0.095745
     52          6           0       -7.830715   -0.678290   -0.524836
     53          6           0       -9.114222   -1.446691   -0.052683
     54          6           0      -10.170292   -0.556232    0.587258
     55          6           0      -11.663556   -0.959652    0.265607
     56          6           0       -9.947524   -0.244925    2.129060
     57          6           0       -9.679722    1.236473    2.400817
     58          6           0       -8.776677    1.638988    3.557223
     59          6           0       -7.358789    2.127541    3.065379
     60          6           0       -6.280984    1.785442    4.110361
     61          6           0       -7.375499    3.661643    2.891136
     62          6           0       -6.262090    4.240112    1.948347
     63          6           0       -6.920336    5.093613    0.816210
     64          6           0       -7.603192    4.249227   -0.333754
     65          6           0       -6.629375    4.055335   -1.485754
     66          6           0       -8.964127    4.903513   -0.872571
     67          1           0        1.830036    1.973676   -3.508898
     68          1           0        7.042849    3.918910   -0.044216
     69          1           0        6.650954   -1.221776    3.414669
     70          1           0        1.533654   -2.675898   -2.700587
     71          1           0        0.257311   -0.045952   -2.941875
     72          1           0        1.118137   -1.737684   -4.992337
     73          1           0        2.656764   -0.952170   -4.719810
     74          1           0        1.133469   -0.010328   -5.011325
     75          1           0       -0.935579   -1.478714   -2.038676
     76          1           0       -0.343475   -1.670654   -0.476325
     77          1           0       -1.090666   -3.867859   -0.609121
     78          1           0       -0.157416   -4.212942   -1.956909
     79          1           0        2.205500    3.938600   -4.347804
     80          1           0        3.734731    4.717211   -4.585928
     81          1           0        2.551339    5.385541   -3.416922
     82          1           0        7.471563    5.750407   -1.370166
     83          1           0        5.993226    6.271886   -0.252771
     84          1           0        6.666323    7.270060   -1.461123
     85          1           0        7.359429    3.398988    2.543083
     86          1           0        8.333677    0.627930    3.060428
     87          1           0        9.655809    1.801212    1.789836
     88          1           0        9.416288    3.577781    1.824299
     89          1           0        9.176111    2.882666    0.325569
     90          1           0        5.796696    1.500216    4.136146
     91          1           0        7.077733    2.473836    4.676339
     92          1           0        8.307999   -0.129470    4.940976
     93          1           0        6.624699   -0.242719    5.569925
     94          1           0        7.721300    0.985905    6.148204
     95          1           0        5.479715   -3.384176    4.734361
     96          1           0        6.582934   -4.010887    3.499360
     97          1           0        5.012693   -4.815469    3.694709
     98          1           0        0.904386   -3.882343    0.536099
     99          1           0        1.859777   -7.173339   -2.135140
    100          1           0        0.169289   -7.477410   -1.574444
    101          1           0        1.427225   -7.822449   -0.462806
    102          1           0       -4.848007   -4.682082   -2.487363
    103          1           0       -4.601534   -3.011218   -3.122259
    104          1           0       -6.199122   -3.711865   -0.675439
    105          1           0       -5.086816    0.384557   -1.563246
    106          1           0       -4.183961   -0.894417   -2.424502
    107          1           0       -3.886458   -0.486184   -0.742246
    108          1           0       -6.049579   -0.324332    0.518954
    109          1           0       -6.684426   -1.882330    0.936109
    110          1           0       -7.650026   -0.930283   -1.569394
    111          1           0       -7.955795    0.400601   -0.435353
    112          1           0       -8.910085   -2.234697    0.672797
    113          1           0       -9.448175   -1.973801   -0.947084
    114          1           0      -10.088035    0.371875    0.021696
    115          1           0      -12.242567   -0.553824    1.095511
    116          1           0      -11.812824   -2.021152    0.065601
    117          1           0      -11.932341   -0.510393   -0.690181
    118          1           0       -9.113013   -0.786509    2.573586
    119          1           0      -10.818991   -0.556690    2.704157
    120          1           0      -10.574695    1.853133    2.470154
    121          1           0       -9.187588    1.561154    1.484216
    122          1           0       -8.655347    0.791490    4.231667
    123          1           0       -9.316847    2.390284    4.133205
    124          1           0       -7.098409    1.699317    2.096579
    125          1           0       -6.652878    1.326349    5.026371
    126          1           0       -5.795670    2.670672    4.520313
    127          1           0       -5.546394    1.245136    3.512812
    128          1           0       -7.388098    4.140176    3.869734
    129          1           0       -8.371203    3.921208    2.531531
    130          1           0       -5.635564    3.444481    1.545827
    131          1           0       -5.725591    4.885902    2.642951
    132          1           0       -6.267201    5.912735    0.515327
    133          1           0       -7.729696    5.695316    1.231315
    134          1           0       -7.973731    3.279605   -0.001234
    135          1           0       -6.706530    2.994269   -1.723739
    136          1           0       -5.603900    4.258223   -1.177342
    137          1           0       -7.007085    4.540972   -2.385569
    138          1           0       -9.294803    4.453245   -1.808607
    139          1           0       -8.819601    5.976442   -1.005005
    140          1           0       -9.710257    4.779393   -0.088761
 ---------------------------------------------------------------------

 SCF Done:  E(RPBE1PBE) =  -3005.31061135     A.U. after   15 cycles

 Excitation energies and oscillator strengths:

 Excited State   1:      Singlet-A      1.9236 eV  644.55 nm  f=0.3914  <S**2>=0.000
     245 -> 248        0.16798
     246 -> 247        0.69462
     246 <- 247       -0.10990
 This state for optimization and/or second-order correction.
 Total Energy, E(TD-HF/TD-DFT) =  -3005.23992068
 Copying the excited state density for this state as the 1-particle RhoCI density.

 Excited State   2:      Singlet-A      2.3431 eV  529.14 nm  f=0.1212  <S**2>=0.000
     245 -> 247        0.64841
     246 -> 248       -0.26661

 Excited State   3:      Singlet-A      3.0123 eV  411.60 nm  f=0.0004  <S**2>=0.000
     244 -> 247        0.66538
     244 -> 249        0.13949
     244 -> 250        0.13171

 Excited State   4:      Singlet-A      3.0581 eV  405.43 nm  f=0.0018  <S**2>=0.000
     242 -> 247        0.65401
     243 -> 247       -0.23513

 Excited State   5:      Singlet-A      3.1466 eV  394.03 nm  f=0.0015  <S**2>=0.000
     240 -> 247        0.51264
     240 -> 249       -0.16218
     241 -> 247       -0.42350
     246 -> 248       -0.11894

 The electronic state is 1-A.
 Alpha  occ. eigenvalues --  -46.91678 -19.25940 -19.24354 -19.20851 -19.19989
 Alpha  occ. eigenvalues --  -19.19680 -19.18581 -14.41953 -14.41423 -14.38828
 Alpha  occ. eigenvalues --  -14.37809 -10.36480 -10.36235 -10.33096 -10.32417
 Alpha  occ. eigenvalues --  -10.29260 -10.29007 -10.28293 -10.27978 -10.27948
 Alpha  occ. eigenvalues --  -10.27889 -10.27700 -10.27219 -10.26731 -10.26467
 Alpha  occ. eigenvalues --  -10.26420 -10.25893 -10.25705 -10.25624 -10.25342
 Alpha  occ. eigenvalues --  -10.25341 -10.25235 -10.25174 -10.25162 -10.25160
 Alpha  occ. eigenvalues --  -10.25103 -10.24637 -10.24624 -10.24310 -10.24266
 Alpha  occ. eigenvalues --  -10.24149 -10.23870 -10.23739 -10.23655 -10.23648
 Alpha  occ. eigenvalues --  -10.23646 -10.23593 -10.23413 -10.23272 -10.23070
 Alpha  occ. eigenvalues --  -10.22996 -10.22762 -10.22738 -10.22699 -10.22672
 Alpha  occ. eigenvalues --  -10.22662 -10.22600 -10.22551 -10.22379 -10.22222
 Alpha  occ. eigenvalues --  -10.22106 -10.21975 -10.21917 -10.21772 -10.21585
 Alpha  occ. eigenvalues --  -10.21410  -3.14025  -1.86837  -1.86415  -1.86246
 Alpha  occ. eigenvalues --   -1.11841  -1.10327  -1.04388  -1.03906  -1.02356
 Alpha  occ. eigenvalues --   -1.01570  -1.01136  -1.00117  -0.99561  -0.98101
 Alpha  occ. eigenvalues --   -0.86620  -0.84721  -0.84637  -0.84261  -0.83680
 Alpha  occ. eigenvalues --   -0.83150  -0.82275  -0.82013  -0.81151  -0.80582
 Alpha  occ. eigenvalues --   -0.79908  -0.79637  -0.78640  -0.78504  -0.78139
 Alpha  occ. eigenvalues --   -0.76951  -0.76790  -0.75788  -0.75384  -0.74791
 Alpha  occ. eigenvalues --   -0.73602  -0.72597  -0.72074  -0.71302  -0.70573
 Alpha  occ. eigenvalues --   -0.69685  -0.69543  -0.69355  -0.68828  -0.68026
 Alpha  occ. eigenvalues --   -0.67929  -0.67261  -0.66283  -0.65343  -0.63995
 Alpha  occ. eigenvalues --   -0.63272  -0.62341  -0.61506  -0.61084  -0.60895
 Alpha  occ. eigenvalues --   -0.60243  -0.59424  -0.59291  -0.59108  -0.57939
 Alpha  occ. eigenvalues --   -0.57495  -0.57285  -0.56826  -0.56686  -0.55135
 Alpha  occ. eigenvalues --   -0.54653  -0.53881  -0.53709  -0.53357  -0.53112
 Alpha  occ. eigenvalues --   -0.52644  -0.51695  -0.51273  -0.51037  -0.50467
 Alpha  occ. eigenvalues --   -0.49774  -0.49560  -0.49370  -0.48785  -0.48501
 Alpha  occ. eigenvalues --   -0.48216  -0.47837  -0.47799  -0.47591  -0.47173
 Alpha  occ. eigenvalues --   -0.47076  -0.46548  -0.46421  -0.46383  -0.46255
 Alpha  occ. eigenvalues --   -0.46053  -0.45835  -0.45619  -0.45515  -0.45125
 Alpha  occ. eigenvalues --   -0.44828  -0.44557  -0.44369  -0.44246  -0.44229
 Alpha  occ. eigenvalues --   -0.44075  -0.43892  -0.43726  -0.43417  -0.43092
 Alpha  occ. eigenvalues --   -0.43087  -0.42954  -0.42719  -0.42624  -0.42277
 Alpha  occ. eigenvalues --   -0.42089  -0.41933  -0.41633  -0.41472  -0.41401
 Alpha  occ. eigenvalues --   -0.41092  -0.40929  -0.40817  -0.40586  -0.40491
 Alpha  occ. eigenvalues --   -0.40144  -0.40106  -0.40021  -0.39763  -0.39665
 Alpha  occ. eigenvalues --   -0.39569  -0.39471  -0.39366  -0.39175  -0.39046
 Alpha  occ. eigenvalues --   -0.38596  -0.38495  -0.38475  -0.38327  -0.37926
 Alpha  occ. eigenvalues --   -0.37653  -0.37535  -0.37347  -0.37186  -0.36939
 Alpha  occ. eigenvalues --   -0.36711  -0.36659  -0.36488  -0.36361  -0.36001
 Alpha  occ. eigenvalues --   -0.35810  -0.35712  -0.35194  -0.35071  -0.34952
 Alpha  occ. eigenvalues --   -0.34646  -0.34331  -0.34205  -0.33851  -0.33781
 Alpha  occ. eigenvalues --   -0.33356  -0.32926  -0.32466  -0.32178  -0.32100
 Alpha  occ. eigenvalues --   -0.31991  -0.31552  -0.31426  -0.31411  -0.31019
 Alpha  occ. eigenvalues --   -0.30739  -0.30457  -0.29940  -0.29933  -0.29591
 Alpha  occ. eigenvalues --   -0.29565  -0.29255  -0.28487  -0.27169  -0.26079
 Alpha  occ. eigenvalues --   -0.25532  -0.25257  -0.25215  -0.25197  -0.21258
 Alpha  occ. eigenvalues --   -0.18845
 Alpha virt. eigenvalues --   -0.11052  -0.04825  -0.03916  -0.02161  -0.01094
 Alpha virt. eigenvalues --   -0.00502   0.00387   0.00934   0.01612   0.02800
 Alpha virt. eigenvalues --    0.03281   0.04367   0.04438   0.05412   0.05697

 Mulliken charges:
               1
     1  Mg   0.993743
     2  C   -0.025685
     3  C   -0.037401
     4  C   -0.068797
     5  C   -0.113945
     6  N   -0.362824
     7  C    0.021167
     8  C   -0.075337
     9  C   -0.146534
    10  C    0.069486
    11  C    0.006808
    12  C    0.029519
    13  C   -0.021038
    14  C    0.208744
    15  O   -0.273536
    16  O   -0.377288
    17  N   -0.486830
    18  C    0.146427
    19  C   -0.193928
    20  C   -0.067306
    21  C    0.214239
    22  C    0.065943
    23  C    0.033059
    24  O   -0.273321
    25  C    0.020824
    26  N   -0.424951
    27  C    0.034140
    28  C   -0.088397
    29  C   -0.156969
    30  C    0.164233
    31  C    0.022719
    32  C   -0.036999
    33  C   -0.065191
    34  N   -0.392331
    35  C    0.077212
    36  C   -0.160813
    37  C   -0.102925
    38  C    0.168957
    39  C    0.056051
    40  C    0.170960
    41  O   -0.227850
    42  C   -0.150741
    43  C    0.283291
    44  O   -0.205589
    45  O   -0.388936
    46  C    0.102312
    47  C    0.257150
    48  C   -0.128114
    49  C   -0.217796
    50  C   -0.005426
    51  C    0.017725
    52  C   -0.057395
    53  C    0.014332
    54  C   -0.241484
    55  C   -0.009093
    56  C    0.032179
    57  C   -0.085721
    58  C    0.015456
    59  C   -0.257846
    60  C    0.014860
    61  C   -0.038852
    62  C    0.005225
    63  C   -0.026083
    64  C   -0.269927
    65  C    0.013127
    66  C   -0.049699
    67  H    0.005242
    68  H   -0.021214
    69  H   -0.016583
    70  H    0.062303
    71  H    0.048291
    72  H    0.057605
    73  H    0.053919
    74  H    0.042497
    75  H    0.046597
    76  H    0.052763
    77  H    0.056812
    78  H    0.067646
    79  H    0.022359
    80  H    0.063752
    81  H    0.063296
    82  H    0.075858
    83  H    0.067780
    84  H    0.046538
    85  H    0.054160
    86  H    0.047328
    87  H    0.056769
    88  H    0.034760
    89  H    0.052947
    90  H    0.047427
    91  H    0.036635
    92  H    0.049332
    93  H    0.057398
    94  H    0.039321
    95  H    0.060779
    96  H    0.046262
    97  H    0.070677
    98  H    0.088186
    99  H    0.084532
   100  H    0.059887
   101  H    0.070886
   102  H    0.038882
   103  H    0.058475
   104  H    0.018917
   105  H    0.042344
   106  H    0.044009
   107  H    0.055419
   108  H    0.021950
   109  H    0.041017
   110  H    0.042720
   111  H    0.039369
   112  H    0.025284
   113  H    0.025075
   114  H    0.037734
   115  H    0.038975
   116  H    0.034580
   117  H    0.029297
   118  H    0.020963
   119  H    0.027030
   120  H    0.024304
   121  H    0.035275
   122  H    0.018712
   123  H    0.023855
   124  H    0.042690
   125  H    0.035250
   126  H    0.023319
   127  H    0.037569
   128  H    0.022317
   129  H    0.018861
   130  H    0.031188
   131  H    0.032764
   132  H    0.024225
   133  H    0.013278
   134  H    0.055033
   135  H    0.021417
   136  H    0.043649
   137  H    0.035391
   138  H    0.042162
   139  H    0.038482
   140  H    0.038480
 Sum of Mulliken charges =  -0.00000

 Dipole moment (field-independent basis, Debye):
    X=              1.5160    Y=              1.5658    Z=              3.0868  Tot=              3.7787
 Quadrupole moment (field-independent basis, Debye-Ang):
   XX=           -358.5376   YY=           -424.7324   ZZ=           -408.1644
   XY=              5.1807   XZ=             22.5616   YZ=             28.0270

 Normal termination of Gaussian 16 at Wed Apr 27 14:36:01 2022.
