 Gaussian 16, Revision A.03,
 Gaussian 16:  ES64L-G16RevA.03 25-Dec-2016

 --------------------------------
 #p wB97XD/Def2SVP td=(nstates=5)
 --------------------------------

 -----------------------------------------------------
 step_1201_chromophore_23 TDDFT with wB97XD functional
 -----------------------------------------------------
 Symbolic Z-matrix:
 Charge =  0 Multiplicity = 1

                         Standard orientation:
 ---------------------------------------------------------------------
 Center     Atomic      Atomic             Coordinates (Angstroms)
 Number     Number       Type             X           Y           Z
 ---------------------------------------------------------------------
      1         12           0        4.667702    0.306591   -0.389198
      2          6           0        2.613438   -2.494522   -0.047444
      3          6           0        2.412397    1.581257   -2.672497
      4          6           0        6.290036    3.133037   -0.139743
      5          6           0        6.213591   -0.813918    2.501254
      6          7           0        2.794004   -0.290086   -1.263935
      7          6           0        2.226011   -1.529825   -1.057807
      8          6           0        1.169598   -1.846312   -2.094531
      9          6           0        1.195107   -0.595249   -3.020179
     10          6           0        2.271536    0.275668   -2.298035
     11          6           0        1.587852   -0.873141   -4.523007
     12          6           0       -0.215498   -2.076183   -1.479832
     13          6           0       -0.865169   -3.465718   -1.597140
     14          6           0       -2.165112   -3.646392   -2.358661
     15          8           0       -2.326534   -3.590729   -3.569809
     16          8           0       -3.323986   -3.636174   -1.566581
     17          7           0        4.432599    2.143829   -1.316188
     18          6           0        3.472012    2.416574   -2.232053
     19          6           0        3.816373    3.710501   -2.773445
     20          6           0        4.923071    4.222651   -2.072181
     21          6           0        5.270382    3.169955   -1.096127
     22          6           0        2.995603    4.475649   -3.822788
     23          6           0        5.581651    5.642689   -2.206197
     24          8           0        5.277390    6.350073   -3.206066
     25          6           0        6.500552    6.220630   -1.215705
     26          7           0        5.967066    1.062376    0.968715
     27          6           0        6.605165    2.236000    0.807027
     28          6           0        7.641881    2.543900    1.929846
     29          6           0        7.455202    1.229699    2.825716
     30          6           0        6.503724    0.467156    2.065124
     31          6           0        9.086804    2.637016    1.383154
     32          6           0        6.878212    1.480838    4.273434
     33          6           0        7.427047    0.426503    5.260595
     34          7           0        4.572099   -1.375263    0.935349
     35          6           0        5.310429   -1.712603    2.000510
     36          6           0        4.981755   -2.976562    2.513181
     37          6           0        3.831141   -3.315489    1.712243
     38          6           0        3.672614   -2.296365    0.832642
     39          6           0        5.534224   -3.860148    3.755455
     40          6           0        2.795592   -4.395262    1.587763
     41          8           0        2.657850   -5.456979    2.216405
     42          6           0        1.974844   -3.950642    0.336956
     43          6           0        2.156937   -5.047686   -0.648353
     44          8           0        2.935814   -5.011127   -1.538998
     45          8           0        1.125729   -5.944469   -0.433325
     46          6           0        1.172261   -7.159069   -1.289957
     47          6           0       -4.595515   -3.650725   -2.239418
     48          6           0       -5.582754   -3.065818   -1.301191
     49          6           0       -5.660093   -1.751536   -0.982324
     50          6           0       -4.669989   -0.619842   -1.488850
     51          6           0       -6.534904   -1.204343    0.095745
     52          6           0       -7.830715   -0.678290   -0.524836
     53          6           0       -9.114222   -1.446691   -0.052683
     54          6           0      -10.170292   -0.556232    0.587258
     55          6           0      -11.663556   -0.959652    0.265607
     56          6           0       -9.947524   -0.244925    2.129060
     57          6           0       -9.679722    1.236473    2.400817
     58          6           0       -8.776677    1.638988    3.557223
     59          6           0       -7.358789    2.127541    3.065379
     60          6           0       -6.280984    1.785442    4.110361
     61          6           0       -7.375499    3.661643    2.891136
     62          6           0       -6.262090    4.240112    1.948347
     63          6           0       -6.920336    5.093613    0.816210
     64          6           0       -7.603192    4.249227   -0.333754
     65          6           0       -6.629375    4.055335   -1.485754
     66          6           0       -8.964127    4.903513   -0.872571
     67          1           0        1.830036    1.973676   -3.508898
     68          1           0        7.042849    3.918910   -0.044216
     69          1           0        6.650954   -1.221776    3.414669
     70          1           0        1.533654   -2.675898   -2.700587
     71          1           0        0.257311   -0.045952   -2.941875
     72          1           0        1.118137   -1.737684   -4.992337
     73          1           0        2.656764   -0.952170   -4.719810
     74          1           0        1.133469   -0.010328   -5.011325
     75          1           0       -0.935579   -1.478714   -2.038676
     76          1           0       -0.343475   -1.670654   -0.476325
     77          1           0       -1.090666   -3.867859   -0.609121
     78          1           0       -0.157416   -4.212942   -1.956909
     79          1           0        2.205500    3.938600   -4.347804
     80          1           0        3.734731    4.717211   -4.585928
     81          1           0        2.551339    5.385541   -3.416922
     82          1           0        7.471563    5.750407   -1.370166
     83          1           0        5.993226    6.271886   -0.252771
     84          1           0        6.666323    7.270060   -1.461123
     85          1           0        7.359429    3.398988    2.543083
     86          1           0        8.333677    0.627930    3.060428
     87          1           0        9.655809    1.801212    1.789836
     88          1           0        9.416288    3.577781    1.824299
     89          1           0        9.176111    2.882666    0.325569
     90          1           0        5.796696    1.500216    4.136146
     91          1           0        7.077733    2.473836    4.676339
     92          1           0        8.307999   -0.129470    4.940976
     93          1           0        6.624699   -0.242719    5.569925
     94          1           0        7.721300    0.985905    6.148204
     95          1           0        5.479715   -3.384176    4.734361
     96          1           0        6.582934   -4.010887    3.499360
     97          1           0        5.012693   -4.815469    3.694709
     98          1           0        0.904386   -3.882343    0.536099
     99          1           0        1.859777   -7.173339   -2.135140
    100          1           0        0.169289   -7.477410   -1.574444
    101          1           0        1.427225   -7.822449   -0.462806
    102          1           0       -4.848007   -4.682082   -2.487363
    103          1           0       -4.601534   -3.011218   -3.122259
    104          1           0       -6.199122   -3.711865   -0.675439
    105          1           0       -5.086816    0.384557   -1.563246
    106          1           0       -4.183961   -0.894417   -2.424502
    107          1           0       -3.886458   -0.486184   -0.742246
    108          1           0       -6.049579   -0.324332    0.518954
    109          1           0       -6.684426   -1.882330    0.936109
    110          1           0       -7.650026   -0.930283   -1.569394
    111          1           0       -7.955795    0.400601   -0.435353
    112          1           0       -8.910085   -2.234697    0.672797
    113          1           0       -9.448175   -1.973801   -0.947084
    114          1           0      -10.088035    0.371875    0.021696
    115          1           0      -12.242567   -0.553824    1.095511
    116          1           0      -11.812824   -2.021152    0.065601
    117          1           0      -11.932341   -0.510393   -0.690181
    118          1           0       -9.113013   -0.786509    2.573586
    119          1           0      -10.818991   -0.556690    2.704157
    120          1           0      -10.574695    1.853133    2.470154
    121          1           0       -9.187588    1.561154    1.484216
    122          1           0       -8.655347    0.791490    4.231667
    123          1           0       -9.316847    2.390284    4.133205
    124          1           0       -7.098409    1.699317    2.096579
    125          1           0       -6.652878    1.326349    5.026371
    126          1           0       -5.795670    2.670672    4.520313
    127          1           0       -5.546394    1.245136    3.512812
    128          1           0       -7.388098    4.140176    3.869734
    129          1           0       -8.371203    3.921208    2.531531
    130          1           0       -5.635564    3.444481    1.545827
    131          1           0       -5.725591    4.885902    2.642951
    132          1           0       -6.267201    5.912735    0.515327
    133          1           0       -7.729696    5.695316    1.231315
    134          1           0       -7.973731    3.279605   -0.001234
    135          1           0       -6.706530    2.994269   -1.723739
    136          1           0       -5.603900    4.258223   -1.177342
    137          1           0       -7.007085    4.540972   -2.385569
    138          1           0       -9.294803    4.453245   -1.808607
    139          1           0       -8.819601    5.976442   -1.005005
    140          1           0       -9.710257    4.779393   -0.088761
 ---------------------------------------------------------------------

 SCF Done:  E(RwB97XD) =  -3007.82574615     A.U. after   19 cycles

 Excitation energies and oscillator strengths:

 Excited State   1:      Singlet-A      1.7198 eV  720.94 nm  f=0.4053  <S**2>=0.000
     245 -> 248        0.17683
     246 -> 247        0.68554
     245 <- 248        0.11276
 This state for optimization and/or second-order correction.
 Total Energy, E(TD-HF/TD-DFT) =  -3007.76254642
 Copying the excited state density for this state as the 1-particle RhoCI density.

 Excited State   2:      Singlet-A      2.2825 eV  543.18 nm  f=0.1211  <S**2>=0.000
     245 -> 247        0.63525
     246 -> 248       -0.29429

 Excited State   3:      Singlet-A      3.4233 eV  362.17 nm  f=0.0016  <S**2>=0.000
     242 -> 247       -0.33914
     243 -> 247       -0.21248
     244 -> 247        0.55438

 Excited State   4:      Singlet-A      3.5226 eV  351.97 nm  f=0.0179  <S**2>=0.000
     240 -> 247       -0.10974
     241 -> 247        0.16946
     241 -> 249        0.11842
     241 -> 250       -0.13204
     242 -> 247        0.48633
     244 -> 247        0.29436
     246 -> 248        0.25182

 Excited State   5:      Singlet-A      3.5612 eV  348.15 nm  f=0.0076  <S**2>=0.000
     241 -> 247        0.44946
     241 -> 248       -0.13344
     241 -> 249        0.28492
     241 -> 250       -0.32106
     242 -> 247       -0.21985
     246 -> 248       -0.12752

 The electronic state is 1-A.
 Alpha  occ. eigenvalues --  -46.94661 -19.30490 -19.28913 -19.25586 -19.24768
 Alpha  occ. eigenvalues --  -19.24379 -19.23483 -14.47090 -14.46492 -14.43847
 Alpha  occ. eigenvalues --  -14.42697 -10.43338 -10.43041 -10.39924 -10.39317
 Alpha  occ. eigenvalues --  -10.35513 -10.35450 -10.34792 -10.34489 -10.34374
 Alpha  occ. eigenvalues --  -10.34296 -10.33839 -10.33730 -10.33130 -10.32738
 Alpha  occ. eigenvalues --  -10.32691 -10.32048 -10.31974 -10.31966 -10.31870
 Alpha  occ. eigenvalues --  -10.31631 -10.31593 -10.31581 -10.31458 -10.31321
 Alpha  occ. eigenvalues --  -10.31295 -10.31142 -10.30815 -10.30777 -10.30669
 Alpha  occ. eigenvalues --  -10.30526 -10.30286 -10.30155 -10.30139 -10.30092
 Alpha  occ. eigenvalues --  -10.30026 -10.29965 -10.29664 -10.29532 -10.29374
 Alpha  occ. eigenvalues --  -10.29365 -10.29188 -10.29095 -10.29090 -10.29037
 Alpha  occ. eigenvalues --  -10.29019 -10.28913 -10.28852 -10.28721 -10.28637
 Alpha  occ. eigenvalues --  -10.28456 -10.28329 -10.28328 -10.28139 -10.28001
 Alpha  occ. eigenvalues --  -10.27829  -3.20844  -1.94408  -1.93987  -1.93818
 Alpha  occ. eigenvalues --   -1.19249  -1.17710  -1.11757  -1.11364  -1.09952
 Alpha  occ. eigenvalues --   -1.08928  -1.08375  -1.07487  -1.06927  -1.05552
 Alpha  occ. eigenvalues --   -0.94203  -0.92336  -0.92211  -0.91882  -0.91342
 Alpha  occ. eigenvalues --   -0.90749  -0.89936  -0.89632  -0.88806  -0.88130
 Alpha  occ. eigenvalues --   -0.87572  -0.87371  -0.86262  -0.86100  -0.85778
 Alpha  occ. eigenvalues --   -0.84715  -0.84470  -0.83368  -0.83018  -0.82439
 Alpha  occ. eigenvalues --   -0.81254  -0.80167  -0.79706  -0.78983  -0.78183
 Alpha  occ. eigenvalues --   -0.77341  -0.77205  -0.77052  -0.76502  -0.75673
 Alpha  occ. eigenvalues --   -0.75508  -0.74817  -0.73814  -0.72954  -0.71514
 Alpha  occ. eigenvalues --   -0.70780  -0.69984  -0.69121  -0.68709  -0.68352
 Alpha  occ. eigenvalues --   -0.67777  -0.66947  -0.66843  -0.66568  -0.65611
 Alpha  occ. eigenvalues --   -0.64994  -0.64890  -0.64450  -0.64087  -0.62546
 Alpha  occ. eigenvalues --   -0.62059  -0.61372  -0.61131  -0.60778  -0.60577
 Alpha  occ. eigenvalues --   -0.60160  -0.59150  -0.58749  -0.58524  -0.57846
 Alpha  occ. eigenvalues --   -0.57173  -0.56945  -0.56755  -0.56132  -0.55968
 Alpha  occ. eigenvalues --   -0.55600  -0.55426  -0.55144  -0.54872  -0.54615
 Alpha  occ. eigenvalues --   -0.54472  -0.53938  -0.53806  -0.53753  -0.53569
 Alpha  occ. eigenvalues --   -0.53399  -0.53158  -0.52999  -0.52864  -0.52486
 Alpha  occ. eigenvalues --   -0.52117  -0.52005  -0.51687  -0.51584  -0.51560
 Alpha  occ. eigenvalues --   -0.51380  -0.51246  -0.51005  -0.50751  -0.50384
 Alpha  occ. eigenvalues --   -0.50306  -0.50253  -0.49974  -0.49897  -0.49481
 Alpha  occ. eigenvalues --   -0.49326  -0.49168  -0.48951  -0.48736  -0.48585
 Alpha  occ. eigenvalues --   -0.48358  -0.48193  -0.48016  -0.47828  -0.47691
 Alpha  occ. eigenvalues --   -0.47358  -0.47267  -0.47165  -0.46950  -0.46857
 Alpha  occ. eigenvalues --   -0.46796  -0.46724  -0.46603  -0.46353  -0.46240
 Alpha  occ. eigenvalues --   -0.45737  -0.45684  -0.45607  -0.45445  -0.45060
 Alpha  occ. eigenvalues --   -0.44797  -0.44588  -0.44442  -0.44281  -0.43995
 Alpha  occ. eigenvalues --   -0.43794  -0.43743  -0.43554  -0.43476  -0.43104
 Alpha  occ. eigenvalues --   -0.43073  -0.42750  -0.42261  -0.42039  -0.41871
 Alpha  occ. eigenvalues --   -0.41702  -0.41328  -0.41244  -0.40898  -0.40859
 Alpha  occ. eigenvalues --   -0.40260  -0.39981  -0.39502  -0.39124  -0.39048
 Alpha  occ. eigenvalues --   -0.38838  -0.38590  -0.38501  -0.38394  -0.38012
 Alpha  occ. eigenvalues --   -0.37809  -0.37388  -0.37058  -0.36914  -0.36462
 Alpha  occ. eigenvalues --   -0.36388  -0.35992  -0.35610  -0.33753  -0.33104
 Alpha  occ. eigenvalues --   -0.32508  -0.32087  -0.31936  -0.31863  -0.26278
 Alpha  occ. eigenvalues --   -0.23039
 Alpha virt. eigenvalues --   -0.06901   0.00643   0.02434   0.04322   0.04855
 Alpha virt. eigenvalues --    0.06269   0.07127   0.07708   0.08249   0.09392
 Alpha virt. eigenvalues --    0.10008   0.10846   0.11260   0.12073   0.12348

 Mulliken charges:
               1
     1  Mg   0.984725
     2  C   -0.042292
     3  C   -0.059567
     4  C   -0.080774
     5  C   -0.131601
     6  N   -0.324034
     7  C   -0.006762
     8  C   -0.050749
     9  C   -0.118871
    10  C    0.054481
    11  C    0.015011
    12  C    0.041779
    13  C   -0.003855
    14  C    0.199047
    15  O   -0.270125
    16  O   -0.375859
    17  N   -0.450754
    18  C    0.139607
    19  C   -0.182386
    20  C   -0.063541
    21  C    0.208515
    22  C    0.075835
    23  C    0.030289
    24  O   -0.268747
    25  C    0.030385
    26  N   -0.390378
    27  C    0.022077
    28  C   -0.063132
    29  C   -0.124359
    30  C    0.153104
    31  C    0.031178
    32  C   -0.027188
    33  C   -0.048555
    34  N   -0.347714
    35  C    0.074553
    36  C   -0.170809
    37  C   -0.105804
    38  C    0.159115
    39  C    0.072541
    40  C    0.156027
    41  O   -0.217647
    42  C   -0.109383
    43  C    0.257604
    44  O   -0.199052
    45  O   -0.387825
    46  C    0.116288
    47  C    0.271190
    48  C   -0.140318
    49  C   -0.199074
    50  C    0.010785
    51  C    0.035118
    52  C   -0.034053
    53  C    0.023858
    54  C   -0.205599
    55  C    0.003931
    56  C    0.039822
    57  C   -0.048981
    58  C    0.026101
    59  C   -0.213094
    60  C    0.023544
    61  C   -0.023214
    62  C    0.020049
    63  C   -0.008029
    64  C   -0.234878
    65  C    0.024237
    66  C   -0.034132
    67  H   -0.001684
    68  H   -0.035073
    69  H   -0.030362
    70  H    0.051212
    71  H    0.038870
    72  H    0.053306
    73  H    0.048877
    74  H    0.036098
    75  H    0.035443
    76  H    0.047282
    77  H    0.051053
    78  H    0.056220
    79  H    0.018798
    80  H    0.059274
    81  H    0.059909
    82  H    0.072584
    83  H    0.064091
    84  H    0.045444
    85  H    0.045823
    86  H    0.031332
    87  H    0.052184
    88  H    0.028799
    89  H    0.047133
    90  H    0.038236
    91  H    0.028516
    92  H    0.043425
    93  H    0.050975
    94  H    0.034145
    95  H    0.055712
    96  H    0.039647
    97  H    0.066117
    98  H    0.077320
    99  H    0.081865
   100  H    0.056155
   101  H    0.067312
   102  H    0.035791
   103  H    0.051871
   104  H    0.015976
   105  H    0.036668
   106  H    0.036606
   107  H    0.049040
   108  H    0.011411
   109  H    0.033509
   110  H    0.030561
   111  H    0.026415
   112  H    0.014984
   113  H    0.018422
   114  H    0.022963
   115  H    0.032072
   116  H    0.028905
   117  H    0.023693
   118  H    0.010861
   119  H    0.019270
   120  H    0.017393
   121  H    0.004894
   122  H    0.009089
   123  H    0.016608
   124  H    0.018860
   125  H    0.030363
   126  H    0.016517
   127  H    0.032404
   128  H    0.013539
   129  H    0.003770
   130  H    0.022390
   131  H    0.026115
   132  H    0.017655
   133  H    0.002516
   134  H    0.033691
   135  H    0.014362
   136  H    0.037658
   137  H    0.029737
   138  H    0.036784
   139  H    0.031355
   140  H    0.031579
 Sum of Mulliken charges =  -0.00000

 Dipole moment (field-independent basis, Debye):
    X=              1.5130    Y=              1.7529    Z=              2.8556  Tot=              3.6764
 Quadrupole moment (field-independent basis, Debye-Ang):
   XX=           -358.8967   YY=           -422.9555   ZZ=           -408.1630
   XY=              6.5359   XZ=             21.2086   YZ=             27.6346

 Normal termination of Gaussian 16 at Wed Apr 27 15:05:41 2022.
