 Gaussian 16, Revision A.03,
 Gaussian 16:  ES64L-G16RevA.03 25-Dec-2016

 --------------------
 #p ZINDO=(nstates=5)
 --------------------

 ------------------------------
 step_1201_chromophore_23 ZINDO
 ------------------------------
 Symbolic Z-matrix:
 Charge =  0 Multiplicity = 1

                         Standard orientation:
 ---------------------------------------------------------------------
 Center     Atomic      Atomic             Coordinates (Angstroms)
 Number     Number       Type             X           Y           Z
 ---------------------------------------------------------------------
      1         12           0        4.667702    0.306591   -0.389198
      2          6           0        2.613438   -2.494522   -0.047444
      3          6           0        2.412397    1.581257   -2.672497
      4          6           0        6.290036    3.133037   -0.139743
      5          6           0        6.213591   -0.813918    2.501254
      6          7           0        2.794004   -0.290086   -1.263935
      7          6           0        2.226011   -1.529825   -1.057807
      8          6           0        1.169598   -1.846312   -2.094531
      9          6           0        1.195107   -0.595249   -3.020179
     10          6           0        2.271536    0.275668   -2.298035
     11          6           0        1.587852   -0.873141   -4.523007
     12          6           0       -0.215498   -2.076183   -1.479832
     13          6           0       -0.865169   -3.465718   -1.597140
     14          6           0       -2.165112   -3.646392   -2.358661
     15          8           0       -2.326534   -3.590729   -3.569809
     16          8           0       -3.323986   -3.636174   -1.566581
     17          7           0        4.432599    2.143829   -1.316188
     18          6           0        3.472012    2.416574   -2.232053
     19          6           0        3.816373    3.710501   -2.773445
     20          6           0        4.923071    4.222651   -2.072181
     21          6           0        5.270382    3.169955   -1.096127
     22          6           0        2.995603    4.475649   -3.822788
     23          6           0        5.581651    5.642689   -2.206197
     24          8           0        5.277390    6.350073   -3.206066
     25          6           0        6.500552    6.220630   -1.215705
     26          7           0        5.967066    1.062376    0.968715
     27          6           0        6.605165    2.236000    0.807027
     28          6           0        7.641881    2.543900    1.929846
     29          6           0        7.455202    1.229699    2.825716
     30          6           0        6.503724    0.467156    2.065124
     31          6           0        9.086804    2.637016    1.383154
     32          6           0        6.878212    1.480838    4.273434
     33          6           0        7.427047    0.426503    5.260595
     34          7           0        4.572099   -1.375263    0.935349
     35          6           0        5.310429   -1.712603    2.000510
     36          6           0        4.981755   -2.976562    2.513181
     37          6           0        3.831141   -3.315489    1.712243
     38          6           0        3.672614   -2.296365    0.832642
     39          6           0        5.534224   -3.860148    3.755455
     40          6           0        2.795592   -4.395262    1.587763
     41          8           0        2.657850   -5.456979    2.216405
     42          6           0        1.974844   -3.950642    0.336956
     43          6           0        2.156937   -5.047686   -0.648353
     44          8           0        2.935814   -5.011127   -1.538998
     45          8           0        1.125729   -5.944469   -0.433325
     46          6           0        1.172261   -7.159069   -1.289957
     47          6           0       -4.595515   -3.650725   -2.239418
     48          6           0       -5.582754   -3.065818   -1.301191
     49          6           0       -5.660093   -1.751536   -0.982324
     50          6           0       -4.669989   -0.619842   -1.488850
     51          6           0       -6.534904   -1.204343    0.095745
     52          6           0       -7.830715   -0.678290   -0.524836
     53          6           0       -9.114222   -1.446691   -0.052683
     54          6           0      -10.170292   -0.556232    0.587258
     55          6           0      -11.663556   -0.959652    0.265607
     56          6           0       -9.947524   -0.244925    2.129060
     57          6           0       -9.679722    1.236473    2.400817
     58          6           0       -8.776677    1.638988    3.557223
     59          6           0       -7.358789    2.127541    3.065379
     60          6           0       -6.280984    1.785442    4.110361
     61          6           0       -7.375499    3.661643    2.891136
     62          6           0       -6.262090    4.240112    1.948347
     63          6           0       -6.920336    5.093613    0.816210
     64          6           0       -7.603192    4.249227   -0.333754
     65          6           0       -6.629375    4.055335   -1.485754
     66          6           0       -8.964127    4.903513   -0.872571
     67          1           0        1.830036    1.973676   -3.508898
     68          1           0        7.042849    3.918910   -0.044216
     69          1           0        6.650954   -1.221776    3.414669
     70          1           0        1.533654   -2.675898   -2.700587
     71          1           0        0.257311   -0.045952   -2.941875
     72          1           0        1.118137   -1.737684   -4.992337
     73          1           0        2.656764   -0.952170   -4.719810
     74          1           0        1.133469   -0.010328   -5.011325
     75          1           0       -0.935579   -1.478714   -2.038676
     76          1           0       -0.343475   -1.670654   -0.476325
     77          1           0       -1.090666   -3.867859   -0.609121
     78          1           0       -0.157416   -4.212942   -1.956909
     79          1           0        2.205500    3.938600   -4.347804
     80          1           0        3.734731    4.717211   -4.585928
     81          1           0        2.551339    5.385541   -3.416922
     82          1           0        7.471563    5.750407   -1.370166
     83          1           0        5.993226    6.271886   -0.252771
     84          1           0        6.666323    7.270060   -1.461123
     85          1           0        7.359429    3.398988    2.543083
     86          1           0        8.333677    0.627930    3.060428
     87          1           0        9.655809    1.801212    1.789836
     88          1           0        9.416288    3.577781    1.824299
     89          1           0        9.176111    2.882666    0.325569
     90          1           0        5.796696    1.500216    4.136146
     91          1           0        7.077733    2.473836    4.676339
     92          1           0        8.307999   -0.129470    4.940976
     93          1           0        6.624699   -0.242719    5.569925
     94          1           0        7.721300    0.985905    6.148204
     95          1           0        5.479715   -3.384176    4.734361
     96          1           0        6.582934   -4.010887    3.499360
     97          1           0        5.012693   -4.815469    3.694709
     98          1           0        0.904386   -3.882343    0.536099
     99          1           0        1.859777   -7.173339   -2.135140
    100          1           0        0.169289   -7.477410   -1.574444
    101          1           0        1.427225   -7.822449   -0.462806
    102          1           0       -4.848007   -4.682082   -2.487363
    103          1           0       -4.601534   -3.011218   -3.122259
    104          1           0       -6.199122   -3.711865   -0.675439
    105          1           0       -5.086816    0.384557   -1.563246
    106          1           0       -4.183961   -0.894417   -2.424502
    107          1           0       -3.886458   -0.486184   -0.742246
    108          1           0       -6.049579   -0.324332    0.518954
    109          1           0       -6.684426   -1.882330    0.936109
    110          1           0       -7.650026   -0.930283   -1.569394
    111          1           0       -7.955795    0.400601   -0.435353
    112          1           0       -8.910085   -2.234697    0.672797
    113          1           0       -9.448175   -1.973801   -0.947084
    114          1           0      -10.088035    0.371875    0.021696
    115          1           0      -12.242567   -0.553824    1.095511
    116          1           0      -11.812824   -2.021152    0.065601
    117          1           0      -11.932341   -0.510393   -0.690181
    118          1           0       -9.113013   -0.786509    2.573586
    119          1           0      -10.818991   -0.556690    2.704157
    120          1           0      -10.574695    1.853133    2.470154
    121          1           0       -9.187588    1.561154    1.484216
    122          1           0       -8.655347    0.791490    4.231667
    123          1           0       -9.316847    2.390284    4.133205
    124          1           0       -7.098409    1.699317    2.096579
    125          1           0       -6.652878    1.326349    5.026371
    126          1           0       -5.795670    2.670672    4.520313
    127          1           0       -5.546394    1.245136    3.512812
    128          1           0       -7.388098    4.140176    3.869734
    129          1           0       -8.371203    3.921208    2.531531
    130          1           0       -5.635564    3.444481    1.545827
    131          1           0       -5.725591    4.885902    2.642951
    132          1           0       -6.267201    5.912735    0.515327
    133          1           0       -7.729696    5.695316    1.231315
    134          1           0       -7.973731    3.279605   -0.001234
    135          1           0       -6.706530    2.994269   -1.723739
    136          1           0       -5.603900    4.258223   -1.177342
    137          1           0       -7.007085    4.540972   -2.385569
    138          1           0       -9.294803    4.453245   -1.808607
    139          1           0       -8.819601    5.976442   -1.005005
    140          1           0       -9.710257    4.779393   -0.088761
 ---------------------------------------------------------------------

 SCF Done:  E(RZINDO/S) =  -474.491825795     A.U. after   20 cycles

 Excitation energies and oscillator strengths:

 Excited State   1:      Singlet-A      1.2869 eV  963.44 nm  f=0.6252  <S**2>=0.000
     175 ->178         0.18113
     176 ->177         0.66511
 This state for optimization and/or second-order correction.
 Total Energy, E(CIS/TDA) =  -474.444533234
 Copying the excited state density for this state as the 1-particle RhoCI density.

 Excited State   2:      Singlet-A      1.9732 eV  628.33 nm  f=0.0416  <S**2>=0.000
     175 ->177         0.54383
     176 ->178        -0.42152

 Excited State   3:      Singlet-A      2.9667 eV  417.92 nm  f=0.0113  <S**2>=0.000
     167 ->179        -0.10133
     167 ->181        -0.12368
     168 ->177         0.16689
     168 ->179         0.24376
     168 ->181         0.26344
     168 ->186         0.13672
     169 ->177         0.16555
     169 ->179         0.21817
     169 ->181         0.25204
     169 ->186         0.12179
     170 ->179        -0.10158
     170 ->181        -0.12054

 Excited State   4:      Singlet-A      2.9970 eV  413.69 nm  f=0.3704  <S**2>=0.000
     175 ->177         0.25077
     176 ->178         0.40214
     176 ->179         0.44737

 Excited State   5:      Singlet-A      3.0417 eV  407.61 nm  f=0.0940  <S**2>=0.000
     168 ->179         0.10478
     170 ->177        -0.23517
     170 ->178         0.15259
     170 ->179         0.30564
     170 ->181        -0.18651
     170 ->186         0.15792
     175 ->177         0.11254
     176 ->178         0.14773
     176 ->180         0.35258

 The electronic state is 1-A.
 Alpha  occ. eigenvalues --   -1.88914  -1.84489  -1.83952  -1.74385  -1.73612
 Alpha  occ. eigenvalues --   -1.72829  -1.65549  -1.60150  -1.57442  -1.56306
 Alpha  occ. eigenvalues --   -1.54403  -1.51484  -1.50532  -1.49994  -1.48564
 Alpha  occ. eigenvalues --   -1.44671  -1.44043  -1.40687  -1.38689  -1.37855
 Alpha  occ. eigenvalues --   -1.35925  -1.33157  -1.31006  -1.30330  -1.28918
 Alpha  occ. eigenvalues --   -1.27934  -1.27460  -1.23699  -1.21334  -1.18755
 Alpha  occ. eigenvalues --   -1.17436  -1.16520  -1.15041  -1.13431  -1.13235
 Alpha  occ. eigenvalues --   -1.12612  -1.09870  -1.09473  -1.06304  -1.03416
 Alpha  occ. eigenvalues --   -1.02870  -1.02026  -0.99250  -0.98886  -0.98000
 Alpha  occ. eigenvalues --   -0.96843  -0.95241  -0.94972  -0.92860  -0.92286
 Alpha  occ. eigenvalues --   -0.91401  -0.90359  -0.89195  -0.88661  -0.86368
 Alpha  occ. eigenvalues --   -0.86214  -0.83999  -0.82556  -0.81741  -0.80179
 Alpha  occ. eigenvalues --   -0.79805  -0.79093  -0.77653  -0.76925  -0.76690
 Alpha  occ. eigenvalues --   -0.76313  -0.75169  -0.74719  -0.74253  -0.74049
 Alpha  occ. eigenvalues --   -0.73136  -0.72669  -0.72381  -0.71232  -0.71049
 Alpha  occ. eigenvalues --   -0.70856  -0.69431  -0.69063  -0.67883  -0.67713
 Alpha  occ. eigenvalues --   -0.67047  -0.66652  -0.66625  -0.66228  -0.65859
 Alpha  occ. eigenvalues --   -0.65674  -0.64248  -0.63912  -0.63817  -0.63549
 Alpha  occ. eigenvalues --   -0.63468  -0.63354  -0.62647  -0.62308  -0.62232
 Alpha  occ. eigenvalues --   -0.61182  -0.60918  -0.60724  -0.60193  -0.59680
 Alpha  occ. eigenvalues --   -0.59408  -0.59301  -0.58869  -0.58226  -0.57842
 Alpha  occ. eigenvalues --   -0.57603  -0.57469  -0.57179  -0.56801  -0.56455
 Alpha  occ. eigenvalues --   -0.56334  -0.56298  -0.55622  -0.55356  -0.54972
 Alpha  occ. eigenvalues --   -0.54835  -0.54603  -0.54154  -0.53742  -0.53381
 Alpha  occ. eigenvalues --   -0.52933  -0.52799  -0.52525  -0.52331  -0.51762
 Alpha  occ. eigenvalues --   -0.51423  -0.51181  -0.50994  -0.50627  -0.50587
 Alpha  occ. eigenvalues --   -0.50392  -0.49938  -0.49790  -0.49518  -0.49065
 Alpha  occ. eigenvalues --   -0.48915  -0.48514  -0.48192  -0.48030  -0.47756
 Alpha  occ. eigenvalues --   -0.47348  -0.47158  -0.46862  -0.46471  -0.46385
 Alpha  occ. eigenvalues --   -0.46107  -0.45715  -0.45499  -0.45311  -0.45102
 Alpha  occ. eigenvalues --   -0.44704  -0.44473  -0.44224  -0.44155  -0.44048
 Alpha  occ. eigenvalues --   -0.43350  -0.42807  -0.42615  -0.42377  -0.42141
 Alpha  occ. eigenvalues --   -0.41922  -0.41751  -0.41036  -0.39585  -0.38939
 Alpha  occ. eigenvalues --   -0.38714  -0.37049  -0.35719  -0.35506  -0.35243
 Alpha  occ. eigenvalues --   -0.33569  -0.33020  -0.32409  -0.31897  -0.27018
 Alpha  occ. eigenvalues --   -0.22012
 Alpha virt. eigenvalues --   -0.08586  -0.02091  -0.00691   0.00871   0.00971
 Alpha virt. eigenvalues --    0.01220   0.02942   0.03256   0.04443   0.04549
 Alpha virt. eigenvalues --    0.05946   0.06639   0.06884   0.08058   0.08434

 Mulliken charges:
               1
     1  Mg   0.430812
     2  C   -0.062498
     3  C   -0.077591
     4  C   -0.082989
     5  C   -0.078324
     6  N   -0.250767
     7  C    0.099669
     8  C    0.009591
     9  C   -0.009606
    10  C    0.157284
    11  C   -0.051483
    12  C   -0.014934
    13  C    0.009488
    14  C    0.461339
    15  O   -0.513661
    16  O   -0.277548
    17  N   -0.316795
    18  C    0.112117
    19  C    0.041632
    20  C   -0.055663
    21  C    0.135987
    22  C   -0.043328
    23  C    0.326174
    24  O   -0.537601
    25  C   -0.024365
    26  N   -0.273316
    27  C    0.140793
    28  C   -0.005588
    29  C   -0.009468
    30  C    0.131727
    31  C   -0.056893
    32  C   -0.032291
    33  C   -0.055307
    34  N   -0.323360
    35  C    0.112669
    36  C   -0.014720
    37  C   -0.063025
    38  C    0.134513
    39  C   -0.043498
    40  C    0.328464
    41  O   -0.520634
    42  C    0.048751
    43  C    0.498381
    44  O   -0.505062
    45  O   -0.274452
    46  C    0.062685
    47  C    0.118911
    48  C   -0.097380
    49  C    0.005138
    50  C   -0.048367
    51  C   -0.018136
    52  C   -0.036054
    53  C   -0.030042
    54  C   -0.016845
    55  C   -0.064068
    56  C   -0.028594
    57  C   -0.039348
    58  C   -0.034599
    59  C   -0.013074
    60  C   -0.063423
    61  C   -0.038062
    62  C   -0.035280
    63  C   -0.033872
    64  C   -0.015726
    65  C   -0.058761
    66  C   -0.063039
    67  H    0.034625
    68  H    0.015566
    69  H    0.019967
    70  H    0.046097
    71  H    0.035596
    72  H    0.026773
    73  H    0.032242
    74  H    0.015641
    75  H    0.019593
    76  H    0.030702
    77  H    0.025461
    78  H    0.043836
    79  H    0.018980
    80  H    0.038066
    81  H    0.039492
    82  H    0.052430
    83  H    0.044335
    84  H    0.030177
    85  H    0.039636
    86  H    0.038187
    87  H    0.036362
    88  H    0.009920
    89  H    0.033588
    90  H    0.024290
    91  H    0.015178
    92  H    0.029359
    93  H    0.023988
    94  H    0.010676
    95  H    0.035919
    96  H    0.023408
    97  H    0.041282
    98  H    0.056146
    99  H    0.063058
   100  H    0.035225
   101  H    0.039835
   102  H    0.039879
   103  H    0.053546
   104  H    0.029561
   105  H    0.024414
   106  H    0.023887
   107  H    0.024013
   108  H    0.010966
   109  H    0.024872
   110  H    0.021008
   111  H    0.027267
   112  H    0.017920
   113  H    0.015666
   114  H    0.014861
   115  H    0.025825
   116  H    0.022682
   117  H    0.014683
   118  H    0.019828
   119  H    0.017727
   120  H    0.016243
   121  H    0.011790
   122  H    0.013553
   123  H    0.019879
   124  H    0.027738
   125  H    0.026264
   126  H    0.012326
   127  H    0.019805
   128  H    0.017305
   129  H    0.007894
   130  H    0.029075
   131  H    0.018565
   132  H    0.021102
   133  H    0.007440
   134  H    0.024423
   135  H    0.006738
   136  H    0.026190
   137  H    0.026885
   138  H    0.023255
   139  H    0.017892
   140  H    0.014707
 Sum of Mulliken charges =  -0.00000

 Dipole moment (field-independent basis, Debye):
    X=              1.4800    Y=              3.4755    Z=              3.6897  Tot=              5.2804
 N-N= 4.501938597578D+03 E-N= 0.000000000000D+00  KE=-9.677927231630D+03
 Leave Link  601 at Wed Apr 27 15:18:22 2022, MaxMem=  6710886400 cpu:               0.8 elap:               0.1
 (Enter /sw/apps/gaussian-16.0/g16/l9999.exe)
 1\1\GINC-BP1-COMPUTE147\SP\RZINDO CIS\STO-3G\C55H74Mg1N4O6\OF15641\27-
 Apr-2022\0\\#p ZINDO=(nstates=5)\\step_1201_chromophore_23 ZINDO\\0,1\
 Mg,0,-9.485,41.177,42.429\C,0,-8.555,38.054,41.178\C,0,-7.117,42.617,4
 0.369\C,0,-10.863,44.05,43.157\C,0,-12.279,39.545,43.666\N,0,-8.04,40.
 517,40.977\C,0,-7.766,39.187,40.736\C,0,-6.45,39.004,40.011\C,0,-5.919
 ,40.46,39.867\C,0,-7.091,41.26,40.519\C,0,-4.546,40.754,40.587\C,0,-6.
 612,38.316,38.651\C,0,-5.977,36.932,38.432\C,0,-4.891,36.739,37.39\O,0

 Normal termination of Gaussian 16 at Wed Apr 27 15:18:22 2022.
