 Gaussian 16, Revision A.03,
 Gaussian 16:  ES64L-G16RevA.03 25-Dec-2016

 ------------------------------
 #p blyp/Def2SVP td=(nstates=5)
 ------------------------------

 -------------------------------------------------
 step_401_chromophore_2 TDDFT with blyp functional
 -------------------------------------------------
 Symbolic Z-matrix:
 Charge =  0 Multiplicity = 1

                         Standard orientation:
 ---------------------------------------------------------------------
 Center     Atomic      Atomic             Coordinates (Angstroms)
 Number     Number       Type             X           Y           Z
 ---------------------------------------------------------------------
      1         12           0        4.755585    1.366878   -0.576789
      2          6           0        4.836331   -2.168083   -0.021996
      3          6           0        2.085882    0.928543   -2.653457
      4          6           0        4.088030    4.647280   -0.205085
      5          6           0        7.309781    1.638953    2.027051
      6          7           0        3.615653   -0.443418   -1.371579
      7          6           0        3.826136   -1.759620   -1.007458
      8          6           0        2.766729   -2.681968   -1.735370
      9          6           0        2.086100   -1.696844   -2.774569
     10          6           0        2.644073   -0.278538   -2.287641
     11          6           0        2.370019   -1.901531   -4.256892
     12          6           0        1.789947   -3.214000   -0.724069
     13          6           0        1.696838   -4.744486   -0.457104
     14          6           0        0.251168   -5.362041   -0.562026
     15          8           0       -0.092080   -6.359358   -1.196471
     16          8           0       -0.535445   -4.803434    0.440362
     17          7           0        3.415482    2.670016   -1.466709
     18          6           0        2.375956    2.253949   -2.288201
     19          6           0        1.720101    3.430616   -2.794201
     20          6           0        2.246494    4.583484   -2.097285
     21          6           0        3.319001    4.001249   -1.169175
     22          6           0        0.436121    3.389792   -3.740562
     23          6           0        1.890292    6.019125   -2.278554
     24          8           0        0.953119    6.419639   -2.957041
     25          6           0        2.624605    7.163128   -1.470141
     26          7           0        5.606847    2.832213    0.726447
     27          6           0        5.114379    4.118298    0.651986
     28          6           0        5.837853    5.073522    1.651975
     29          6           0        6.686972    4.078326    2.471411
     30          6           0        6.555146    2.739686    1.694249
     31          6           0        6.815292    6.033685    0.871940
     32          6           0        6.144980    3.943361    3.982871
     33          6           0        7.001816    4.770020    4.980266
     34          7           0        5.928371    0.017170    0.764153
     35          6           0        6.965152    0.303400    1.634835
     36          6           0        7.576465   -0.934929    1.972426
     37          6           0        6.752675   -1.941320    1.427776
     38          6           0        5.789890   -1.283611    0.637810
     39          6           0        8.825428   -1.077437    2.746590
     40          6           0        6.518700   -3.370943    1.345980
     41          8           0        7.157497   -4.280454    1.776785
     42          6           0        5.270109   -3.593765    0.497546
     43          6           0        5.660240   -4.491281   -0.570466
     44          8           0        5.193958   -5.617032   -0.733752
     45          8           0        6.524731   -3.892187   -1.484715
     46          6           0        6.775682   -4.505609   -2.752052
     47          6           0       -1.855513   -5.389923    0.635540
     48          6           0       -2.750257   -4.278468    0.867348
     49          6           0       -3.635587   -3.800171    1.786850
     50          6           0       -4.081637   -4.694372    2.984170
     51          6           0       -4.045783   -2.386800    1.594549
     52          6           0       -5.148105   -2.110598    0.609794
     53          6           0       -6.256690   -1.257445    1.231998
     54          6           0       -6.480133    0.004688    0.410702
     55          6           0       -6.704219    1.296277    1.283231
     56          6           0       -7.601495   -0.136733   -0.605386
     57          6           0       -9.011099   -0.312059   -0.046610
     58          6           0       -9.853251    0.933614   -0.264769
     59          6           0      -11.104382    0.657355   -1.156608
     60          6           0      -10.795406    1.108773   -2.581752
     61          6           0      -12.410668    1.424730   -0.555439
     62          6           0      -13.425610    0.470034    0.206031
     63          6           0      -14.066172    1.128502    1.397997
     64          6           0      -15.565143    1.085257    1.423538
     65          6           0      -16.215265    1.993449    0.333945
     66          6           0      -16.141088    1.388097    2.806767
     67          1           0        1.194992    0.835912   -3.277716
     68          1           0        4.084958    5.727619   -0.047354
     69          1           0        8.103512    1.857533    2.743429
     70          1           0        3.365907   -3.504564   -2.125733
     71          1           0        1.000906   -1.715179   -2.673811
     72          1           0        3.093906   -2.674909   -4.513234
     73          1           0        2.603232   -0.904834   -4.632499
     74          1           0        1.424443   -2.255185   -4.668058
     75          1           0        0.772747   -2.881690   -0.932082
     76          1           0        2.015855   -2.713770    0.218291
     77          1           0        2.095200   -5.029928    0.516823
     78          1           0        2.241549   -5.147536   -1.311999
     79          1           0       -0.300870    4.018003   -3.239786
     80          1           0        0.095733    2.386660   -3.998335
     81          1           0        0.574237    3.806045   -4.738587
     82          1           0        2.441828    8.123157   -1.953566
     83          1           0        3.713726    7.108658   -1.482303
     84          1           0        2.167623    7.130452   -0.481110
     85          1           0        5.159054    5.686067    2.244753
     86          1           0        7.734766    4.376731    2.494782
     87          1           0        6.062247    6.512067    0.244857
     88          1           0        7.454493    5.522535    0.152434
     89          1           0        7.394084    6.781488    1.413609
     90          1           0        6.209285    2.872761    4.180583
     91          1           0        5.108695    4.275610    4.030305
     92          1           0        7.707274    5.389742    4.427766
     93          1           0        7.579515    4.090691    5.607866
     94          1           0        6.266296    5.363282    5.523637
     95          1           0        9.485046   -0.329174    2.308535
     96          1           0        9.288487   -2.064054    2.732648
     97          1           0        8.657118   -0.894049    3.807474
     98          1           0        4.427396   -4.092922    0.976437
     99          1           0        6.122992   -4.114307   -3.533002
    100          1           0        6.598011   -5.578528   -2.680810
    101          1           0        7.771477   -4.243822   -3.111497
    102          1           0       -1.924373   -5.998301    1.537393
    103          1           0       -2.404535   -5.912683   -0.146546
    104          1           0       -2.325235   -3.470287    0.272147
    105          1           0       -5.111574   -5.049359    2.936131
    106          1           0       -4.002168   -3.996909    3.817613
    107          1           0       -3.506085   -5.600514    3.171471
    108          1           0       -3.171565   -1.831065    1.253536
    109          1           0       -4.283145   -2.089806    2.615500
    110          1           0       -5.552554   -3.091660    0.357951
    111          1           0       -4.809188   -1.729767   -0.353448
    112          1           0       -6.163122   -1.074637    2.303316
    113          1           0       -7.121610   -1.919845    1.202278
    114          1           0       -5.596540    0.193772   -0.197193
    115          1           0       -6.811231    1.119794    2.354410
    116          1           0       -7.500004    1.839628    0.773894
    117          1           0       -5.781976    1.851060    1.109937
    118          1           0       -7.449512   -0.945916   -1.319991
    119          1           0       -7.596246    0.808374   -1.148280
    120          1           0       -8.814108   -0.506251    1.007615
    121          1           0       -9.403444   -1.195863   -0.548239
    122          1           0       -9.220253    1.790230   -0.497190
    123          1           0      -10.169671    1.199967    0.743491
    124          1           0      -11.334706   -0.400180   -1.286134
    125          1           0      -11.449409    0.547527   -3.249122
    126          1           0       -9.766906    0.969841   -2.914903
    127          1           0      -11.062295    2.162045   -2.674278
    128          1           0      -12.958977    1.693369   -1.458341
    129          1           0      -12.089500    2.361404   -0.101786
    130          1           0      -12.889487   -0.376182    0.635949
    131          1           0      -14.140434    0.130040   -0.542496
    132          1           0      -13.709367    2.102107    1.733921
    133          1           0      -13.792531    0.417728    2.178039
    134          1           0      -15.927184    0.083418    1.192811
    135          1           0      -16.496344    2.920592    0.832296
    136          1           0      -17.059546    1.571932   -0.210845
    137          1           0      -15.365071    2.274359   -0.288144
    138          1           0      -17.153504    1.792898    2.824328
    139          1           0      -15.366530    1.996495    3.273308
    140          1           0      -16.122802    0.562598    3.518965
 ---------------------------------------------------------------------

 SCF Done:  E(RB-LYP) =  -3007.32516036     A.U. after   21 cycles

 Excitation energies and oscillator strengths:

 Excited State   1:      Singlet-A      1.7017 eV  728.58 nm  f=0.0005  <S**2>=0.000
     244 -> 247        0.69585
     245 -> 247        0.12016
 This state for optimization and/or second-order correction.
 Total Energy, E(TD-HF/TD-DFT) =  -3007.26262343
 Copying the excited state density for this state as the 1-particle RhoCI density.

 Excited State   2:      Singlet-A      1.8250 eV  679.35 nm  f=0.2295  <S**2>=0.000
     242 -> 247        0.10989
     243 -> 247        0.30950
     245 -> 248        0.18020
     246 -> 247        0.60614
     246 <- 247       -0.12545

 Excited State   3:      Singlet-A      1.8464 eV  671.49 nm  f=0.0572  <S**2>=0.000
     243 -> 247        0.63113
     246 -> 247       -0.28083

 Excited State   4:      Singlet-A      1.9012 eV  652.13 nm  f=0.0241  <S**2>=0.000
     242 -> 247        0.67083
     245 -> 247       -0.14438
     246 -> 247       -0.14614

 Excited State   5:      Singlet-A      2.0314 eV  610.33 nm  f=0.0722  <S**2>=0.000
     242 -> 247        0.16585
     244 -> 247       -0.10651
     245 -> 247        0.61026
     246 -> 248       -0.24933

 The electronic state is 1-A.
 Alpha  occ. eigenvalues --  -46.29204 -18.82524 -18.81861 -18.77266 -18.76974
 Alpha  occ. eigenvalues --  -18.75924 -18.75559 -14.04579 -14.04250 -14.02284
 Alpha  occ. eigenvalues --  -14.01048 -10.04504 -10.04240 -10.00076  -9.99772
 Alpha  occ. eigenvalues --   -9.98422  -9.97878  -9.97709  -9.97437  -9.97436
 Alpha  occ. eigenvalues --   -9.97343  -9.96872  -9.96642  -9.96006  -9.95937
 Alpha  occ. eigenvalues --   -9.95053  -9.95012  -9.95000  -9.94949  -9.94849
 Alpha  occ. eigenvalues --   -9.94588  -9.94013  -9.93950  -9.93812  -9.93754
 Alpha  occ. eigenvalues --   -9.93735  -9.93612  -9.93595  -9.93136  -9.93112
 Alpha  occ. eigenvalues --   -9.93039  -9.92917  -9.92767  -9.92579  -9.92533
 Alpha  occ. eigenvalues --   -9.92492  -9.92383  -9.91976  -9.91960  -9.91433
 Alpha  occ. eigenvalues --   -9.91332  -9.91299  -9.91288  -9.91273  -9.90952
 Alpha  occ. eigenvalues --   -9.90933  -9.90844  -9.90627  -9.90579  -9.90576
 Alpha  occ. eigenvalues --   -9.90439  -9.90417  -9.90334  -9.90324  -9.90233
 Alpha  occ. eigenvalues --   -9.90027  -2.93565  -1.73998  -1.73446  -1.73274
 Alpha  occ. eigenvalues --   -0.97574  -0.97475  -0.93395  -0.91379  -0.89845
 Alpha  occ. eigenvalues --   -0.89711  -0.87201  -0.86253  -0.86210  -0.85233
 Alpha  occ. eigenvalues --   -0.75687  -0.74053  -0.73385  -0.72961  -0.72684
 Alpha  occ. eigenvalues --   -0.72551  -0.72336  -0.71471  -0.70814  -0.70673
 Alpha  occ. eigenvalues --   -0.69673  -0.69057  -0.68639  -0.68091  -0.67461
 Alpha  occ. eigenvalues --   -0.66695  -0.66041  -0.65537  -0.65016  -0.64257
 Alpha  occ. eigenvalues --   -0.64072  -0.62840  -0.62472  -0.61840  -0.61209
 Alpha  occ. eigenvalues --   -0.60886  -0.60439  -0.59975  -0.59377  -0.58919
 Alpha  occ. eigenvalues --   -0.58488  -0.57367  -0.56993  -0.55477  -0.54445
 Alpha  occ. eigenvalues --   -0.54397  -0.53590  -0.53499  -0.52609  -0.52152
 Alpha  occ. eigenvalues --   -0.52077  -0.51812  -0.51686  -0.50827  -0.50598
 Alpha  occ. eigenvalues --   -0.49955  -0.49525  -0.48486  -0.47498  -0.47281
 Alpha  occ. eigenvalues --   -0.46504  -0.46325  -0.46103  -0.46002  -0.44842
 Alpha  occ. eigenvalues --   -0.43916  -0.43518  -0.43275  -0.43159  -0.42641
 Alpha  occ. eigenvalues --   -0.42278  -0.42045  -0.41791  -0.41675  -0.41603
 Alpha  occ. eigenvalues --   -0.41005  -0.40941  -0.40754  -0.40372  -0.40168
 Alpha  occ. eigenvalues --   -0.39855  -0.39652  -0.39394  -0.39355  -0.39227
 Alpha  occ. eigenvalues --   -0.38986  -0.38935  -0.38868  -0.38854  -0.38227
 Alpha  occ. eigenvalues --   -0.38044  -0.37975  -0.37930  -0.37785  -0.37497
 Alpha  occ. eigenvalues --   -0.37401  -0.37261  -0.37143  -0.36781  -0.36538
 Alpha  occ. eigenvalues --   -0.36419  -0.36188  -0.36053  -0.35913  -0.35743
 Alpha  occ. eigenvalues --   -0.35392  -0.35251  -0.35192  -0.35028  -0.34886
 Alpha  occ. eigenvalues --   -0.34635  -0.34588  -0.34564  -0.34201  -0.33983
 Alpha  occ. eigenvalues --   -0.33834  -0.33798  -0.33758  -0.33659  -0.33491
 Alpha  occ. eigenvalues --   -0.33430  -0.33207  -0.32999  -0.32832  -0.32756
 Alpha  occ. eigenvalues --   -0.32101  -0.32014  -0.31904  -0.31732  -0.31576
 Alpha  occ. eigenvalues --   -0.31538  -0.31319  -0.31158  -0.31108  -0.31051
 Alpha  occ. eigenvalues --   -0.30903  -0.30684  -0.30504  -0.30470  -0.30141
 Alpha  occ. eigenvalues --   -0.30015  -0.29645  -0.29317  -0.29158  -0.28946
 Alpha  occ. eigenvalues --   -0.28591  -0.28376  -0.28296  -0.28021  -0.27720
 Alpha  occ. eigenvalues --   -0.27703  -0.27229  -0.26811  -0.26531  -0.26446
 Alpha  occ. eigenvalues --   -0.26055  -0.25953  -0.25652  -0.25199  -0.25039
 Alpha  occ. eigenvalues --   -0.24848  -0.24841  -0.24547  -0.24350  -0.23584
 Alpha  occ. eigenvalues --   -0.23190  -0.22974  -0.22161  -0.21916  -0.21037
 Alpha  occ. eigenvalues --   -0.20645  -0.19254  -0.19125  -0.18531  -0.18113
 Alpha  occ. eigenvalues --   -0.16760
 Alpha virt. eigenvalues --   -0.12353  -0.07964  -0.06574  -0.04944  -0.03861
 Alpha virt. eigenvalues --   -0.03629  -0.03205  -0.02097  -0.01605  -0.00424
 Alpha virt. eigenvalues --    0.00793   0.00903   0.02018   0.02210   0.02880

 Mulliken charges:
               1
     1  Mg   0.684146
     2  C    0.005283
     3  C   -0.035101
     4  C   -0.039494
     5  C   -0.061683
     6  N   -0.195787
     7  C   -0.077755
     8  C    0.023368
     9  C   -0.016571
    10  C    0.001995
    11  C    0.142325
    12  C    0.106047
    13  C    0.131621
    14  C    0.071401
    15  O   -0.180008
    16  O   -0.282466
    17  N   -0.322358
    18  C    0.150781
    19  C   -0.117711
    20  C    0.046086
    21  C    0.170009
    22  C    0.156516
    23  C   -0.098993
    24  O   -0.165681
    25  C    0.107437
    26  N   -0.214791
    27  C   -0.021836
    28  C    0.003391
    29  C    0.024865
    30  C    0.008506
    31  C    0.116216
    32  C    0.066871
    33  C    0.073004
    34  N   -0.199126
    35  C    0.094276
    36  C   -0.180879
    37  C    0.096250
    38  C    0.031721
    39  C    0.172532
    40  C   -0.072686
    41  O   -0.089078
    42  C    0.114050
    43  C    0.090855
    44  O   -0.172064
    45  O   -0.288242
    46  C    0.211640
    47  C    0.403359
    48  C   -0.158062
    49  C   -0.189399
    50  C    0.122508
    51  C    0.162418
    52  C    0.103835
    53  C    0.126030
    54  C   -0.079417
    55  C    0.121788
    56  C    0.050642
    57  C    0.080618
    58  C    0.118381
    59  C   -0.068888
    60  C    0.097208
    61  C    0.082667
    62  C    0.092863
    63  C    0.109495
    64  C   -0.112614
    65  C    0.114273
    66  C    0.115757
    67  H   -0.063277
    68  H   -0.066557
    69  H   -0.054185
    70  H   -0.011619
    71  H   -0.017405
    72  H   -0.000297
    73  H   -0.004235
    74  H   -0.011159
    75  H   -0.016756
    76  H   -0.018640
    77  H    0.033928
    78  H    0.002029
    79  H    0.022427
    80  H   -0.020811
    81  H    0.000700
    82  H   -0.011519
    83  H    0.006337
    84  H    0.019623
    85  H   -0.018086
    86  H   -0.026343
    87  H   -0.032749
    88  H   -0.009431
    89  H    0.008261
    90  H   -0.017380
    91  H   -0.016191
    92  H   -0.006861
    93  H    0.002073
    94  H    0.000271
    95  H   -0.000606
    96  H    0.002391
    97  H    0.000175
    98  H   -0.006080
    99  H   -0.002135
   100  H    0.023208
   101  H    0.012815
   102  H   -0.030219
   103  H    0.013568
   104  H   -0.049487
   105  H   -0.000996
   106  H   -0.007442
   107  H   -0.011293
   108  H   -0.025450
   109  H   -0.043655
   110  H   -0.042569
   111  H   -0.026617
   112  H   -0.039806
   113  H   -0.036028
   114  H   -0.040355
   115  H   -0.005434
   116  H   -0.028795
   117  H   -0.021743
   118  H   -0.046167
   119  H   -0.040253
   120  H   -0.033021
   121  H   -0.031226
   122  H   -0.019419
   123  H   -0.052032
   124  H   -0.034829
   125  H   -0.024055
   126  H   -0.012868
   127  H   -0.019973
   128  H   -0.041231
   129  H   -0.022226
   130  H   -0.023166
   131  H   -0.017728
   132  H   -0.023427
   133  H   -0.046891
   134  H   -0.044118
   135  H   -0.029712
   136  H   -0.002457
   137  H   -0.026304
   138  H   -0.010701
   139  H   -0.035166
   140  H   -0.030964
 Sum of Mulliken charges =  -0.00000

 Dipole moment (field-independent basis, Debye):
    X=              1.2133    Y=              4.4871    Z=              1.1107  Tot=              4.7791
 Quadrupole moment (field-independent basis, Debye-Ang):
   XX=           -387.5054   YY=           -456.1927   ZZ=           -396.6747
   XY=             54.8897   XZ=             -9.5070   YZ=             22.6530

 Normal termination of Gaussian 16 at Fri Apr 29 17:36:48 2022.
