 Gaussian 16, Revision A.03,
 Gaussian 16:  ES64L-G16RevA.03 25-Dec-2016

 -----------------------------------
 #p cam-b3lyp/Def2SVP td=(nstates=5)
 -----------------------------------

 ------------------------------------------------------
 step_401_chromophore_2 TDDFT with cam-b3lyp functional
 ------------------------------------------------------
 Symbolic Z-matrix:
 Charge =  0 Multiplicity = 1

                         Standard orientation:
 ---------------------------------------------------------------------
 Center     Atomic      Atomic             Coordinates (Angstroms)
 Number     Number       Type             X           Y           Z
 ---------------------------------------------------------------------
      1         12           0        4.755585    1.366878   -0.576789
      2          6           0        4.836331   -2.168083   -0.021996
      3          6           0        2.085882    0.928543   -2.653457
      4          6           0        4.088030    4.647280   -0.205085
      5          6           0        7.309781    1.638953    2.027051
      6          7           0        3.615653   -0.443418   -1.371579
      7          6           0        3.826136   -1.759620   -1.007458
      8          6           0        2.766729   -2.681968   -1.735370
      9          6           0        2.086100   -1.696844   -2.774569
     10          6           0        2.644073   -0.278538   -2.287641
     11          6           0        2.370019   -1.901531   -4.256892
     12          6           0        1.789947   -3.214000   -0.724069
     13          6           0        1.696838   -4.744486   -0.457104
     14          6           0        0.251168   -5.362041   -0.562026
     15          8           0       -0.092080   -6.359358   -1.196471
     16          8           0       -0.535445   -4.803434    0.440362
     17          7           0        3.415482    2.670016   -1.466709
     18          6           0        2.375956    2.253949   -2.288201
     19          6           0        1.720101    3.430616   -2.794201
     20          6           0        2.246494    4.583484   -2.097285
     21          6           0        3.319001    4.001249   -1.169175
     22          6           0        0.436121    3.389792   -3.740562
     23          6           0        1.890292    6.019125   -2.278554
     24          8           0        0.953119    6.419639   -2.957041
     25          6           0        2.624605    7.163128   -1.470141
     26          7           0        5.606847    2.832213    0.726447
     27          6           0        5.114379    4.118298    0.651986
     28          6           0        5.837853    5.073522    1.651975
     29          6           0        6.686972    4.078326    2.471411
     30          6           0        6.555146    2.739686    1.694249
     31          6           0        6.815292    6.033685    0.871940
     32          6           0        6.144980    3.943361    3.982871
     33          6           0        7.001816    4.770020    4.980266
     34          7           0        5.928371    0.017170    0.764153
     35          6           0        6.965152    0.303400    1.634835
     36          6           0        7.576465   -0.934929    1.972426
     37          6           0        6.752675   -1.941320    1.427776
     38          6           0        5.789890   -1.283611    0.637810
     39          6           0        8.825428   -1.077437    2.746590
     40          6           0        6.518700   -3.370943    1.345980
     41          8           0        7.157497   -4.280454    1.776785
     42          6           0        5.270109   -3.593765    0.497546
     43          6           0        5.660240   -4.491281   -0.570466
     44          8           0        5.193958   -5.617032   -0.733752
     45          8           0        6.524731   -3.892187   -1.484715
     46          6           0        6.775682   -4.505609   -2.752052
     47          6           0       -1.855513   -5.389923    0.635540
     48          6           0       -2.750257   -4.278468    0.867348
     49          6           0       -3.635587   -3.800171    1.786850
     50          6           0       -4.081637   -4.694372    2.984170
     51          6           0       -4.045783   -2.386800    1.594549
     52          6           0       -5.148105   -2.110598    0.609794
     53          6           0       -6.256690   -1.257445    1.231998
     54          6           0       -6.480133    0.004688    0.410702
     55          6           0       -6.704219    1.296277    1.283231
     56          6           0       -7.601495   -0.136733   -0.605386
     57          6           0       -9.011099   -0.312059   -0.046610
     58          6           0       -9.853251    0.933614   -0.264769
     59          6           0      -11.104382    0.657355   -1.156608
     60          6           0      -10.795406    1.108773   -2.581752
     61          6           0      -12.410668    1.424730   -0.555439
     62          6           0      -13.425610    0.470034    0.206031
     63          6           0      -14.066172    1.128502    1.397997
     64          6           0      -15.565143    1.085257    1.423538
     65          6           0      -16.215265    1.993449    0.333945
     66          6           0      -16.141088    1.388097    2.806767
     67          1           0        1.194992    0.835912   -3.277716
     68          1           0        4.084958    5.727619   -0.047354
     69          1           0        8.103512    1.857533    2.743429
     70          1           0        3.365907   -3.504564   -2.125733
     71          1           0        1.000906   -1.715179   -2.673811
     72          1           0        3.093906   -2.674909   -4.513234
     73          1           0        2.603232   -0.904834   -4.632499
     74          1           0        1.424443   -2.255185   -4.668058
     75          1           0        0.772747   -2.881690   -0.932082
     76          1           0        2.015855   -2.713770    0.218291
     77          1           0        2.095200   -5.029928    0.516823
     78          1           0        2.241549   -5.147536   -1.311999
     79          1           0       -0.300870    4.018003   -3.239786
     80          1           0        0.095733    2.386660   -3.998335
     81          1           0        0.574237    3.806045   -4.738587
     82          1           0        2.441828    8.123157   -1.953566
     83          1           0        3.713726    7.108658   -1.482303
     84          1           0        2.167623    7.130452   -0.481110
     85          1           0        5.159054    5.686067    2.244753
     86          1           0        7.734766    4.376731    2.494782
     87          1           0        6.062247    6.512067    0.244857
     88          1           0        7.454493    5.522535    0.152434
     89          1           0        7.394084    6.781488    1.413609
     90          1           0        6.209285    2.872761    4.180583
     91          1           0        5.108695    4.275610    4.030305
     92          1           0        7.707274    5.389742    4.427766
     93          1           0        7.579515    4.090691    5.607866
     94          1           0        6.266296    5.363282    5.523637
     95          1           0        9.485046   -0.329174    2.308535
     96          1           0        9.288487   -2.064054    2.732648
     97          1           0        8.657118   -0.894049    3.807474
     98          1           0        4.427396   -4.092922    0.976437
     99          1           0        6.122992   -4.114307   -3.533002
    100          1           0        6.598011   -5.578528   -2.680810
    101          1           0        7.771477   -4.243822   -3.111497
    102          1           0       -1.924373   -5.998301    1.537393
    103          1           0       -2.404535   -5.912683   -0.146546
    104          1           0       -2.325235   -3.470287    0.272147
    105          1           0       -5.111574   -5.049359    2.936131
    106          1           0       -4.002168   -3.996909    3.817613
    107          1           0       -3.506085   -5.600514    3.171471
    108          1           0       -3.171565   -1.831065    1.253536
    109          1           0       -4.283145   -2.089806    2.615500
    110          1           0       -5.552554   -3.091660    0.357951
    111          1           0       -4.809188   -1.729767   -0.353448
    112          1           0       -6.163122   -1.074637    2.303316
    113          1           0       -7.121610   -1.919845    1.202278
    114          1           0       -5.596540    0.193772   -0.197193
    115          1           0       -6.811231    1.119794    2.354410
    116          1           0       -7.500004    1.839628    0.773894
    117          1           0       -5.781976    1.851060    1.109937
    118          1           0       -7.449512   -0.945916   -1.319991
    119          1           0       -7.596246    0.808374   -1.148280
    120          1           0       -8.814108   -0.506251    1.007615
    121          1           0       -9.403444   -1.195863   -0.548239
    122          1           0       -9.220253    1.790230   -0.497190
    123          1           0      -10.169671    1.199967    0.743491
    124          1           0      -11.334706   -0.400180   -1.286134
    125          1           0      -11.449409    0.547527   -3.249122
    126          1           0       -9.766906    0.969841   -2.914903
    127          1           0      -11.062295    2.162045   -2.674278
    128          1           0      -12.958977    1.693369   -1.458341
    129          1           0      -12.089500    2.361404   -0.101786
    130          1           0      -12.889487   -0.376182    0.635949
    131          1           0      -14.140434    0.130040   -0.542496
    132          1           0      -13.709367    2.102107    1.733921
    133          1           0      -13.792531    0.417728    2.178039
    134          1           0      -15.927184    0.083418    1.192811
    135          1           0      -16.496344    2.920592    0.832296
    136          1           0      -17.059546    1.571932   -0.210845
    137          1           0      -15.365071    2.274359   -0.288144
    138          1           0      -17.153504    1.792898    2.824328
    139          1           0      -15.366530    1.996495    3.273308
    140          1           0      -16.122802    0.562598    3.518965
 ---------------------------------------------------------------------

 SCF Done:  E(RCAM-B3LYP) =  -3007.11299654     A.U. after   19 cycles

 Excitation energies and oscillator strengths:

 Excited State   1:      Singlet-A      1.7247 eV  718.89 nm  f=0.3849  <S**2>=0.000
     245 -> 248       -0.18633
     246 -> 247        0.68353
     245 <- 248       -0.10829
 This state for optimization and/or second-order correction.
 Total Energy, E(TD-HF/TD-DFT) =  -3007.04961679
 Copying the excited state density for this state as the 1-particle RhoCI density.

 Excited State   2:      Singlet-A      2.2378 eV  554.04 nm  f=0.1043  <S**2>=0.000
     245 -> 247        0.63193
     246 -> 248        0.30362

 Excited State   3:      Singlet-A      3.2521 eV  381.25 nm  f=0.0002  <S**2>=0.000
     242 -> 247       -0.12832
     243 -> 247        0.67415
     246 -> 248       -0.10058

 Excited State   4:      Singlet-A      3.3726 eV  367.62 nm  f=0.0097  <S**2>=0.000
     241 -> 247        0.36197
     241 -> 248        0.13186
     241 -> 249       -0.24871
     241 -> 251        0.14571
     242 -> 247        0.44666
     242 -> 249       -0.12612
     246 -> 248       -0.14253

 Excited State   5:      Singlet-A      3.4387 eV  360.56 nm  f=0.0516  <S**2>=0.000
     241 -> 247        0.43120
     241 -> 249       -0.17461
     242 -> 247       -0.42038
     246 -> 248        0.26352

 The electronic state is 1-A.
 Alpha  occ. eigenvalues --  -46.90903 -19.25367 -19.24695 -19.20232 -19.20101
 Alpha  occ. eigenvalues --  -19.19059 -19.18924 -14.43610 -14.43099 -14.40912
 Alpha  occ. eigenvalues --  -14.39298 -10.39843 -10.39700 -10.35462 -10.34899
 Alpha  occ. eigenvalues --  -10.32950 -10.32711 -10.32261 -10.31991 -10.31576
 Alpha  occ. eigenvalues --  -10.31379 -10.31234 -10.31110 -10.30447 -10.30059
 Alpha  occ. eigenvalues --  -10.29961 -10.29179 -10.29081 -10.29052 -10.28901
 Alpha  occ. eigenvalues --  -10.28891 -10.28440 -10.28053 -10.28004 -10.27934
 Alpha  occ. eigenvalues --  -10.27926 -10.27683 -10.27519 -10.27009 -10.26920
 Alpha  occ. eigenvalues --  -10.26915 -10.26829 -10.26718 -10.26531 -10.26254
 Alpha  occ. eigenvalues --  -10.26212 -10.26068 -10.25858 -10.25765 -10.25110
 Alpha  occ. eigenvalues --  -10.25103 -10.25024 -10.24941 -10.24938 -10.24819
 Alpha  occ. eigenvalues --  -10.24557 -10.24483 -10.24273 -10.24272 -10.24239
 Alpha  occ. eigenvalues --  -10.24173 -10.24035 -10.24008 -10.23927 -10.23867
 Alpha  occ. eigenvalues --  -10.23687  -3.19153  -1.94067  -1.93600  -1.93443
 Alpha  occ. eigenvalues --   -1.16065  -1.15858  -1.11804  -1.09933  -1.07764
 Alpha  occ. eigenvalues --   -1.07539  -1.04792  -1.03968  -1.03831  -1.02874
 Alpha  occ. eigenvalues --   -0.92767  -0.90969  -0.90220  -0.89776  -0.89500
 Alpha  occ. eigenvalues --   -0.89316  -0.88966  -0.88048  -0.87389  -0.87059
 Alpha  occ. eigenvalues --   -0.86095  -0.85735  -0.84974  -0.84272  -0.83645
 Alpha  occ. eigenvalues --   -0.82748  -0.81968  -0.81437  -0.80938  -0.80354
 Alpha  occ. eigenvalues --   -0.79910  -0.78452  -0.77917  -0.77506  -0.76734
 Alpha  occ. eigenvalues --   -0.76295  -0.75802  -0.75341  -0.74702  -0.74178
 Alpha  occ. eigenvalues --   -0.73482  -0.72284  -0.71922  -0.70330  -0.69079
 Alpha  occ. eigenvalues --   -0.68885  -0.68195  -0.68101  -0.66954  -0.66313
 Alpha  occ. eigenvalues --   -0.66161  -0.66150  -0.65790  -0.64805  -0.64356
 Alpha  occ. eigenvalues --   -0.63591  -0.63544  -0.62385  -0.61287  -0.60963
 Alpha  occ. eigenvalues --   -0.60089  -0.59819  -0.59709  -0.59460  -0.58305
 Alpha  occ. eigenvalues --   -0.57386  -0.56816  -0.56564  -0.56347  -0.55740
 Alpha  occ. eigenvalues --   -0.55555  -0.54928  -0.54636  -0.54516  -0.54452
 Alpha  occ. eigenvalues --   -0.54243  -0.53699  -0.53433  -0.53131  -0.52895
 Alpha  occ. eigenvalues --   -0.52718  -0.52316  -0.52200  -0.51922  -0.51878
 Alpha  occ. eigenvalues --   -0.51805  -0.51543  -0.51411  -0.51276  -0.50484
 Alpha  occ. eigenvalues --   -0.50418  -0.50379  -0.50270  -0.50107  -0.49966
 Alpha  occ. eigenvalues --   -0.49794  -0.49688  -0.49580  -0.49201  -0.48958
 Alpha  occ. eigenvalues --   -0.48854  -0.48549  -0.48201  -0.48062  -0.47834
 Alpha  occ. eigenvalues --   -0.47739  -0.47464  -0.47322  -0.46880  -0.46802
 Alpha  occ. eigenvalues --   -0.46616  -0.46550  -0.46411  -0.45947  -0.45909
 Alpha  occ. eigenvalues --   -0.45672  -0.45612  -0.45461  -0.45414  -0.45348
 Alpha  occ. eigenvalues --   -0.45074  -0.44856  -0.44695  -0.44418  -0.44291
 Alpha  occ. eigenvalues --   -0.43804  -0.43583  -0.43476  -0.43373  -0.43019
 Alpha  occ. eigenvalues --   -0.42948  -0.42942  -0.42791  -0.42583  -0.42525
 Alpha  occ. eigenvalues --   -0.42464  -0.42069  -0.41833  -0.41780  -0.41452
 Alpha  occ. eigenvalues --   -0.41385  -0.41230  -0.40854  -0.40523  -0.40123
 Alpha  occ. eigenvalues --   -0.39716  -0.39406  -0.39288  -0.39011  -0.38672
 Alpha  occ. eigenvalues --   -0.38475  -0.38118  -0.37968  -0.37451  -0.37247
 Alpha  occ. eigenvalues --   -0.37162  -0.36954  -0.36455  -0.36161  -0.35852
 Alpha  occ. eigenvalues --   -0.35790  -0.35452  -0.34993  -0.34893  -0.34469
 Alpha  occ. eigenvalues --   -0.33934  -0.33794  -0.33550  -0.32005  -0.31206
 Alpha  occ. eigenvalues --   -0.30957  -0.30607  -0.29736  -0.28685  -0.24902
 Alpha  occ. eigenvalues --   -0.22081
 Alpha virt. eigenvalues --   -0.09531  -0.02912  -0.00168   0.01353   0.02077
 Alpha virt. eigenvalues --    0.04021   0.04442   0.04863   0.05831   0.06360
 Alpha virt. eigenvalues --    0.07547   0.07931   0.08218   0.08400   0.09301

 Mulliken charges:
               1
     1  Mg   0.813102
     2  C   -0.014148
     3  C   -0.051067
     4  C   -0.066108
     5  C   -0.068695
     6  N   -0.264148
     7  C   -0.037166
     8  C   -0.026594
     9  C   -0.059303
    10  C    0.015204
    11  C    0.084430
    12  C    0.053129
    13  C    0.064963
    14  C    0.152383
    15  O   -0.222149
    16  O   -0.346909
    17  N   -0.411201
    18  C    0.158757
    19  C   -0.116537
    20  C   -0.026604
    21  C    0.201193
    22  C    0.106716
    23  C   -0.024308
    24  O   -0.204908
    25  C    0.031246
    26  N   -0.287882
    27  C    0.006832
    28  C   -0.055668
    29  C   -0.030730
    30  C    0.025993
    31  C    0.063151
    32  C    0.015665
    33  C    0.012119
    34  N   -0.286617
    35  C    0.097485
    36  C   -0.177109
    37  C    0.014256
    38  C    0.068655
    39  C    0.117694
    40  C    0.025012
    41  O   -0.128609
    42  C    0.036813
    43  C    0.180486
    44  O   -0.211640
    45  O   -0.350264
    46  C    0.175329
    47  C    0.362571
    48  C   -0.171063
    49  C   -0.210084
    50  C    0.068804
    51  C    0.099762
    52  C    0.049850
    53  C    0.063950
    54  C   -0.135520
    55  C    0.063278
    56  C    0.003590
    57  C    0.023558
    58  C    0.059717
    59  C   -0.121027
    60  C    0.041791
    61  C    0.026832
    62  C    0.041362
    63  C    0.044533
    64  C   -0.167409
    65  C    0.054449
    66  C    0.052740
    67  H   -0.028443
    68  H   -0.032282
    69  H   -0.018370
    70  H    0.018959
    71  H    0.017221
    72  H    0.024171
    73  H    0.021264
    74  H    0.013659
    75  H    0.012974
    76  H    0.015756
    77  H    0.062845
    78  H    0.034242
    79  H    0.049891
    80  H    0.005369
    81  H    0.029162
    82  H    0.024258
    83  H    0.031548
    84  H    0.046739
    85  H    0.016744
    86  H    0.008218
    87  H   -0.012450
    88  H    0.016630
    89  H    0.033608
    90  H    0.013158
    91  H    0.010442
    92  H    0.013751
    93  H    0.025040
    94  H    0.022779
    95  H    0.022013
    96  H    0.030250
    97  H    0.025091
    98  H    0.035173
    99  H    0.015805
   100  H    0.049148
   101  H    0.035411
   102  H   -0.002508
   103  H    0.045189
   104  H   -0.021410
   105  H    0.022148
   106  H    0.014248
   107  H    0.013360
   108  H    0.006673
   109  H   -0.013911
   110  H   -0.010517
   111  H    0.001117
   112  H   -0.009628
   113  H   -0.006117
   114  H   -0.007356
   115  H    0.018078
   116  H   -0.006716
   117  H    0.003792
   118  H   -0.016239
   119  H   -0.012591
   120  H   -0.004138
   121  H   -0.001756
   122  H    0.005802
   123  H   -0.020489
   124  H   -0.003444
   125  H    0.000529
   126  H    0.009994
   127  H    0.003676
   128  H   -0.011836
   129  H    0.005170
   130  H    0.004892
   131  H    0.010129
   132  H    0.004863
   133  H   -0.014897
   134  H   -0.011825
   135  H   -0.004413
   136  H    0.021819
   137  H   -0.004497
   138  H    0.014952
   139  H   -0.010974
   140  H   -0.004878
 Sum of Mulliken charges =  -0.00000

 Dipole moment (field-independent basis, Debye):
    X=              0.8930    Y=              5.2159    Z=              0.7436  Tot=              5.3438
 Quadrupole moment (field-independent basis, Debye-Ang):
   XX=           -390.0103   YY=           -453.3741   ZZ=           -395.1924
   XY=             57.9896   XZ=            -10.9914   YZ=             22.5776

 Normal termination of Gaussian 16 at Fri Apr 29 16:38:12 2022.
