 Gaussian 16, Revision A.03,
 Gaussian 16:  ES64L-G16RevA.03 25-Dec-2016

 ---------------------------------
 #p PBE1PBE/Def2SVP td=(nstates=5)
 ---------------------------------

 ----------------------------------------------------
 step_401_chromophore_2 TDDFT with PBE1PBE functional
 ----------------------------------------------------
 Symbolic Z-matrix:
 Charge =  0 Multiplicity = 1

                         Standard orientation:
 ---------------------------------------------------------------------
 Center     Atomic      Atomic             Coordinates (Angstroms)
 Number     Number       Type             X           Y           Z
 ---------------------------------------------------------------------
      1         12           0        4.755585    1.366878   -0.576789
      2          6           0        4.836331   -2.168083   -0.021996
      3          6           0        2.085882    0.928543   -2.653457
      4          6           0        4.088030    4.647280   -0.205085
      5          6           0        7.309781    1.638953    2.027051
      6          7           0        3.615653   -0.443418   -1.371579
      7          6           0        3.826136   -1.759620   -1.007458
      8          6           0        2.766729   -2.681968   -1.735370
      9          6           0        2.086100   -1.696844   -2.774569
     10          6           0        2.644073   -0.278538   -2.287641
     11          6           0        2.370019   -1.901531   -4.256892
     12          6           0        1.789947   -3.214000   -0.724069
     13          6           0        1.696838   -4.744486   -0.457104
     14          6           0        0.251168   -5.362041   -0.562026
     15          8           0       -0.092080   -6.359358   -1.196471
     16          8           0       -0.535445   -4.803434    0.440362
     17          7           0        3.415482    2.670016   -1.466709
     18          6           0        2.375956    2.253949   -2.288201
     19          6           0        1.720101    3.430616   -2.794201
     20          6           0        2.246494    4.583484   -2.097285
     21          6           0        3.319001    4.001249   -1.169175
     22          6           0        0.436121    3.389792   -3.740562
     23          6           0        1.890292    6.019125   -2.278554
     24          8           0        0.953119    6.419639   -2.957041
     25          6           0        2.624605    7.163128   -1.470141
     26          7           0        5.606847    2.832213    0.726447
     27          6           0        5.114379    4.118298    0.651986
     28          6           0        5.837853    5.073522    1.651975
     29          6           0        6.686972    4.078326    2.471411
     30          6           0        6.555146    2.739686    1.694249
     31          6           0        6.815292    6.033685    0.871940
     32          6           0        6.144980    3.943361    3.982871
     33          6           0        7.001816    4.770020    4.980266
     34          7           0        5.928371    0.017170    0.764153
     35          6           0        6.965152    0.303400    1.634835
     36          6           0        7.576465   -0.934929    1.972426
     37          6           0        6.752675   -1.941320    1.427776
     38          6           0        5.789890   -1.283611    0.637810
     39          6           0        8.825428   -1.077437    2.746590
     40          6           0        6.518700   -3.370943    1.345980
     41          8           0        7.157497   -4.280454    1.776785
     42          6           0        5.270109   -3.593765    0.497546
     43          6           0        5.660240   -4.491281   -0.570466
     44          8           0        5.193958   -5.617032   -0.733752
     45          8           0        6.524731   -3.892187   -1.484715
     46          6           0        6.775682   -4.505609   -2.752052
     47          6           0       -1.855513   -5.389923    0.635540
     48          6           0       -2.750257   -4.278468    0.867348
     49          6           0       -3.635587   -3.800171    1.786850
     50          6           0       -4.081637   -4.694372    2.984170
     51          6           0       -4.045783   -2.386800    1.594549
     52          6           0       -5.148105   -2.110598    0.609794
     53          6           0       -6.256690   -1.257445    1.231998
     54          6           0       -6.480133    0.004688    0.410702
     55          6           0       -6.704219    1.296277    1.283231
     56          6           0       -7.601495   -0.136733   -0.605386
     57          6           0       -9.011099   -0.312059   -0.046610
     58          6           0       -9.853251    0.933614   -0.264769
     59          6           0      -11.104382    0.657355   -1.156608
     60          6           0      -10.795406    1.108773   -2.581752
     61          6           0      -12.410668    1.424730   -0.555439
     62          6           0      -13.425610    0.470034    0.206031
     63          6           0      -14.066172    1.128502    1.397997
     64          6           0      -15.565143    1.085257    1.423538
     65          6           0      -16.215265    1.993449    0.333945
     66          6           0      -16.141088    1.388097    2.806767
     67          1           0        1.194992    0.835912   -3.277716
     68          1           0        4.084958    5.727619   -0.047354
     69          1           0        8.103512    1.857533    2.743429
     70          1           0        3.365907   -3.504564   -2.125733
     71          1           0        1.000906   -1.715179   -2.673811
     72          1           0        3.093906   -2.674909   -4.513234
     73          1           0        2.603232   -0.904834   -4.632499
     74          1           0        1.424443   -2.255185   -4.668058
     75          1           0        0.772747   -2.881690   -0.932082
     76          1           0        2.015855   -2.713770    0.218291
     77          1           0        2.095200   -5.029928    0.516823
     78          1           0        2.241549   -5.147536   -1.311999
     79          1           0       -0.300870    4.018003   -3.239786
     80          1           0        0.095733    2.386660   -3.998335
     81          1           0        0.574237    3.806045   -4.738587
     82          1           0        2.441828    8.123157   -1.953566
     83          1           0        3.713726    7.108658   -1.482303
     84          1           0        2.167623    7.130452   -0.481110
     85          1           0        5.159054    5.686067    2.244753
     86          1           0        7.734766    4.376731    2.494782
     87          1           0        6.062247    6.512067    0.244857
     88          1           0        7.454493    5.522535    0.152434
     89          1           0        7.394084    6.781488    1.413609
     90          1           0        6.209285    2.872761    4.180583
     91          1           0        5.108695    4.275610    4.030305
     92          1           0        7.707274    5.389742    4.427766
     93          1           0        7.579515    4.090691    5.607866
     94          1           0        6.266296    5.363282    5.523637
     95          1           0        9.485046   -0.329174    2.308535
     96          1           0        9.288487   -2.064054    2.732648
     97          1           0        8.657118   -0.894049    3.807474
     98          1           0        4.427396   -4.092922    0.976437
     99          1           0        6.122992   -4.114307   -3.533002
    100          1           0        6.598011   -5.578528   -2.680810
    101          1           0        7.771477   -4.243822   -3.111497
    102          1           0       -1.924373   -5.998301    1.537393
    103          1           0       -2.404535   -5.912683   -0.146546
    104          1           0       -2.325235   -3.470287    0.272147
    105          1           0       -5.111574   -5.049359    2.936131
    106          1           0       -4.002168   -3.996909    3.817613
    107          1           0       -3.506085   -5.600514    3.171471
    108          1           0       -3.171565   -1.831065    1.253536
    109          1           0       -4.283145   -2.089806    2.615500
    110          1           0       -5.552554   -3.091660    0.357951
    111          1           0       -4.809188   -1.729767   -0.353448
    112          1           0       -6.163122   -1.074637    2.303316
    113          1           0       -7.121610   -1.919845    1.202278
    114          1           0       -5.596540    0.193772   -0.197193
    115          1           0       -6.811231    1.119794    2.354410
    116          1           0       -7.500004    1.839628    0.773894
    117          1           0       -5.781976    1.851060    1.109937
    118          1           0       -7.449512   -0.945916   -1.319991
    119          1           0       -7.596246    0.808374   -1.148280
    120          1           0       -8.814108   -0.506251    1.007615
    121          1           0       -9.403444   -1.195863   -0.548239
    122          1           0       -9.220253    1.790230   -0.497190
    123          1           0      -10.169671    1.199967    0.743491
    124          1           0      -11.334706   -0.400180   -1.286134
    125          1           0      -11.449409    0.547527   -3.249122
    126          1           0       -9.766906    0.969841   -2.914903
    127          1           0      -11.062295    2.162045   -2.674278
    128          1           0      -12.958977    1.693369   -1.458341
    129          1           0      -12.089500    2.361404   -0.101786
    130          1           0      -12.889487   -0.376182    0.635949
    131          1           0      -14.140434    0.130040   -0.542496
    132          1           0      -13.709367    2.102107    1.733921
    133          1           0      -13.792531    0.417728    2.178039
    134          1           0      -15.927184    0.083418    1.192811
    135          1           0      -16.496344    2.920592    0.832296
    136          1           0      -17.059546    1.571932   -0.210845
    137          1           0      -15.365071    2.274359   -0.288144
    138          1           0      -17.153504    1.792898    2.824328
    139          1           0      -15.366530    1.996495    3.273308
    140          1           0      -16.122802    0.562598    3.518965
 ---------------------------------------------------------------------

 SCF Done:  E(RPBE1PBE) =  -3005.30294840     A.U. after   16 cycles

 Excitation energies and oscillator strengths:

 Excited State   1:      Singlet-A      1.8815 eV  658.98 nm  f=0.3705  <S**2>=0.000
     245 -> 248       -0.18235
     246 -> 247        0.68956
     246 <- 247       -0.10195
 This state for optimization and/or second-order correction.
 Total Energy, E(TD-HF/TD-DFT) =  -3005.23380593
 Copying the excited state density for this state as the 1-particle RhoCI density.

 Excited State   2:      Singlet-A      2.2470 eV  551.79 nm  f=0.1031  <S**2>=0.000
     245 -> 247        0.64340
     246 -> 248        0.27601

 Excited State   3:      Singlet-A      2.8285 eV  438.33 nm  f=0.0000  <S**2>=0.000
     242 -> 247        0.46193
     242 -> 249       -0.12107
     243 -> 247        0.48829

 Excited State   4:      Singlet-A      2.9044 eV  426.88 nm  f=0.0000  <S**2>=0.000
     242 -> 247        0.11753
     243 -> 247       -0.12526
     244 -> 247        0.68417

 Excited State   5:      Singlet-A      2.9175 eV  424.96 nm  f=0.0019  <S**2>=0.000
     242 -> 247        0.47631
     243 -> 247       -0.46983
     244 -> 247       -0.17572

 The electronic state is 1-A.
 Alpha  occ. eigenvalues --  -46.94276 -19.26113 -19.25354 -19.20560 -19.20365
 Alpha  occ. eigenvalues --  -19.19356 -19.19028 -14.43046 -14.42654 -14.40495
 Alpha  occ. eigenvalues --  -14.39036 -10.36958 -10.36731 -10.32508 -10.32120
 Alpha  occ. eigenvalues --  -10.30855 -10.30341 -10.29757 -10.29609 -10.28976
 Alpha  occ. eigenvalues --  -10.28792 -10.28777 -10.28751 -10.28333 -10.27902
 Alpha  occ. eigenvalues --  -10.27551 -10.26944 -10.26932 -10.26870 -10.26709
 Alpha  occ. eigenvalues --  -10.26552 -10.26055 -10.25844 -10.25592 -10.25581
 Alpha  occ. eigenvalues --  -10.25567 -10.25530 -10.25271 -10.24546 -10.24533
 Alpha  occ. eigenvalues --  -10.24415 -10.24406 -10.24331 -10.23947 -10.23604
 Alpha  occ. eigenvalues --  -10.23537 -10.23493 -10.23480 -10.23419 -10.22719
 Alpha  occ. eigenvalues --  -10.22711 -10.22702 -10.22636 -10.22567 -10.22480
 Alpha  occ. eigenvalues --  -10.22098 -10.21884 -10.21833 -10.21812 -10.21803
 Alpha  occ. eigenvalues --  -10.21701 -10.21398 -10.21384 -10.21372 -10.21301
 Alpha  occ. eigenvalues --  -10.21225  -3.16114  -1.88966  -1.88479  -1.88325
 Alpha  occ. eigenvalues --   -1.10830  -1.10710  -1.06662  -1.04569  -1.02609
 Alpha  occ. eigenvalues --   -1.02445  -0.99534  -0.98555  -0.98475  -0.97459
 Alpha  occ. eigenvalues --   -0.87149  -0.85096  -0.84435  -0.83891  -0.83779
 Alpha  occ. eigenvalues --   -0.83430  -0.83256  -0.82383  -0.81546  -0.81478
 Alpha  occ. eigenvalues --   -0.80341  -0.79901  -0.79236  -0.78575  -0.77873
 Alpha  occ. eigenvalues --   -0.76947  -0.76289  -0.75682  -0.75208  -0.74478
 Alpha  occ. eigenvalues --   -0.74090  -0.72763  -0.72267  -0.71733  -0.70993
 Alpha  occ. eigenvalues --   -0.70435  -0.70118  -0.69397  -0.68804  -0.68332
 Alpha  occ. eigenvalues --   -0.67985  -0.66744  -0.66265  -0.64620  -0.63575
 Alpha  occ. eigenvalues --   -0.63298  -0.62605  -0.62280  -0.61178  -0.60682
 Alpha  occ. eigenvalues --   -0.60601  -0.60358  -0.60353  -0.59381  -0.58897
 Alpha  occ. eigenvalues --   -0.58138  -0.57660  -0.56543  -0.55517  -0.55507
 Alpha  occ. eigenvalues --   -0.54447  -0.54420  -0.54252  -0.54039  -0.52981
 Alpha  occ. eigenvalues --   -0.51880  -0.51292  -0.51089  -0.50912  -0.50222
 Alpha  occ. eigenvalues --   -0.50104  -0.49342  -0.49185  -0.49033  -0.48943
 Alpha  occ. eigenvalues --   -0.48778  -0.48328  -0.48032  -0.47736  -0.47429
 Alpha  occ. eigenvalues --   -0.47268  -0.46970  -0.46620  -0.46514  -0.46283
 Alpha  occ. eigenvalues --   -0.46271  -0.46112  -0.46028  -0.45797  -0.45037
 Alpha  occ. eigenvalues --   -0.44974  -0.44942  -0.44856  -0.44714  -0.44645
 Alpha  occ. eigenvalues --   -0.44340  -0.44186  -0.44139  -0.43868  -0.43486
 Alpha  occ. eigenvalues --   -0.43388  -0.43250  -0.42793  -0.42685  -0.42503
 Alpha  occ. eigenvalues --   -0.42420  -0.42181  -0.41990  -0.41605  -0.41444
 Alpha  occ. eigenvalues --   -0.41329  -0.41251  -0.41025  -0.40597  -0.40553
 Alpha  occ. eigenvalues --   -0.40382  -0.40331  -0.40193  -0.40154  -0.40075
 Alpha  occ. eigenvalues --   -0.39645  -0.39618  -0.39464  -0.39100  -0.39015
 Alpha  occ. eigenvalues --   -0.38557  -0.38358  -0.38269  -0.38158  -0.37893
 Alpha  occ. eigenvalues --   -0.37752  -0.37656  -0.37548  -0.37409  -0.37327
 Alpha  occ. eigenvalues --   -0.37181  -0.36904  -0.36707  -0.36519  -0.36284
 Alpha  occ. eigenvalues --   -0.36138  -0.35992  -0.35569  -0.35434  -0.35041
 Alpha  occ. eigenvalues --   -0.34654  -0.34167  -0.34078  -0.33791  -0.33488
 Alpha  occ. eigenvalues --   -0.33471  -0.33009  -0.32876  -0.32364  -0.32247
 Alpha  occ. eigenvalues --   -0.32037  -0.32000  -0.31298  -0.31108  -0.30748
 Alpha  occ. eigenvalues --   -0.30642  -0.30263  -0.30073  -0.29712  -0.29690
 Alpha  occ. eigenvalues --   -0.29156  -0.28879  -0.28494  -0.27648  -0.26170
 Alpha  occ. eigenvalues --   -0.26120  -0.25561  -0.25514  -0.24012  -0.21854
 Alpha  occ. eigenvalues --   -0.19734
 Alpha virt. eigenvalues --   -0.11996  -0.06391  -0.04352  -0.02378  -0.01400
 Alpha virt. eigenvalues --   -0.00576  -0.00121   0.00671   0.01390   0.02554
 Alpha virt. eigenvalues --    0.03371   0.04013   0.04754   0.05030   0.05758

 Mulliken charges:
               1
     1  Mg   0.950365
     2  C   -0.015588
     3  C   -0.048264
     4  C   -0.061016
     5  C   -0.061746
     6  N   -0.366900
     7  C    0.033891
     8  C   -0.106398
     9  C   -0.127026
    10  C    0.049048
    11  C    0.028576
    12  C    0.013248
    13  C   -0.015271
    14  C    0.215576
    15  O   -0.254705
    16  O   -0.372735
    17  N   -0.523658
    18  C    0.176225
    19  C   -0.130719
    20  C   -0.078103
    21  C    0.228423
    22  C    0.049982
    23  C    0.025643
    24  O   -0.239701
    25  C   -0.049311
    26  N   -0.392777
    27  C    0.045310
    28  C   -0.137927
    29  C   -0.101579
    30  C    0.065522
    31  C    0.003853
    32  C   -0.040882
    33  C   -0.060376
    34  N   -0.412357
    35  C    0.125765
    36  C   -0.199261
    37  C   -0.042307
    38  C    0.129360
    39  C    0.066342
    40  C    0.123902
    41  O   -0.176193
    42  C   -0.080308
    43  C    0.275381
    44  O   -0.249943
    45  O   -0.380344
    46  C    0.123120
    47  C    0.313566
    48  C   -0.175711
    49  C   -0.256277
    50  C    0.010011
    51  C    0.031239
    52  C   -0.009819
    53  C    0.013613
    54  C   -0.225647
    55  C   -0.001668
    56  C   -0.053743
    57  C   -0.034070
    58  C    0.003846
    59  C   -0.205164
    60  C   -0.017963
    61  C   -0.029216
    62  C   -0.018719
    63  C   -0.019025
    64  C   -0.255748
    65  C   -0.008596
    66  C   -0.010023
    67  H    0.004131
    68  H    0.000537
    69  H    0.012482
    70  H    0.058313
    71  H    0.051950
    72  H    0.050552
    73  H    0.049848
    74  H    0.041150
    75  H    0.046107
    76  H    0.049456
    77  H    0.093065
    78  H    0.067621
    79  H    0.075847
    80  H    0.030598
    81  H    0.055710
    82  H    0.052201
    83  H    0.057168
    84  H    0.073712
    85  H    0.051198
    86  H    0.044343
    87  H    0.019872
    88  H    0.044787
    89  H    0.060828
    90  H    0.047464
    91  H    0.042842
    92  H    0.041114
    93  H    0.052312
    94  H    0.050407
    95  H    0.049612
    96  H    0.058419
    97  H    0.053898
    98  H    0.075184
    99  H    0.038143
   100  H    0.069229
   101  H    0.057370
   102  H    0.027533
   103  H    0.072769
   104  H    0.009391
   105  H    0.049691
   106  H    0.041534
   107  H    0.038855
   108  H    0.039844
   109  H    0.019138
   110  H    0.024328
   111  H    0.031323
   112  H    0.020775
   113  H    0.027042
   114  H    0.031209
   115  H    0.044038
   116  H    0.025856
   117  H    0.032933
   118  H    0.017182
   119  H    0.021927
   120  H    0.029754
   121  H    0.030229
   122  H    0.034265
   123  H    0.014234
   124  H    0.032458
   125  H    0.029060
   126  H    0.038655
   127  H    0.031811
   128  H    0.022155
   129  H    0.035150
   130  H    0.037398
   131  H    0.041481
   132  H    0.035327
   133  H    0.020876
   134  H    0.026983
   135  H    0.024123
   136  H    0.048368
   137  H    0.026775
   138  H    0.041855
   139  H    0.017613
   140  H    0.023574
 Sum of Mulliken charges =  -0.00000

 Dipole moment (field-independent basis, Debye):
    X=              1.1560    Y=              5.0533    Z=              0.9946  Tot=              5.2784
 Quadrupole moment (field-independent basis, Debye-Ang):
   XX=           -383.8220   YY=           -450.8740   ZZ=           -391.8936
   XY=             58.3972   XZ=             -9.2314   YZ=             23.6915

 Normal termination of Gaussian 16 at Fri Apr 29 16:56:03 2022.
