 Gaussian 16, Revision A.03,
 Gaussian 16:  ES64L-G16RevA.03 25-Dec-2016

 --------------------------------
 #p wB97XD/Def2SVP td=(nstates=5)
 --------------------------------

 ---------------------------------------------------
 step_401_chromophore_2 TDDFT with wB97XD functional
 ---------------------------------------------------
 Symbolic Z-matrix:
 Charge =  0 Multiplicity = 1

                         Standard orientation:
 ---------------------------------------------------------------------
 Center     Atomic      Atomic             Coordinates (Angstroms)
 Number     Number       Type             X           Y           Z
 ---------------------------------------------------------------------
      1         12           0        4.755585    1.366878   -0.576789
      2          6           0        4.836331   -2.168083   -0.021996
      3          6           0        2.085882    0.928543   -2.653457
      4          6           0        4.088030    4.647280   -0.205085
      5          6           0        7.309781    1.638953    2.027051
      6          7           0        3.615653   -0.443418   -1.371579
      7          6           0        3.826136   -1.759620   -1.007458
      8          6           0        2.766729   -2.681968   -1.735370
      9          6           0        2.086100   -1.696844   -2.774569
     10          6           0        2.644073   -0.278538   -2.287641
     11          6           0        2.370019   -1.901531   -4.256892
     12          6           0        1.789947   -3.214000   -0.724069
     13          6           0        1.696838   -4.744486   -0.457104
     14          6           0        0.251168   -5.362041   -0.562026
     15          8           0       -0.092080   -6.359358   -1.196471
     16          8           0       -0.535445   -4.803434    0.440362
     17          7           0        3.415482    2.670016   -1.466709
     18          6           0        2.375956    2.253949   -2.288201
     19          6           0        1.720101    3.430616   -2.794201
     20          6           0        2.246494    4.583484   -2.097285
     21          6           0        3.319001    4.001249   -1.169175
     22          6           0        0.436121    3.389792   -3.740562
     23          6           0        1.890292    6.019125   -2.278554
     24          8           0        0.953119    6.419639   -2.957041
     25          6           0        2.624605    7.163128   -1.470141
     26          7           0        5.606847    2.832213    0.726447
     27          6           0        5.114379    4.118298    0.651986
     28          6           0        5.837853    5.073522    1.651975
     29          6           0        6.686972    4.078326    2.471411
     30          6           0        6.555146    2.739686    1.694249
     31          6           0        6.815292    6.033685    0.871940
     32          6           0        6.144980    3.943361    3.982871
     33          6           0        7.001816    4.770020    4.980266
     34          7           0        5.928371    0.017170    0.764153
     35          6           0        6.965152    0.303400    1.634835
     36          6           0        7.576465   -0.934929    1.972426
     37          6           0        6.752675   -1.941320    1.427776
     38          6           0        5.789890   -1.283611    0.637810
     39          6           0        8.825428   -1.077437    2.746590
     40          6           0        6.518700   -3.370943    1.345980
     41          8           0        7.157497   -4.280454    1.776785
     42          6           0        5.270109   -3.593765    0.497546
     43          6           0        5.660240   -4.491281   -0.570466
     44          8           0        5.193958   -5.617032   -0.733752
     45          8           0        6.524731   -3.892187   -1.484715
     46          6           0        6.775682   -4.505609   -2.752052
     47          6           0       -1.855513   -5.389923    0.635540
     48          6           0       -2.750257   -4.278468    0.867348
     49          6           0       -3.635587   -3.800171    1.786850
     50          6           0       -4.081637   -4.694372    2.984170
     51          6           0       -4.045783   -2.386800    1.594549
     52          6           0       -5.148105   -2.110598    0.609794
     53          6           0       -6.256690   -1.257445    1.231998
     54          6           0       -6.480133    0.004688    0.410702
     55          6           0       -6.704219    1.296277    1.283231
     56          6           0       -7.601495   -0.136733   -0.605386
     57          6           0       -9.011099   -0.312059   -0.046610
     58          6           0       -9.853251    0.933614   -0.264769
     59          6           0      -11.104382    0.657355   -1.156608
     60          6           0      -10.795406    1.108773   -2.581752
     61          6           0      -12.410668    1.424730   -0.555439
     62          6           0      -13.425610    0.470034    0.206031
     63          6           0      -14.066172    1.128502    1.397997
     64          6           0      -15.565143    1.085257    1.423538
     65          6           0      -16.215265    1.993449    0.333945
     66          6           0      -16.141088    1.388097    2.806767
     67          1           0        1.194992    0.835912   -3.277716
     68          1           0        4.084958    5.727619   -0.047354
     69          1           0        8.103512    1.857533    2.743429
     70          1           0        3.365907   -3.504564   -2.125733
     71          1           0        1.000906   -1.715179   -2.673811
     72          1           0        3.093906   -2.674909   -4.513234
     73          1           0        2.603232   -0.904834   -4.632499
     74          1           0        1.424443   -2.255185   -4.668058
     75          1           0        0.772747   -2.881690   -0.932082
     76          1           0        2.015855   -2.713770    0.218291
     77          1           0        2.095200   -5.029928    0.516823
     78          1           0        2.241549   -5.147536   -1.311999
     79          1           0       -0.300870    4.018003   -3.239786
     80          1           0        0.095733    2.386660   -3.998335
     81          1           0        0.574237    3.806045   -4.738587
     82          1           0        2.441828    8.123157   -1.953566
     83          1           0        3.713726    7.108658   -1.482303
     84          1           0        2.167623    7.130452   -0.481110
     85          1           0        5.159054    5.686067    2.244753
     86          1           0        7.734766    4.376731    2.494782
     87          1           0        6.062247    6.512067    0.244857
     88          1           0        7.454493    5.522535    0.152434
     89          1           0        7.394084    6.781488    1.413609
     90          1           0        6.209285    2.872761    4.180583
     91          1           0        5.108695    4.275610    4.030305
     92          1           0        7.707274    5.389742    4.427766
     93          1           0        7.579515    4.090691    5.607866
     94          1           0        6.266296    5.363282    5.523637
     95          1           0        9.485046   -0.329174    2.308535
     96          1           0        9.288487   -2.064054    2.732648
     97          1           0        8.657118   -0.894049    3.807474
     98          1           0        4.427396   -4.092922    0.976437
     99          1           0        6.122992   -4.114307   -3.533002
    100          1           0        6.598011   -5.578528   -2.680810
    101          1           0        7.771477   -4.243822   -3.111497
    102          1           0       -1.924373   -5.998301    1.537393
    103          1           0       -2.404535   -5.912683   -0.146546
    104          1           0       -2.325235   -3.470287    0.272147
    105          1           0       -5.111574   -5.049359    2.936131
    106          1           0       -4.002168   -3.996909    3.817613
    107          1           0       -3.506085   -5.600514    3.171471
    108          1           0       -3.171565   -1.831065    1.253536
    109          1           0       -4.283145   -2.089806    2.615500
    110          1           0       -5.552554   -3.091660    0.357951
    111          1           0       -4.809188   -1.729767   -0.353448
    112          1           0       -6.163122   -1.074637    2.303316
    113          1           0       -7.121610   -1.919845    1.202278
    114          1           0       -5.596540    0.193772   -0.197193
    115          1           0       -6.811231    1.119794    2.354410
    116          1           0       -7.500004    1.839628    0.773894
    117          1           0       -5.781976    1.851060    1.109937
    118          1           0       -7.449512   -0.945916   -1.319991
    119          1           0       -7.596246    0.808374   -1.148280
    120          1           0       -8.814108   -0.506251    1.007615
    121          1           0       -9.403444   -1.195863   -0.548239
    122          1           0       -9.220253    1.790230   -0.497190
    123          1           0      -10.169671    1.199967    0.743491
    124          1           0      -11.334706   -0.400180   -1.286134
    125          1           0      -11.449409    0.547527   -3.249122
    126          1           0       -9.766906    0.969841   -2.914903
    127          1           0      -11.062295    2.162045   -2.674278
    128          1           0      -12.958977    1.693369   -1.458341
    129          1           0      -12.089500    2.361404   -0.101786
    130          1           0      -12.889487   -0.376182    0.635949
    131          1           0      -14.140434    0.130040   -0.542496
    132          1           0      -13.709367    2.102107    1.733921
    133          1           0      -13.792531    0.417728    2.178039
    134          1           0      -15.927184    0.083418    1.192811
    135          1           0      -16.496344    2.920592    0.832296
    136          1           0      -17.059546    1.571932   -0.210845
    137          1           0      -15.365071    2.274359   -0.288144
    138          1           0      -17.153504    1.792898    2.824328
    139          1           0      -15.366530    1.996495    3.273308
    140          1           0      -16.122802    0.562598    3.518965
 ---------------------------------------------------------------------

 SCF Done:  E(RwB97XD) =  -3007.80990558     A.U. after   20 cycles

 Excitation energies and oscillator strengths:

 Excited State   1:      Singlet-A      1.6682 eV  743.20 nm  f=0.3840  <S**2>=0.000
     245 -> 248       -0.19145
     246 -> 247        0.68155
     245 <- 248       -0.11771
 This state for optimization and/or second-order correction.
 Total Energy, E(TD-HF/TD-DFT) =  -3007.74859863
 Copying the excited state density for this state as the 1-particle RhoCI density.

 Excited State   2:      Singlet-A      2.1842 eV  567.65 nm  f=0.1009  <S**2>=0.000
     245 -> 247        0.62991
     246 -> 248        0.30617

 Excited State   3:      Singlet-A      3.2868 eV  377.22 nm  f=0.0007  <S**2>=0.000
     242 -> 247       -0.14234
     243 -> 247        0.65900
     246 -> 248       -0.10825

 Excited State   4:      Singlet-A      3.3878 eV  365.98 nm  f=0.0159  <S**2>=0.000
     241 -> 247        0.13775
     241 -> 249       -0.18326
     241 -> 250        0.12108
     242 -> 247        0.53586
     242 -> 249       -0.23556
     242 -> 250        0.10407
     246 -> 248       -0.16740

 Excited State   5:      Singlet-A      3.4570 eV  358.65 nm  f=0.0791  <S**2>=0.000
     241 -> 247        0.53933
     241 -> 249       -0.18515
     242 -> 247       -0.18439
     246 -> 248        0.29851

 The electronic state is 1-A.
 Alpha  occ. eigenvalues --  -46.97242 -19.30625 -19.29903 -19.25195 -19.25050
 Alpha  occ. eigenvalues --  -19.24066 -19.23978 -14.48226 -14.47679 -14.45543
 Alpha  occ. eigenvalues --  -14.43861 -10.43691 -10.43551 -10.39475 -10.38868
 Alpha  occ. eigenvalues --  -10.37002 -10.36795 -10.36371 -10.36053 -10.35326
 Alpha  occ. eigenvalues --  -10.35273 -10.35245 -10.35086 -10.34659 -10.34297
 Alpha  occ. eigenvalues --  -10.33948 -10.33249 -10.33115 -10.33051 -10.32947
 Alpha  occ. eigenvalues --  -10.32919 -10.32604 -10.32144 -10.32002 -10.31975
 Alpha  occ. eigenvalues --  -10.31930 -10.31743 -10.31508 -10.30986 -10.30875
 Alpha  occ. eigenvalues --  -10.30818 -10.30747 -10.30730 -10.30395 -10.30163
 Alpha  occ. eigenvalues --  -10.30047 -10.29870 -10.29771 -10.29692 -10.29066
 Alpha  occ. eigenvalues --  -10.29026 -10.28998 -10.28863 -10.28862 -10.28836
 Alpha  occ. eigenvalues --  -10.28478 -10.28323 -10.28206 -10.28184 -10.28183
 Alpha  occ. eigenvalues --  -10.28076 -10.27856 -10.27811 -10.27773 -10.27738
 Alpha  occ. eigenvalues --  -10.27594  -3.22976  -1.96571  -1.96083  -1.95927
 Alpha  occ. eigenvalues --   -1.18219  -1.18054  -1.14019  -1.12185  -1.09961
 Alpha  occ. eigenvalues --   -1.09756  -1.06787  -1.05990  -1.05846  -1.04937
 Alpha  occ. eigenvalues --   -0.94729  -0.92756  -0.92069  -0.91560  -0.91453
 Alpha  occ. eigenvalues --   -0.91090  -0.90816  -0.89981  -0.89181  -0.88975
 Alpha  occ. eigenvalues --   -0.88006  -0.87712  -0.86874  -0.86170  -0.85518
 Alpha  occ. eigenvalues --   -0.84595  -0.83883  -0.83323  -0.82880  -0.82273
 Alpha  occ. eigenvalues --   -0.81755  -0.80362  -0.79839  -0.79463  -0.78660
 Alpha  occ. eigenvalues --   -0.78122  -0.77757  -0.77112  -0.76509  -0.76007
 Alpha  occ. eigenvalues --   -0.75468  -0.74282  -0.73857  -0.72253  -0.71080
 Alpha  occ. eigenvalues --   -0.70806  -0.70202  -0.69949  -0.68818  -0.68259
 Alpha  occ. eigenvalues --   -0.68062  -0.68010  -0.67810  -0.66807  -0.66336
 Alpha  occ. eigenvalues --   -0.65555  -0.65356  -0.64198  -0.63136  -0.62937
 Alpha  occ. eigenvalues --   -0.61958  -0.61828  -0.61725  -0.61440  -0.60310
 Alpha  occ. eigenvalues --   -0.59309  -0.58766  -0.58530  -0.58280  -0.57650
 Alpha  occ. eigenvalues --   -0.57550  -0.56798  -0.56543  -0.56420  -0.56355
 Alpha  occ. eigenvalues --   -0.56172  -0.55621  -0.55389  -0.55042  -0.54807
 Alpha  occ. eigenvalues --   -0.54618  -0.54255  -0.54140  -0.53861  -0.53773
 Alpha  occ. eigenvalues --   -0.53706  -0.53479  -0.53318  -0.53165  -0.52368
 Alpha  occ. eigenvalues --   -0.52310  -0.52281  -0.52179  -0.52026  -0.51899
 Alpha  occ. eigenvalues --   -0.51773  -0.51556  -0.51501  -0.51120  -0.50932
 Alpha  occ. eigenvalues --   -0.50724  -0.50456  -0.50110  -0.49950  -0.49746
 Alpha  occ. eigenvalues --   -0.49661  -0.49379  -0.49243  -0.48777  -0.48722
 Alpha  occ. eigenvalues --   -0.48555  -0.48479  -0.48289  -0.47868  -0.47802
 Alpha  occ. eigenvalues --   -0.47592  -0.47534  -0.47378  -0.47325  -0.47274
 Alpha  occ. eigenvalues --   -0.46894  -0.46790  -0.46651  -0.46254  -0.46217
 Alpha  occ. eigenvalues --   -0.45764  -0.45537  -0.45334  -0.45264  -0.45002
 Alpha  occ. eigenvalues --   -0.44920  -0.44803  -0.44753  -0.44499  -0.44446
 Alpha  occ. eigenvalues --   -0.44365  -0.43966  -0.43736  -0.43643  -0.43334
 Alpha  occ. eigenvalues --   -0.43305  -0.43085  -0.42704  -0.42404  -0.42037
 Alpha  occ. eigenvalues --   -0.41619  -0.41254  -0.41144  -0.40861  -0.40557
 Alpha  occ. eigenvalues --   -0.40525  -0.39955  -0.39932  -0.39395  -0.39190
 Alpha  occ. eigenvalues --   -0.39080  -0.38908  -0.38302  -0.38158  -0.37698
 Alpha  occ. eigenvalues --   -0.37658  -0.37289  -0.37004  -0.36722  -0.36460
 Alpha  occ. eigenvalues --   -0.35977  -0.35873  -0.35388  -0.34232  -0.33157
 Alpha  occ. eigenvalues --   -0.32995  -0.32759  -0.31885  -0.30706  -0.26827
 Alpha  occ. eigenvalues --   -0.23888
 Alpha virt. eigenvalues --   -0.07894  -0.01007   0.01880   0.04173   0.04562
 Alpha virt. eigenvalues --    0.06316   0.06668   0.07328   0.08076   0.09031
 Alpha virt. eigenvalues --    0.09889   0.10892   0.11387   0.11810   0.12456

 Mulliken charges:
               1
     1  Mg   0.944988
     2  C   -0.020956
     3  C   -0.064116
     4  C   -0.074343
     5  C   -0.080108
     6  N   -0.331804
     7  C    0.002735
     8  C   -0.076149
     9  C   -0.103955
    10  C    0.037480
    11  C    0.037834
    12  C    0.020461
    13  C    0.003353
    14  C    0.207505
    15  O   -0.253194
    16  O   -0.373021
    17  N   -0.493638
    18  C    0.172302
    19  C   -0.127370
    20  C   -0.071416
    21  C    0.225683
    22  C    0.062364
    23  C    0.020750
    24  O   -0.234557
    25  C   -0.030829
    26  N   -0.361082
    27  C    0.033600
    28  C   -0.111134
    29  C   -0.076695
    30  C    0.052361
    31  C    0.016275
    32  C   -0.027565
    33  C   -0.043423
    34  N   -0.371910
    35  C    0.111909
    36  C   -0.191976
    37  C   -0.036238
    38  C    0.105380
    39  C    0.073982
    40  C    0.104402
    41  O   -0.167696
    42  C   -0.035900
    43  C    0.248977
    44  O   -0.242700
    45  O   -0.380029
    46  C    0.138569
    47  C    0.328916
    48  C   -0.182334
    49  C   -0.241804
    50  C    0.023735
    51  C    0.054289
    52  C    0.004296
    53  C    0.023047
    54  C   -0.192744
    55  C    0.013529
    56  C   -0.030935
    57  C   -0.021660
    58  C    0.019030
    59  C   -0.175418
    60  C   -0.006213
    61  C   -0.014815
    62  C   -0.004827
    63  C   -0.000472
    64  C   -0.228129
    65  C    0.004805
    66  C    0.001898
    67  H   -0.003718
    68  H   -0.014789
    69  H    0.009035
    70  H    0.042434
    71  H    0.042782
    72  H    0.046603
    73  H    0.041978
    74  H    0.036223
    75  H    0.035813
    76  H    0.040827
    77  H    0.088583
    78  H    0.060541
    79  H    0.072135
    80  H    0.027212
    81  H    0.052823
    82  H    0.050906
    83  H    0.050711
    84  H    0.069020
    85  H    0.043629
    86  H    0.032189
    87  H    0.008603
    88  H    0.038979
    89  H    0.056906
    90  H    0.037781
    91  H    0.034465
    92  H    0.033144
    93  H    0.047000
    94  H    0.044777
    95  H    0.042703
    96  H    0.054961
    97  H    0.048078
    98  H    0.066501
    99  H    0.032990
   100  H    0.065571
   101  H    0.053658
   102  H    0.020334
   103  H    0.068452
   104  H    0.000006
   105  H    0.044049
   106  H    0.034847
   107  H    0.034147
   108  H    0.032307
   109  H    0.008352
   110  H    0.014486
   111  H    0.023610
   112  H    0.012351
   113  H    0.017721
   114  H    0.018334
   115  H    0.039469
   116  H    0.014088
   117  H    0.027515
   118  H    0.009334
   119  H    0.007696
   120  H    0.017963
   121  H    0.022514
   122  H    0.023931
   123  H    0.004645
   124  H    0.020790
   125  H    0.023400
   126  H    0.032084
   127  H    0.024714
   128  H    0.011584
   129  H    0.027697
   130  H    0.029132
   131  H    0.033865
   132  H    0.026764
   133  H    0.011132
   134  H    0.015825
   135  H    0.017262
   136  H    0.044619
   137  H    0.015931
   138  H    0.037454
   139  H    0.009344
   140  H    0.017895
 Sum of Mulliken charges =  -0.00000

 Dipole moment (field-independent basis, Debye):
    X=              0.8500    Y=              5.3686    Z=              0.6714  Tot=              5.4767
 Quadrupole moment (field-independent basis, Debye-Ang):
   XX=           -385.9084   YY=           -449.7067   ZZ=           -391.3038
   XY=             58.6837   XZ=            -10.9100   YZ=             22.6799

 Normal termination of Gaussian 16 at Fri Apr 29 17:23:15 2022.
