 Gaussian 16, Revision A.03,
 Gaussian 16:  ES64L-G16RevA.03 25-Dec-2016

 --------------------
 #p ZINDO=(nstates=5)
 --------------------

 ----------------------------
 step_401_chromophore_2 ZINDO
 ----------------------------
 Symbolic Z-matrix:
 Charge =  0 Multiplicity = 1

                         Standard orientation:
 ---------------------------------------------------------------------
 Center     Atomic      Atomic             Coordinates (Angstroms)
 Number     Number       Type             X           Y           Z
 ---------------------------------------------------------------------
      1         12           0        4.755585    1.366878   -0.576789
      2          6           0        4.836331   -2.168083   -0.021996
      3          6           0        2.085882    0.928543   -2.653457
      4          6           0        4.088030    4.647280   -0.205085
      5          6           0        7.309781    1.638953    2.027051
      6          7           0        3.615653   -0.443418   -1.371579
      7          6           0        3.826136   -1.759620   -1.007458
      8          6           0        2.766729   -2.681968   -1.735370
      9          6           0        2.086100   -1.696844   -2.774569
     10          6           0        2.644073   -0.278538   -2.287641
     11          6           0        2.370019   -1.901531   -4.256892
     12          6           0        1.789947   -3.214000   -0.724069
     13          6           0        1.696838   -4.744486   -0.457104
     14          6           0        0.251168   -5.362041   -0.562026
     15          8           0       -0.092080   -6.359358   -1.196471
     16          8           0       -0.535445   -4.803434    0.440362
     17          7           0        3.415482    2.670016   -1.466709
     18          6           0        2.375956    2.253949   -2.288201
     19          6           0        1.720101    3.430616   -2.794201
     20          6           0        2.246494    4.583484   -2.097285
     21          6           0        3.319001    4.001249   -1.169175
     22          6           0        0.436121    3.389792   -3.740562
     23          6           0        1.890292    6.019125   -2.278554
     24          8           0        0.953119    6.419639   -2.957041
     25          6           0        2.624605    7.163128   -1.470141
     26          7           0        5.606847    2.832213    0.726447
     27          6           0        5.114379    4.118298    0.651986
     28          6           0        5.837853    5.073522    1.651975
     29          6           0        6.686972    4.078326    2.471411
     30          6           0        6.555146    2.739686    1.694249
     31          6           0        6.815292    6.033685    0.871940
     32          6           0        6.144980    3.943361    3.982871
     33          6           0        7.001816    4.770020    4.980266
     34          7           0        5.928371    0.017170    0.764153
     35          6           0        6.965152    0.303400    1.634835
     36          6           0        7.576465   -0.934929    1.972426
     37          6           0        6.752675   -1.941320    1.427776
     38          6           0        5.789890   -1.283611    0.637810
     39          6           0        8.825428   -1.077437    2.746590
     40          6           0        6.518700   -3.370943    1.345980
     41          8           0        7.157497   -4.280454    1.776785
     42          6           0        5.270109   -3.593765    0.497546
     43          6           0        5.660240   -4.491281   -0.570466
     44          8           0        5.193958   -5.617032   -0.733752
     45          8           0        6.524731   -3.892187   -1.484715
     46          6           0        6.775682   -4.505609   -2.752052
     47          6           0       -1.855513   -5.389923    0.635540
     48          6           0       -2.750257   -4.278468    0.867348
     49          6           0       -3.635587   -3.800171    1.786850
     50          6           0       -4.081637   -4.694372    2.984170
     51          6           0       -4.045783   -2.386800    1.594549
     52          6           0       -5.148105   -2.110598    0.609794
     53          6           0       -6.256690   -1.257445    1.231998
     54          6           0       -6.480133    0.004688    0.410702
     55          6           0       -6.704219    1.296277    1.283231
     56          6           0       -7.601495   -0.136733   -0.605386
     57          6           0       -9.011099   -0.312059   -0.046610
     58          6           0       -9.853251    0.933614   -0.264769
     59          6           0      -11.104382    0.657355   -1.156608
     60          6           0      -10.795406    1.108773   -2.581752
     61          6           0      -12.410668    1.424730   -0.555439
     62          6           0      -13.425610    0.470034    0.206031
     63          6           0      -14.066172    1.128502    1.397997
     64          6           0      -15.565143    1.085257    1.423538
     65          6           0      -16.215265    1.993449    0.333945
     66          6           0      -16.141088    1.388097    2.806767
     67          1           0        1.194992    0.835912   -3.277716
     68          1           0        4.084958    5.727619   -0.047354
     69          1           0        8.103512    1.857533    2.743429
     70          1           0        3.365907   -3.504564   -2.125733
     71          1           0        1.000906   -1.715179   -2.673811
     72          1           0        3.093906   -2.674909   -4.513234
     73          1           0        2.603232   -0.904834   -4.632499
     74          1           0        1.424443   -2.255185   -4.668058
     75          1           0        0.772747   -2.881690   -0.932082
     76          1           0        2.015855   -2.713770    0.218291
     77          1           0        2.095200   -5.029928    0.516823
     78          1           0        2.241549   -5.147536   -1.311999
     79          1           0       -0.300870    4.018003   -3.239786
     80          1           0        0.095733    2.386660   -3.998335
     81          1           0        0.574237    3.806045   -4.738587
     82          1           0        2.441828    8.123157   -1.953566
     83          1           0        3.713726    7.108658   -1.482303
     84          1           0        2.167623    7.130452   -0.481110
     85          1           0        5.159054    5.686067    2.244753
     86          1           0        7.734766    4.376731    2.494782
     87          1           0        6.062247    6.512067    0.244857
     88          1           0        7.454493    5.522535    0.152434
     89          1           0        7.394084    6.781488    1.413609
     90          1           0        6.209285    2.872761    4.180583
     91          1           0        5.108695    4.275610    4.030305
     92          1           0        7.707274    5.389742    4.427766
     93          1           0        7.579515    4.090691    5.607866
     94          1           0        6.266296    5.363282    5.523637
     95          1           0        9.485046   -0.329174    2.308535
     96          1           0        9.288487   -2.064054    2.732648
     97          1           0        8.657118   -0.894049    3.807474
     98          1           0        4.427396   -4.092922    0.976437
     99          1           0        6.122992   -4.114307   -3.533002
    100          1           0        6.598011   -5.578528   -2.680810
    101          1           0        7.771477   -4.243822   -3.111497
    102          1           0       -1.924373   -5.998301    1.537393
    103          1           0       -2.404535   -5.912683   -0.146546
    104          1           0       -2.325235   -3.470287    0.272147
    105          1           0       -5.111574   -5.049359    2.936131
    106          1           0       -4.002168   -3.996909    3.817613
    107          1           0       -3.506085   -5.600514    3.171471
    108          1           0       -3.171565   -1.831065    1.253536
    109          1           0       -4.283145   -2.089806    2.615500
    110          1           0       -5.552554   -3.091660    0.357951
    111          1           0       -4.809188   -1.729767   -0.353448
    112          1           0       -6.163122   -1.074637    2.303316
    113          1           0       -7.121610   -1.919845    1.202278
    114          1           0       -5.596540    0.193772   -0.197193
    115          1           0       -6.811231    1.119794    2.354410
    116          1           0       -7.500004    1.839628    0.773894
    117          1           0       -5.781976    1.851060    1.109937
    118          1           0       -7.449512   -0.945916   -1.319991
    119          1           0       -7.596246    0.808374   -1.148280
    120          1           0       -8.814108   -0.506251    1.007615
    121          1           0       -9.403444   -1.195863   -0.548239
    122          1           0       -9.220253    1.790230   -0.497190
    123          1           0      -10.169671    1.199967    0.743491
    124          1           0      -11.334706   -0.400180   -1.286134
    125          1           0      -11.449409    0.547527   -3.249122
    126          1           0       -9.766906    0.969841   -2.914903
    127          1           0      -11.062295    2.162045   -2.674278
    128          1           0      -12.958977    1.693369   -1.458341
    129          1           0      -12.089500    2.361404   -0.101786
    130          1           0      -12.889487   -0.376182    0.635949
    131          1           0      -14.140434    0.130040   -0.542496
    132          1           0      -13.709367    2.102107    1.733921
    133          1           0      -13.792531    0.417728    2.178039
    134          1           0      -15.927184    0.083418    1.192811
    135          1           0      -16.496344    2.920592    0.832296
    136          1           0      -17.059546    1.571932   -0.210845
    137          1           0      -15.365071    2.274359   -0.288144
    138          1           0      -17.153504    1.792898    2.824328
    139          1           0      -15.366530    1.996495    3.273308
    140          1           0      -16.122802    0.562598    3.518965
 ---------------------------------------------------------------------

 SCF Done:  E(RZINDO/S) =  -474.171536929     A.U. after   20 cycles

 Excitation energies and oscillator strengths:

 Excited State   1:      Singlet-A      1.2707 eV  975.69 nm  f=0.6137  <S**2>=0.000
     175 ->178         0.18393
     176 ->177         0.66422
 This state for optimization and/or second-order correction.
 Total Energy, E(CIS/TDA) =  -474.124838215
 Copying the excited state density for this state as the 1-particle RhoCI density.

 Excited State   2:      Singlet-A      1.9106 eV  648.94 nm  f=0.0333  <S**2>=0.000
     175 ->177         0.53189
     176 ->178        -0.43902

 Excited State   3:      Singlet-A      2.9029 eV  427.10 nm  f=0.0119  <S**2>=0.000
     167 ->179        -0.10034
     168 ->177         0.33411
     168 ->178        -0.16323
     168 ->179        -0.37603
     168 ->181         0.25721
     168 ->185        -0.22752
     168 ->193         0.10109

 Excited State   4:      Singlet-A      2.9699 eV  417.47 nm  f=0.9664  <S**2>=0.000
     175 ->177         0.38216
     176 ->178         0.50146
     176 ->179         0.20936
     176 ->180         0.10343

 Excited State   5:      Singlet-A      3.0169 eV  410.97 nm  f=0.0028  <S**2>=0.000
     170 ->177         0.31769
     170 ->179         0.30248
     170 ->181         0.33858
     170 ->184         0.10550
     170 ->185         0.21291
     170 ->187        -0.14228
     170 ->201        -0.12959
     176 ->179        -0.11924

 The electronic state is 1-A.
 Alpha  occ. eigenvalues --   -1.83783  -1.79915  -1.78946  -1.72912  -1.72158
 Alpha  occ. eigenvalues --   -1.70246  -1.67734  -1.62374  -1.59724  -1.58619
 Alpha  occ. eigenvalues --   -1.57215  -1.51707  -1.48359  -1.46410  -1.46237
 Alpha  occ. eigenvalues --   -1.45964  -1.44626  -1.41054  -1.38716  -1.38185
 Alpha  occ. eigenvalues --   -1.35905  -1.34430  -1.32623  -1.30787  -1.27713
 Alpha  occ. eigenvalues --   -1.27391  -1.26993  -1.22262  -1.21506  -1.17391
 Alpha  occ. eigenvalues --   -1.17063  -1.16463  -1.15934  -1.14615  -1.13101
 Alpha  occ. eigenvalues --   -1.12300  -1.10589  -1.09820  -1.06287  -1.04830
 Alpha  occ. eigenvalues --   -1.01597  -1.00141  -0.99380  -0.97996  -0.97429
 Alpha  occ. eigenvalues --   -0.95127  -0.94688  -0.94011  -0.93499  -0.92686
 Alpha  occ. eigenvalues --   -0.91706  -0.91111  -0.89372  -0.88071  -0.86703
 Alpha  occ. eigenvalues --   -0.85618  -0.84488  -0.84142  -0.83819  -0.81948
 Alpha  occ. eigenvalues --   -0.80562  -0.80181  -0.78758  -0.77793  -0.77538
 Alpha  occ. eigenvalues --   -0.77128  -0.74555  -0.74229  -0.73658  -0.73612
 Alpha  occ. eigenvalues --   -0.72908  -0.72287  -0.71851  -0.70966  -0.70645
 Alpha  occ. eigenvalues --   -0.70215  -0.70074  -0.69342  -0.68895  -0.68454
 Alpha  occ. eigenvalues --   -0.67941  -0.67581  -0.66986  -0.66413  -0.65646
 Alpha  occ. eigenvalues --   -0.65475  -0.64954  -0.64906  -0.63729  -0.63697
 Alpha  occ. eigenvalues --   -0.63391  -0.63210  -0.62916  -0.62417  -0.62138
 Alpha  occ. eigenvalues --   -0.61364  -0.61242  -0.60823  -0.59867  -0.59622
 Alpha  occ. eigenvalues --   -0.59192  -0.58980  -0.58685  -0.58476  -0.58055
 Alpha  occ. eigenvalues --   -0.57542  -0.57282  -0.56909  -0.56550  -0.56258
 Alpha  occ. eigenvalues --   -0.56119  -0.56012  -0.55538  -0.55437  -0.54987
 Alpha  occ. eigenvalues --   -0.54758  -0.54685  -0.53844  -0.53324  -0.53262
 Alpha  occ. eigenvalues --   -0.53084  -0.53018  -0.52398  -0.52178  -0.51896
 Alpha  occ. eigenvalues --   -0.51785  -0.51569  -0.51337  -0.50864  -0.50529
 Alpha  occ. eigenvalues --   -0.50205  -0.50068  -0.49441  -0.49322  -0.48952
 Alpha  occ. eigenvalues --   -0.48762  -0.48577  -0.48527  -0.48078  -0.47884
 Alpha  occ. eigenvalues --   -0.47679  -0.47481  -0.47092  -0.46973  -0.46615
 Alpha  occ. eigenvalues --   -0.46287  -0.46144  -0.45927  -0.45329  -0.45051
 Alpha  occ. eigenvalues --   -0.44885  -0.44839  -0.44723  -0.44357  -0.43461
 Alpha  occ. eigenvalues --   -0.43255  -0.43105  -0.42772  -0.42450  -0.42229
 Alpha  occ. eigenvalues --   -0.41812  -0.41414  -0.40600  -0.39731  -0.39056
 Alpha  occ. eigenvalues --   -0.38253  -0.37080  -0.36094  -0.35352  -0.34701
 Alpha  occ. eigenvalues --   -0.34014  -0.33181  -0.32246  -0.30729  -0.27340
 Alpha  occ. eigenvalues --   -0.22486
 Alpha virt. eigenvalues --   -0.09209  -0.03119  -0.01216   0.00604   0.01055
 Alpha virt. eigenvalues --    0.01339   0.02476   0.02790   0.04156   0.04830
 Alpha virt. eigenvalues --    0.05573   0.06007   0.06066   0.06897   0.07711

 Mulliken charges:
               1
     1  Mg   0.434488
     2  C   -0.056394
     3  C   -0.064133
     4  C   -0.095230
     5  C   -0.064307
     6  N   -0.271499
     7  C    0.094073
     8  C    0.013082
     9  C    0.003854
    10  C    0.143962
    11  C   -0.050752
    12  C   -0.021433
    13  C    0.004202
    14  C    0.452391
    15  O   -0.499677
    16  O   -0.262818
    17  N   -0.328243
    18  C    0.125890
    19  C    0.041011
    20  C   -0.048906
    21  C    0.144798
    22  C   -0.044196
    23  C    0.323532
    24  O   -0.515653
    25  C   -0.034435
    26  N   -0.266226
    27  C    0.148792
    28  C    0.003383
    29  C   -0.010212
    30  C    0.106668
    31  C   -0.060105
    32  C   -0.040346
    33  C   -0.060075
    34  N   -0.322038
    35  C    0.075697
    36  C    0.028295
    37  C   -0.072194
    38  C    0.105306
    39  C   -0.038958
    40  C    0.346020
    41  O   -0.507496
    42  C    0.063203
    43  C    0.495410
    44  O   -0.531717
    45  O   -0.279771
    46  C    0.079324
    47  C    0.113775
    48  C   -0.096426
    49  C   -0.023254
    50  C   -0.045432
    51  C   -0.007513
    52  C   -0.025404
    53  C   -0.031562
    54  C   -0.009521
    55  C   -0.069321
    56  C   -0.035235
    57  C   -0.039586
    58  C   -0.031921
    59  C   -0.016544
    60  C   -0.056191
    61  C   -0.051607
    62  C   -0.028240
    63  C   -0.024618
    64  C   -0.006055
    65  C   -0.065309
    66  C   -0.064575
    67  H    0.025926
    68  H    0.034682
    69  H    0.032165
    70  H    0.042870
    71  H    0.034157
    72  H    0.031978
    73  H    0.028440
    74  H    0.017212
    75  H    0.022227
    76  H    0.019408
    77  H    0.058734
    78  H    0.043058
    79  H    0.043566
    80  H    0.025840
    81  H    0.036174
    82  H    0.034257
    83  H    0.030071
    84  H    0.043690
    85  H    0.038561
    86  H    0.031119
    87  H    0.007648
    88  H    0.026080
    89  H    0.032342
    90  H    0.025197
    91  H    0.024426
    92  H    0.022152
    93  H    0.025276
    94  H    0.023986
    95  H    0.025565
    96  H    0.032088
    97  H    0.029133
    98  H    0.061564
    99  H    0.026590
   100  H    0.053772
   101  H    0.035418
   102  H    0.040436
   103  H    0.067513
   104  H    0.004851
   105  H    0.026042
   106  H    0.023235
   107  H    0.028280
   108  H    0.020882
   109  H    0.017533
   110  H    0.011949
   111  H    0.026759
   112  H    0.022422
   113  H    0.011716
   114  H    0.013591
   115  H    0.030972
   116  H    0.028487
   117  H    0.011507
   118  H    0.010342
   119  H    0.009151
   120  H    0.021235
   121  H    0.021224
   122  H    0.031504
   123  H    0.001591
   124  H    0.027470
   125  H    0.010177
   126  H    0.020668
   127  H    0.015914
   128  H    0.008367
   129  H    0.033956
   130  H    0.019815
   131  H    0.027343
   132  H    0.030618
   133  H    0.002306
   134  H    0.011872
   135  H    0.015019
   136  H    0.029837
   137  H    0.017490
   138  H    0.025286
   139  H    0.015500
   140  H    0.009742
 Sum of Mulliken charges =  -0.00000

 Dipole moment (field-independent basis, Debye):
    X=             -0.0022    Y=              8.9179    Z=              0.7537  Tot=              8.9497
 N-N= 4.308240243624D+03 E-N= 0.000000000000D+00  KE=-9.289953481670D+03
 Leave Link  601 at Fri Apr 29 17:36:56 2022, MaxMem=  6710886400 cpu:               0.8 elap:               0.0
 (Enter /sw/apps/gaussian-16.0/g16/l9999.exe)
 1\1\GINC-BP1-COMPUTE103\SP\RZINDO CIS\STO-3G\C55H74Mg1N4O6\OF15641\29-
 Apr-2022\0\\#p ZINDO=(nstates=5)\\step_401_chromophore_2 ZINDO\\0,1\Mg
 ,0,3.078,-0.6,44.505\C,0,6.391,0.376,43.566\C,0,1.852,2.045,42.735\C,0
 ,0.082,-2.139,44.522\C,0,4.58,-3.609,45.943\N,0,4.01,1.129,43.343\C,0,
 5.358,1.311,43.1\C,0,5.56,2.59,42.191\C,0,4.119,3.251,42.175\C,0,3.227
 ,2.096,42.831\C,0,3.919,4.566,42.917\C,0,6.011,2.163,40.822\C,0,7.409,
 2.593,40.29\C,0,7.409,3.292,38.878\O,0,7.959,4.348,38.566\O,0,6.966,2.

 Normal termination of Gaussian 16 at Fri Apr 29 17:36:56 2022.
