 Gaussian 16, Revision A.03,
 Gaussian 16:  ES64L-G16RevA.03 25-Dec-2016

 ------------------------------
 #p blyp/Def2SVP td=(nstates=5)
 ------------------------------

 ---------------------------------------------------
 step_1151_chromophore_16 TDDFT with blyp functional
 ---------------------------------------------------
 Symbolic Z-matrix:
 Charge =  0 Multiplicity = 1

                         Standard orientation:
 ---------------------------------------------------------------------
 Center     Atomic      Atomic             Coordinates (Angstroms)
 Number     Number       Type             X           Y           Z
 ---------------------------------------------------------------------
      1         12           0        6.390720    0.569592   -0.157797
      2          6           0        4.230481   -2.249254    0.050356
      3          6           0        3.670887    2.395025   -1.186407
      4          6           0        8.406603    3.227422   -0.361243
      5          6           0        8.924983   -1.444601    1.001808
      6          7           0        4.277489    0.017113   -0.691847
      7          6           0        3.545825   -1.107244   -0.378651
      8          6           0        1.995594   -1.003810   -0.672832
      9          6           0        1.927503    0.479353   -1.119912
     10          6           0        3.372233    1.021620   -1.037769
     11          6           0        1.281541    0.710013   -2.475152
     12          6           0        1.201393   -1.306827    0.590819
     13          6           0       -0.345247   -0.983106    0.476857
     14          6           0       -1.313712   -2.201343    0.601627
     15          8           0       -1.247572   -3.114405    1.361667
     16          8           0       -2.412348   -1.971279   -0.195064
     17          7           0        6.047076    2.546816   -0.810878
     18          6           0        4.880886    3.091996   -1.178159
     19          6           0        5.092817    4.507740   -1.502202
     20          6           0        6.431199    4.844996   -1.034305
     21          6           0        7.052258    3.496440   -0.752282
     22          6           0        4.032738    5.442333   -1.833036
     23          6           0        7.066308    6.178859   -0.627314
     24          8           0        8.251996    6.245108   -0.203544
     25          6           0        6.201248    7.390554   -0.550041
     26          7           0        8.357080    0.817389    0.306887
     27          6           0        8.970808    1.999401    0.110044
     28          6           0       10.500813    1.824742    0.654473
     29          6           0       10.462596    0.412751    1.399793
     30          6           0        9.191930   -0.115738    0.838050
     31          6           0       11.505837    1.835547   -0.556381
     32          6           0       10.310959    0.507753    2.986418
     33          6           0        9.372085    1.601027    3.555490
     34          7           0        6.633492   -1.519795    0.226002
     35          6           0        7.771925   -2.135727    0.675263
     36          6           0        7.489585   -3.550707    0.899070
     37          6           0        6.101069   -3.670247    0.672636
     38          6           0        5.678470   -2.363778    0.267670
     39          6           0        8.561605   -4.575538    1.356081
     40          6           0        4.946686   -4.550315    0.751438
     41          8           0        4.748296   -5.697973    1.163665
     42          6           0        3.703901   -3.559044    0.485713
     43          6           0        3.005932   -4.269778   -0.658217
     44          8           0        3.373589   -4.351701   -1.815548
     45          8           0        1.819815   -4.879369   -0.250691
     46          6           0        0.905132   -5.448132   -1.196239
     47          6           0       -3.514451   -2.931611   -0.152340
     48          6           0       -4.644215   -2.017054   -0.589722
     49          6           0       -5.838753   -2.340727   -1.083203
     50          6           0       -6.300720   -3.721196   -1.393163
     51          6           0       -6.847398   -1.219900   -1.376087
     52          6           0       -8.116088   -1.231832   -0.678961
     53          6           0       -8.727571    0.191385   -0.416238
     54          6           0      -10.038570    0.424566   -1.264942
     55          6           0       -9.775286    1.135254   -2.670718
     56          6           0      -11.044552    1.181429   -0.375944
     57          6           0      -12.059824    0.194873    0.107178
     58          6           0      -13.184027   -0.263427   -0.912514
     59          6           0      -14.555131   -0.317504   -0.116614
     60          6           0      -15.446713   -1.484111   -0.732269
     61          6           0      -15.282988    1.066807   -0.223272
     62          6           0      -15.741482    1.575251    1.239594
     63          6           0      -15.040830    2.939481    1.505730
     64          6           0      -13.934377    2.899038    2.572120
     65          6           0      -12.820608    3.900763    2.379621
     66          6           0      -14.468504    3.014789    4.009039
     67          1           0        2.753772    2.949929   -1.394997
     68          1           0        9.092694    4.076001   -0.413213
     69          1           0        9.717872   -1.954403    1.551454
     70          1           0        1.774831   -1.618866   -1.545900
     71          1           0        1.451016    1.048477   -0.322199
     72          1           0        1.763667    1.544807   -2.983914
     73          1           0        0.231145    0.979595   -2.366426
     74          1           0        1.427545   -0.066327   -3.226600
     75          1           0        1.594271   -0.906110    1.524335
     76          1           0        1.282381   -2.385591    0.723626
     77          1           0       -0.494666   -0.660453   -0.553091
     78          1           0       -0.587381   -0.119559    1.096136
     79          1           0        4.356289    6.082006   -2.653884
     80          1           0        3.744056    6.065225   -0.986626
     81          1           0        3.137496    4.935946   -2.196505
     82          1           0        6.617467    8.197944    0.051976
     83          1           0        5.370556    6.883741   -0.058685
     84          1           0        5.837495    7.708778   -1.526741
     85          1           0       10.679988    2.690056    1.293054
     86          1           0       11.406751   -0.081517    1.169820
     87          1           0       12.348065    1.197039   -0.292544
     88          1           0       11.715640    2.872616   -0.818213
     89          1           0       10.878705    1.397224   -1.333578
     90          1           0       11.308107    0.769750    3.339416
     91          1           0       10.082020   -0.493965    3.351031
     92          1           0        9.869291    2.554989    3.727587
     93          1           0        8.939609    1.355793    4.526359
     94          1           0        8.550338    1.892200    2.900910
     95          1           0        8.755046   -5.272724    0.540629
     96          1           0        8.260224   -5.017051    2.305930
     97          1           0        9.551015   -4.128506    1.450050
     98          1           0        3.273257   -3.415796    1.477340
     99          1           0        0.740213   -4.793059   -2.051217
    100          1           0       -0.054577   -5.556775   -0.690317
    101          1           0        1.198313   -6.436015   -1.550661
    102          1           0       -3.627999   -3.262745    0.879240
    103          1           0       -3.210703   -3.786896   -0.755984
    104          1           0       -4.506746   -0.942631   -0.469839
    105          1           0       -5.704568   -4.554972   -1.020726
    106          1           0       -6.254579   -3.802479   -2.479015
    107          1           0       -7.330442   -3.899929   -1.085527
    108          1           0       -6.918040   -1.162811   -2.462177
    109          1           0       -6.324777   -0.302404   -1.107071
    110          1           0       -7.955129   -1.634721    0.321559
    111          1           0       -8.655105   -1.997171   -1.237959
    112          1           0       -7.953387    0.954692   -0.498093
    113          1           0       -8.998926    0.189991    0.640280
    114          1           0      -10.436675   -0.575084   -1.437841
    115          1           0      -10.300324    0.691753   -3.516266
    116          1           0       -8.745989    0.832676   -2.864978
    117          1           0      -10.040861    2.192289   -2.640132
    118          1           0      -11.657596    1.933024   -0.873501
    119          1           0      -10.608959    1.730406    0.459540
    120          1           0      -12.557125    0.459770    1.040603
    121          1           0      -11.514272   -0.680366    0.458206
    122          1           0      -12.926634   -1.291321   -1.166610
    123          1           0      -13.126896    0.408770   -1.768699
    124          1           0      -14.336478   -0.667351    0.891582
    125          1           0      -16.439417   -1.173943   -1.058590
    126          1           0      -15.642079   -2.216275    0.051109
    127          1           0      -14.920150   -1.937553   -1.571948
    128          1           0      -16.165224    0.946726   -0.851845
    129          1           0      -14.707025    1.798125   -0.789518
    130          1           0      -15.523438    0.846176    2.019430
    131          1           0      -16.823963    1.660939    1.339885
    132          1           0      -15.826255    3.583246    1.900329
    133          1           0      -14.631605    3.442377    0.629257
    134          1           0      -13.450400    1.946184    2.356991
    135          1           0      -12.354167    4.337464    3.263514
    136          1           0      -13.162443    4.809073    1.883405
    137          1           0      -11.956765    3.398222    1.945152
    138          1           0      -14.482088    2.083582    4.574841
    139          1           0      -15.523807    3.281101    4.069368
    140          1           0      -13.952983    3.785896    4.581663
 ---------------------------------------------------------------------

 SCF Done:  E(RB-LYP) =  -3007.36370027     A.U. after   21 cycles

 Excitation energies and oscillator strengths:

 Excited State   1:      Singlet-A      1.7576 eV  705.43 nm  f=0.2789  <S**2>=0.000
     245 -> 247        0.13480
     245 -> 248       -0.13158
     245 -> 249       -0.12626
     246 -> 247        0.67498
     246 <- 247       -0.15241
 This state for optimization and/or second-order correction.
 Total Energy, E(TD-HF/TD-DFT) =  -3007.29911116
 Copying the excited state density for this state as the 1-particle RhoCI density.

 Excited State   2:      Singlet-A      1.8397 eV  673.93 nm  f=0.0482  <S**2>=0.000
     243 -> 247        0.16959
     244 -> 247        0.59395
     245 -> 247        0.29871
     246 -> 247       -0.14850

 Excited State   3:      Singlet-A      1.8825 eV  658.62 nm  f=0.0349  <S**2>=0.000
     243 -> 247        0.47957
     244 -> 247       -0.35028
     245 -> 247        0.35898

 Excited State   4:      Singlet-A      1.9920 eV  622.42 nm  f=0.0579  <S**2>=0.000
     243 -> 247        0.48283
     244 -> 247        0.12606
     245 -> 247       -0.45835
     246 -> 248       -0.13050
     246 -> 249       -0.12990

 Excited State   5:      Singlet-A      2.3665 eV  523.92 nm  f=0.0001  <S**2>=0.000
     242 -> 247        0.70707

 The electronic state is 1-A.
 Alpha  occ. eigenvalues --  -46.27504 -18.81426 -18.80302 -18.77302 -18.76113
 Alpha  occ. eigenvalues --  -18.75711 -18.75593 -14.03552 -14.03478 -14.01529
 Alpha  occ. eigenvalues --  -14.00704 -10.04145 -10.03478 -10.00496  -9.99639
 Alpha  occ. eigenvalues --   -9.98267  -9.97026  -9.96903  -9.96710  -9.96674
 Alpha  occ. eigenvalues --   -9.96630  -9.96051  -9.95834  -9.95034  -9.94554
 Alpha  occ. eigenvalues --   -9.94473  -9.94320  -9.94110  -9.94052  -9.94006
 Alpha  occ. eigenvalues --   -9.93999  -9.93874  -9.93704  -9.93435  -9.93387
 Alpha  occ. eigenvalues --   -9.93165  -9.93163  -9.93122  -9.93005  -9.92939
 Alpha  occ. eigenvalues --   -9.92663  -9.92595  -9.92586  -9.92520  -9.92506
 Alpha  occ. eigenvalues --   -9.92386  -9.92384  -9.92291  -9.92194  -9.92104
 Alpha  occ. eigenvalues --   -9.91967  -9.91662  -9.91576  -9.91544  -9.91497
 Alpha  occ. eigenvalues --   -9.91445  -9.91429  -9.91412  -9.91401  -9.91317
 Alpha  occ. eigenvalues --   -9.90806  -9.90787  -9.90628  -9.90586  -9.90519
 Alpha  occ. eigenvalues --   -9.90452  -2.92110  -1.72552  -1.71959  -1.71845
 Alpha  occ. eigenvalues --   -0.98487  -0.96404  -0.90942  -0.90401  -0.89739
 Alpha  occ. eigenvalues --   -0.88825  -0.87720  -0.86347  -0.85676  -0.84712
 Alpha  occ. eigenvalues --   -0.75032  -0.74344  -0.73175  -0.72793  -0.72548
 Alpha  occ. eigenvalues --   -0.72029  -0.71502  -0.70957  -0.70657  -0.70511
 Alpha  occ. eigenvalues --   -0.69702  -0.69261  -0.68332  -0.67070  -0.66982
 Alpha  occ. eigenvalues --   -0.66492  -0.66027  -0.65477  -0.64752  -0.64265
 Alpha  occ. eigenvalues --   -0.63997  -0.62529  -0.62478  -0.61963  -0.60902
 Alpha  occ. eigenvalues --   -0.60494  -0.60051  -0.59528  -0.59463  -0.58873
 Alpha  occ. eigenvalues --   -0.58476  -0.57763  -0.56690  -0.55542  -0.55190
 Alpha  occ. eigenvalues --   -0.53768  -0.53508  -0.52928  -0.52581  -0.51461
 Alpha  occ. eigenvalues --   -0.51236  -0.51081  -0.50561  -0.50115  -0.50061
 Alpha  occ. eigenvalues --   -0.49855  -0.49584  -0.48760  -0.47997  -0.46532
 Alpha  occ. eigenvalues --   -0.46422  -0.45879  -0.45602  -0.45470  -0.44838
 Alpha  occ. eigenvalues --   -0.44407  -0.44279  -0.43110  -0.42745  -0.42141
 Alpha  occ. eigenvalues --   -0.42041  -0.41872  -0.41553  -0.41330  -0.41059
 Alpha  occ. eigenvalues --   -0.40691  -0.40408  -0.40309  -0.40150  -0.39991
 Alpha  occ. eigenvalues --   -0.39660  -0.39545  -0.39371  -0.39017  -0.38996
 Alpha  occ. eigenvalues --   -0.38904  -0.38536  -0.38501  -0.38459  -0.38185
 Alpha  occ. eigenvalues --   -0.37995  -0.37789  -0.37663  -0.37588  -0.37548
 Alpha  occ. eigenvalues --   -0.37511  -0.37080  -0.36758  -0.36655  -0.36582
 Alpha  occ. eigenvalues --   -0.36448  -0.36272  -0.35997  -0.35916  -0.35821
 Alpha  occ. eigenvalues --   -0.35621  -0.35514  -0.35407  -0.35232  -0.34754
 Alpha  occ. eigenvalues --   -0.34525  -0.34365  -0.34179  -0.34077  -0.33911
 Alpha  occ. eigenvalues --   -0.33751  -0.33672  -0.33570  -0.33351  -0.33229
 Alpha  occ. eigenvalues --   -0.33015  -0.32843  -0.32414  -0.32369  -0.32192
 Alpha  occ. eigenvalues --   -0.32108  -0.31807  -0.31609  -0.31493  -0.31445
 Alpha  occ. eigenvalues --   -0.31366  -0.31110  -0.31066  -0.31004  -0.30847
 Alpha  occ. eigenvalues --   -0.30513  -0.30337  -0.29970  -0.29785  -0.29560
 Alpha  occ. eigenvalues --   -0.29545  -0.29319  -0.29108  -0.28812  -0.28729
 Alpha  occ. eigenvalues --   -0.28584  -0.28309  -0.27972  -0.27959  -0.27908
 Alpha  occ. eigenvalues --   -0.27747  -0.27737  -0.27193  -0.26613  -0.26276
 Alpha  occ. eigenvalues --   -0.25995  -0.25899  -0.25866  -0.25821  -0.25528
 Alpha  occ. eigenvalues --   -0.25228  -0.23993  -0.23961  -0.23813  -0.23538
 Alpha  occ. eigenvalues --   -0.23366  -0.22485  -0.21969  -0.21291  -0.21046
 Alpha  occ. eigenvalues --   -0.20586  -0.20525  -0.18783  -0.18524  -0.17180
 Alpha  occ. eigenvalues --   -0.15908
 Alpha virt. eigenvalues --   -0.11828  -0.07021  -0.06121  -0.04954  -0.02696
 Alpha virt. eigenvalues --   -0.02333  -0.01537  -0.01152  -0.01067  -0.00304
 Alpha virt. eigenvalues --    0.00994   0.01517   0.02338   0.02496   0.02795

 Mulliken charges:
               1
     1  Mg   0.688228
     2  C    0.027587
     3  C   -0.081869
     4  C   -0.023323
     5  C   -0.094426
     6  N   -0.214127
     7  C   -0.105385
     8  C    0.060561
     9  C    0.019317
    10  C   -0.004295
    11  C    0.141543
    12  C    0.081719
    13  C    0.094510
    14  C    0.077253
    15  O   -0.153220
    16  O   -0.284398
    17  N   -0.268337
    18  C    0.168732
    19  C   -0.140711
    20  C   -0.015988
    21  C    0.087534
    22  C    0.162474
    23  C   -0.045484
    24  O   -0.198938
    25  C    0.142745
    26  N   -0.241625
    27  C    0.031925
    28  C   -0.043600
    29  C    0.021540
    30  C    0.036509
    31  C    0.137091
    32  C    0.099702
    33  C    0.051467
    34  N   -0.162777
    35  C    0.146626
    36  C   -0.192680
    37  C    0.103540
    38  C   -0.000845
    39  C    0.179644
    40  C   -0.051376
    41  O   -0.139517
    42  C    0.016077
    43  C    0.142709
    44  O   -0.179237
    45  O   -0.273117
    46  C    0.222493
    47  C    0.320232
    48  C   -0.092325
    49  C   -0.153843
    50  C    0.152276
    51  C    0.123592
    52  C    0.070323
    53  C    0.109752
    54  C   -0.062634
    55  C    0.108291
    56  C    0.135247
    57  C    0.010706
    58  C    0.109121
    59  C   -0.095957
    60  C    0.096308
    61  C    0.131594
    62  C    0.070511
    63  C    0.109093
    64  C   -0.081130
    65  C    0.091091
    66  C    0.115343
    67  H   -0.066642
    68  H   -0.036803
    69  H   -0.059729
    70  H   -0.006581
    71  H   -0.029703
    72  H   -0.025910
    73  H    0.001191
    74  H   -0.007476
    75  H   -0.023958
    76  H    0.010796
    77  H   -0.013960
    78  H    0.016729
    79  H   -0.001896
    80  H    0.008251
    81  H   -0.016636
    82  H    0.006025
    83  H    0.004972
    84  H    0.011784
    85  H   -0.020740
    86  H   -0.032989
    87  H    0.000072
    88  H    0.008823
    89  H   -0.003734
    90  H   -0.021690
    91  H   -0.017441
    92  H   -0.008960
    93  H   -0.008623
    94  H    0.000748
    95  H    0.008444
    96  H    0.021992
    97  H   -0.032803
    98  H    0.022475
    99  H   -0.003788
   100  H    0.009575
   101  H    0.011548
   102  H    0.007808
   103  H    0.004066
   104  H   -0.037634
   105  H   -0.016872
   106  H   -0.007616
   107  H   -0.005451
   108  H   -0.021908
   109  H   -0.059412
   110  H   -0.037421
   111  H   -0.016294
   112  H   -0.026456
   113  H   -0.037282
   114  H   -0.025900
   115  H   -0.020954
   116  H   -0.020435
   117  H    0.000302
   118  H   -0.045361
   119  H   -0.025034
   120  H   -0.044878
   121  H   -0.050509
   122  H   -0.034212
   123  H   -0.021238
   124  H   -0.022710
   125  H   -0.021055
   126  H   -0.021146
   127  H   -0.014899
   128  H   -0.036713
   129  H   -0.025358
   130  H   -0.027811
   131  H   -0.035383
   132  H   -0.045760
   133  H   -0.031675
   134  H   -0.033613
   135  H   -0.033560
   136  H   -0.016990
   137  H   -0.017357
   138  H   -0.021024
   139  H   -0.031993
   140  H   -0.017464
 Sum of Mulliken charges =  -0.00000

 Dipole moment (field-independent basis, Debye):
    X=             -3.5053    Y=              4.3172    Z=             -0.1220  Tot=              5.5623
 Quadrupole moment (field-independent basis, Debye-Ang):
   XX=           -378.2436   YY=           -436.3187   ZZ=           -406.3382
   XY=              8.6652   XZ=             17.3358   YZ=              4.3427

 Normal termination of Gaussian 16 at Wed Apr 27 11:20:39 2022.
