 Gaussian 16, Revision A.03,
 Gaussian 16:  ES64L-G16RevA.03 25-Dec-2016

 -----------------------------------
 #p cam-b3lyp/Def2SVP td=(nstates=5)
 -----------------------------------

 --------------------------------------------------------
 step_1151_chromophore_16 TDDFT with cam-b3lyp functional
 --------------------------------------------------------
 Symbolic Z-matrix:
 Charge =  0 Multiplicity = 1

                         Standard orientation:
 ---------------------------------------------------------------------
 Center     Atomic      Atomic             Coordinates (Angstroms)
 Number     Number       Type             X           Y           Z
 ---------------------------------------------------------------------
      1         12           0        6.390720    0.569592   -0.157797
      2          6           0        4.230481   -2.249254    0.050356
      3          6           0        3.670887    2.395025   -1.186407
      4          6           0        8.406603    3.227422   -0.361243
      5          6           0        8.924983   -1.444601    1.001808
      6          7           0        4.277489    0.017113   -0.691847
      7          6           0        3.545825   -1.107244   -0.378651
      8          6           0        1.995594   -1.003810   -0.672832
      9          6           0        1.927503    0.479353   -1.119912
     10          6           0        3.372233    1.021620   -1.037769
     11          6           0        1.281541    0.710013   -2.475152
     12          6           0        1.201393   -1.306827    0.590819
     13          6           0       -0.345247   -0.983106    0.476857
     14          6           0       -1.313712   -2.201343    0.601627
     15          8           0       -1.247572   -3.114405    1.361667
     16          8           0       -2.412348   -1.971279   -0.195064
     17          7           0        6.047076    2.546816   -0.810878
     18          6           0        4.880886    3.091996   -1.178159
     19          6           0        5.092817    4.507740   -1.502202
     20          6           0        6.431199    4.844996   -1.034305
     21          6           0        7.052258    3.496440   -0.752282
     22          6           0        4.032738    5.442333   -1.833036
     23          6           0        7.066308    6.178859   -0.627314
     24          8           0        8.251996    6.245108   -0.203544
     25          6           0        6.201248    7.390554   -0.550041
     26          7           0        8.357080    0.817389    0.306887
     27          6           0        8.970808    1.999401    0.110044
     28          6           0       10.500813    1.824742    0.654473
     29          6           0       10.462596    0.412751    1.399793
     30          6           0        9.191930   -0.115738    0.838050
     31          6           0       11.505837    1.835547   -0.556381
     32          6           0       10.310959    0.507753    2.986418
     33          6           0        9.372085    1.601027    3.555490
     34          7           0        6.633492   -1.519795    0.226002
     35          6           0        7.771925   -2.135727    0.675263
     36          6           0        7.489585   -3.550707    0.899070
     37          6           0        6.101069   -3.670247    0.672636
     38          6           0        5.678470   -2.363778    0.267670
     39          6           0        8.561605   -4.575538    1.356081
     40          6           0        4.946686   -4.550315    0.751438
     41          8           0        4.748296   -5.697973    1.163665
     42          6           0        3.703901   -3.559044    0.485713
     43          6           0        3.005932   -4.269778   -0.658217
     44          8           0        3.373589   -4.351701   -1.815548
     45          8           0        1.819815   -4.879369   -0.250691
     46          6           0        0.905132   -5.448132   -1.196239
     47          6           0       -3.514451   -2.931611   -0.152340
     48          6           0       -4.644215   -2.017054   -0.589722
     49          6           0       -5.838753   -2.340727   -1.083203
     50          6           0       -6.300720   -3.721196   -1.393163
     51          6           0       -6.847398   -1.219900   -1.376087
     52          6           0       -8.116088   -1.231832   -0.678961
     53          6           0       -8.727571    0.191385   -0.416238
     54          6           0      -10.038570    0.424566   -1.264942
     55          6           0       -9.775286    1.135254   -2.670718
     56          6           0      -11.044552    1.181429   -0.375944
     57          6           0      -12.059824    0.194873    0.107178
     58          6           0      -13.184027   -0.263427   -0.912514
     59          6           0      -14.555131   -0.317504   -0.116614
     60          6           0      -15.446713   -1.484111   -0.732269
     61          6           0      -15.282988    1.066807   -0.223272
     62          6           0      -15.741482    1.575251    1.239594
     63          6           0      -15.040830    2.939481    1.505730
     64          6           0      -13.934377    2.899038    2.572120
     65          6           0      -12.820608    3.900763    2.379621
     66          6           0      -14.468504    3.014789    4.009039
     67          1           0        2.753772    2.949929   -1.394997
     68          1           0        9.092694    4.076001   -0.413213
     69          1           0        9.717872   -1.954403    1.551454
     70          1           0        1.774831   -1.618866   -1.545900
     71          1           0        1.451016    1.048477   -0.322199
     72          1           0        1.763667    1.544807   -2.983914
     73          1           0        0.231145    0.979595   -2.366426
     74          1           0        1.427545   -0.066327   -3.226600
     75          1           0        1.594271   -0.906110    1.524335
     76          1           0        1.282381   -2.385591    0.723626
     77          1           0       -0.494666   -0.660453   -0.553091
     78          1           0       -0.587381   -0.119559    1.096136
     79          1           0        4.356289    6.082006   -2.653884
     80          1           0        3.744056    6.065225   -0.986626
     81          1           0        3.137496    4.935946   -2.196505
     82          1           0        6.617467    8.197944    0.051976
     83          1           0        5.370556    6.883741   -0.058685
     84          1           0        5.837495    7.708778   -1.526741
     85          1           0       10.679988    2.690056    1.293054
     86          1           0       11.406751   -0.081517    1.169820
     87          1           0       12.348065    1.197039   -0.292544
     88          1           0       11.715640    2.872616   -0.818213
     89          1           0       10.878705    1.397224   -1.333578
     90          1           0       11.308107    0.769750    3.339416
     91          1           0       10.082020   -0.493965    3.351031
     92          1           0        9.869291    2.554989    3.727587
     93          1           0        8.939609    1.355793    4.526359
     94          1           0        8.550338    1.892200    2.900910
     95          1           0        8.755046   -5.272724    0.540629
     96          1           0        8.260224   -5.017051    2.305930
     97          1           0        9.551015   -4.128506    1.450050
     98          1           0        3.273257   -3.415796    1.477340
     99          1           0        0.740213   -4.793059   -2.051217
    100          1           0       -0.054577   -5.556775   -0.690317
    101          1           0        1.198313   -6.436015   -1.550661
    102          1           0       -3.627999   -3.262745    0.879240
    103          1           0       -3.210703   -3.786896   -0.755984
    104          1           0       -4.506746   -0.942631   -0.469839
    105          1           0       -5.704568   -4.554972   -1.020726
    106          1           0       -6.254579   -3.802479   -2.479015
    107          1           0       -7.330442   -3.899929   -1.085527
    108          1           0       -6.918040   -1.162811   -2.462177
    109          1           0       -6.324777   -0.302404   -1.107071
    110          1           0       -7.955129   -1.634721    0.321559
    111          1           0       -8.655105   -1.997171   -1.237959
    112          1           0       -7.953387    0.954692   -0.498093
    113          1           0       -8.998926    0.189991    0.640280
    114          1           0      -10.436675   -0.575084   -1.437841
    115          1           0      -10.300324    0.691753   -3.516266
    116          1           0       -8.745989    0.832676   -2.864978
    117          1           0      -10.040861    2.192289   -2.640132
    118          1           0      -11.657596    1.933024   -0.873501
    119          1           0      -10.608959    1.730406    0.459540
    120          1           0      -12.557125    0.459770    1.040603
    121          1           0      -11.514272   -0.680366    0.458206
    122          1           0      -12.926634   -1.291321   -1.166610
    123          1           0      -13.126896    0.408770   -1.768699
    124          1           0      -14.336478   -0.667351    0.891582
    125          1           0      -16.439417   -1.173943   -1.058590
    126          1           0      -15.642079   -2.216275    0.051109
    127          1           0      -14.920150   -1.937553   -1.571948
    128          1           0      -16.165224    0.946726   -0.851845
    129          1           0      -14.707025    1.798125   -0.789518
    130          1           0      -15.523438    0.846176    2.019430
    131          1           0      -16.823963    1.660939    1.339885
    132          1           0      -15.826255    3.583246    1.900329
    133          1           0      -14.631605    3.442377    0.629257
    134          1           0      -13.450400    1.946184    2.356991
    135          1           0      -12.354167    4.337464    3.263514
    136          1           0      -13.162443    4.809073    1.883405
    137          1           0      -11.956765    3.398222    1.945152
    138          1           0      -14.482088    2.083582    4.574841
    139          1           0      -15.523807    3.281101    4.069368
    140          1           0      -13.952983    3.785896    4.581663
 ---------------------------------------------------------------------

 SCF Done:  E(RCAM-B3LYP) =  -3007.15390145     A.U. after   19 cycles

 Excitation energies and oscillator strengths:

 Excited State   1:      Singlet-A      1.6646 eV  744.84 nm  f=0.3890  <S**2>=0.000
     245 -> 248       -0.15389
     246 -> 247        0.68892
 This state for optimization and/or second-order correction.
 Total Energy, E(TD-HF/TD-DFT) =  -3007.09272919
 Copying the excited state density for this state as the 1-particle RhoCI density.

 Excited State   2:      Singlet-A      2.1628 eV  573.26 nm  f=0.1417  <S**2>=0.000
     245 -> 247        0.65444
     246 -> 248        0.24430

 Excited State   3:      Singlet-A      3.3807 eV  366.74 nm  f=0.0026  <S**2>=0.000
     241 -> 247       -0.35410
     243 -> 247        0.32984
     244 -> 247        0.45231
     246 -> 248        0.12342

 Excited State   4:      Singlet-A      3.4259 eV  361.91 nm  f=0.0065  <S**2>=0.000
     241 -> 247        0.28550
     241 -> 250        0.10246
     243 -> 247        0.48123
     243 -> 249       -0.21903
     243 -> 250        0.23609
     244 -> 247       -0.14134

 Excited State   5:      Singlet-A      3.4805 eV  356.23 nm  f=0.0868  <S**2>=0.000
     239 -> 247        0.37522
     239 -> 248       -0.17211
     239 -> 249        0.22284
     239 -> 250        0.12569
     240 -> 247        0.30209
     240 -> 248       -0.10177
     240 -> 249        0.13066
     244 -> 247       -0.18067
     246 -> 248       -0.25504

 The electronic state is 1-A.
 Alpha  occ. eigenvalues --  -46.89051 -19.24210 -19.23101 -19.20265 -19.19152
 Alpha  occ. eigenvalues --  -19.19138 -19.18629 -14.42394 -14.42390 -14.40167
 Alpha  occ. eigenvalues --  -14.38943 -10.39388 -10.38919 -10.36119 -10.34840
 Alpha  occ. eigenvalues --  -10.32284 -10.31740 -10.31703 -10.31431 -10.31057
 Alpha  occ. eigenvalues --  -10.30782 -10.30511 -10.29832 -10.29423 -10.28795
 Alpha  occ. eigenvalues --  -10.28622 -10.28613 -10.28503 -10.28189 -10.28101
 Alpha  occ. eigenvalues --  -10.28095 -10.28056 -10.27887 -10.27692 -10.27296
 Alpha  occ. eigenvalues --  -10.27238 -10.27226 -10.27163 -10.27106 -10.26996
 Alpha  occ. eigenvalues --  -10.26895 -10.26613 -10.26391 -10.26288 -10.26241
 Alpha  occ. eigenvalues --  -10.26193 -10.26180 -10.26004 -10.25984 -10.25821
 Alpha  occ. eigenvalues --  -10.25488 -10.25371 -10.25365 -10.25262 -10.25231
 Alpha  occ. eigenvalues --  -10.25114 -10.25105 -10.25077 -10.25076 -10.25046
 Alpha  occ. eigenvalues --  -10.24460 -10.24407 -10.24248 -10.24243 -10.24102
 Alpha  occ. eigenvalues --  -10.24031  -3.17563  -1.92483  -1.91996  -1.91883
 Alpha  occ. eigenvalues --   -1.16966  -1.14867  -1.08778  -1.08524  -1.08385
 Alpha  occ. eigenvalues --   -1.06647  -1.05204  -1.04007  -1.03467  -1.02306
 Alpha  occ. eigenvalues --   -0.92022  -0.91248  -0.89991  -0.89581  -0.89252
 Alpha  occ. eigenvalues --   -0.88723  -0.88412  -0.87757  -0.87147  -0.87039
 Alpha  occ. eigenvalues --   -0.86140  -0.85564  -0.84656  -0.83406  -0.83087
 Alpha  occ. eigenvalues --   -0.82749  -0.82042  -0.81396  -0.80539  -0.79984
 Alpha  occ. eigenvalues --   -0.79763  -0.78382  -0.78113  -0.77458  -0.76270
 Alpha  occ. eigenvalues --   -0.75844  -0.75409  -0.74750  -0.74687  -0.74105
 Alpha  occ. eigenvalues --   -0.73572  -0.72754  -0.71611  -0.70326  -0.69754
 Alpha  occ. eigenvalues --   -0.68367  -0.68023  -0.67519  -0.67013  -0.65633
 Alpha  occ. eigenvalues --   -0.65345  -0.65117  -0.64601  -0.64108  -0.64011
 Alpha  occ. eigenvalues --   -0.63846  -0.63384  -0.62653  -0.61577  -0.60263
 Alpha  occ. eigenvalues --   -0.60061  -0.59341  -0.59058  -0.58799  -0.58313
 Alpha  occ. eigenvalues --   -0.57867  -0.57614  -0.56402  -0.55996  -0.55152
 Alpha  occ. eigenvalues --   -0.54959  -0.54805  -0.54512  -0.54263  -0.53799
 Alpha  occ. eigenvalues --   -0.53646  -0.53470  -0.53280  -0.53171  -0.52837
 Alpha  occ. eigenvalues --   -0.52561  -0.52301  -0.51997  -0.51908  -0.51431
 Alpha  occ. eigenvalues --   -0.51358  -0.51110  -0.51036  -0.50839  -0.50780
 Alpha  occ. eigenvalues --   -0.50422  -0.50209  -0.49966  -0.49860  -0.49724
 Alpha  occ. eigenvalues --   -0.49661  -0.49416  -0.49141  -0.48777  -0.48711
 Alpha  occ. eigenvalues --   -0.48634  -0.48527  -0.48377  -0.48176  -0.47984
 Alpha  occ. eigenvalues --   -0.47813  -0.47767  -0.47666  -0.47396  -0.46838
 Alpha  occ. eigenvalues --   -0.46407  -0.46258  -0.46107  -0.45921  -0.45614
 Alpha  occ. eigenvalues --   -0.45601  -0.45299  -0.45180  -0.45152  -0.44913
 Alpha  occ. eigenvalues --   -0.44765  -0.44520  -0.44293  -0.43879  -0.43809
 Alpha  occ. eigenvalues --   -0.43687  -0.43461  -0.43184  -0.42992  -0.42932
 Alpha  occ. eigenvalues --   -0.42837  -0.42731  -0.42458  -0.42344  -0.42291
 Alpha  occ. eigenvalues --   -0.41990  -0.41795  -0.41328  -0.41057  -0.40988
 Alpha  occ. eigenvalues --   -0.40719  -0.40633  -0.40251  -0.40185  -0.39841
 Alpha  occ. eigenvalues --   -0.39748  -0.39588  -0.39237  -0.38920  -0.38785
 Alpha  occ. eigenvalues --   -0.38758  -0.38647  -0.38123  -0.37471  -0.37421
 Alpha  occ. eigenvalues --   -0.37131  -0.36817  -0.36586  -0.36508  -0.36373
 Alpha  occ. eigenvalues --   -0.35822  -0.35270  -0.34621  -0.34384  -0.34211
 Alpha  occ. eigenvalues --   -0.33913  -0.33633  -0.33140  -0.31694  -0.30949
 Alpha  occ. eigenvalues --   -0.30316  -0.30257  -0.30080  -0.30003  -0.23967
 Alpha  occ. eigenvalues --   -0.21195
 Alpha virt. eigenvalues --   -0.09012  -0.01499  -0.00064   0.01967   0.02960
 Alpha virt. eigenvalues --    0.05018   0.05357   0.06172   0.06375   0.06465
 Alpha virt. eigenvalues --    0.07706   0.08634   0.08656   0.08868   0.09135

 Mulliken charges:
               1
     1  Mg   0.822735
     2  C    0.002179
     3  C   -0.101956
     4  C   -0.041346
     5  C   -0.091545
     6  N   -0.284309
     7  C   -0.062294
     8  C    0.014892
     9  C   -0.046187
    10  C    0.026869
    11  C    0.078788
    12  C    0.028266
    13  C    0.028158
    14  C    0.159220
    15  O   -0.192888
    16  O   -0.351117
    17  N   -0.357323
    18  C    0.182502
    19  C   -0.138470
    20  C   -0.072757
    21  C    0.111046
    22  C    0.094006
    23  C    0.032709
    24  O   -0.238206
    25  C    0.061270
    26  N   -0.315096
    27  C    0.045133
    28  C   -0.092955
    29  C   -0.033125
    30  C    0.040972
    31  C    0.083095
    32  C    0.051380
    33  C   -0.011233
    34  N   -0.253246
    35  C    0.138512
    36  C   -0.184863
    37  C    0.017070
    38  C    0.039570
    39  C    0.134227
    40  C    0.053241
    41  O   -0.179591
    42  C   -0.065358
    43  C    0.226680
    44  O   -0.214877
    45  O   -0.336311
    46  C    0.185989
    47  C    0.289880
    48  C   -0.117874
    49  C   -0.173776
    50  C    0.088974
    51  C    0.069587
    52  C    0.009239
    53  C    0.053570
    54  C   -0.119276
    55  C    0.056625
    56  C    0.079536
    57  C   -0.034037
    58  C    0.055255
    59  C   -0.153003
    60  C    0.041885
    61  C    0.078883
    62  C    0.016098
    63  C    0.052491
    64  C   -0.139183
    65  C    0.034993
    66  C    0.053774
    67  H   -0.032765
    68  H    0.004921
    69  H   -0.024937
    70  H    0.026699
    71  H    0.006464
    72  H    0.001458
    73  H    0.025674
    74  H    0.020463
    75  H    0.009811
    76  H    0.040967
    77  H    0.018451
    78  H    0.047305
    79  H    0.027047
    80  H    0.036663
    81  H    0.013819
    82  H    0.042114
    83  H    0.027941
    84  H    0.039957
    85  H    0.012619
    86  H    0.002870
    87  H    0.023067
    88  H    0.031792
    89  H    0.020389
    90  H    0.005764
    91  H    0.010172
    92  H    0.013403
    93  H    0.016850
    94  H    0.020400
    95  H    0.034054
    96  H    0.045801
    97  H   -0.007879
    98  H    0.064409
    99  H    0.017714
   100  H    0.030934
   101  H    0.033949
   102  H    0.039489
   103  H    0.029500
   104  H   -0.001471
   105  H    0.008958
   106  H    0.018045
   107  H    0.018505
   108  H    0.005751
   109  H   -0.029146
   110  H   -0.005597
   111  H    0.009153
   112  H    0.002944
   113  H   -0.006043
   114  H    0.004988
   115  H    0.003416
   116  H    0.000209
   117  H    0.023028
   118  H   -0.018776
   119  H    0.002231
   120  H   -0.020263
   121  H   -0.022536
   122  H   -0.004733
   123  H    0.005052
   124  H    0.008222
   125  H    0.002655
   126  H    0.002673
   127  H    0.008821
   128  H   -0.006849
   129  H    0.000598
   130  H   -0.001071
   131  H   -0.004846
   132  H   -0.016133
   133  H   -0.002992
   134  H   -0.005368
   135  H   -0.006956
   136  H    0.006854
   137  H    0.002815
   138  H    0.003493
   139  H   -0.007373
   140  H    0.007291
 Sum of Mulliken charges =  -0.00000

 Dipole moment (field-independent basis, Debye):
    X=             -3.6953    Y=              5.5671    Z=             -0.3253  Tot=              6.6899
 Quadrupole moment (field-independent basis, Debye-Ang):
   XX=           -378.4955   YY=           -431.6045   ZZ=           -406.4093
   XY=             14.6352   XZ=             16.7278   YZ=              3.7193

 Normal termination of Gaussian 16 at Wed Apr 27 10:19:34 2022.
