 Gaussian 16, Revision A.03,
 Gaussian 16:  ES64L-G16RevA.03 25-Dec-2016

 ---------------------------------
 #p PBE1PBE/Def2SVP td=(nstates=5)
 ---------------------------------

 ------------------------------------------------------
 step_1151_chromophore_16 TDDFT with PBE1PBE functional
 ------------------------------------------------------
 Symbolic Z-matrix:
 Charge =  0 Multiplicity = 1

                         Standard orientation:
 ---------------------------------------------------------------------
 Center     Atomic      Atomic             Coordinates (Angstroms)
 Number     Number       Type             X           Y           Z
 ---------------------------------------------------------------------
      1         12           0        6.390720    0.569592   -0.157797
      2          6           0        4.230481   -2.249254    0.050356
      3          6           0        3.670887    2.395025   -1.186407
      4          6           0        8.406603    3.227422   -0.361243
      5          6           0        8.924983   -1.444601    1.001808
      6          7           0        4.277489    0.017113   -0.691847
      7          6           0        3.545825   -1.107244   -0.378651
      8          6           0        1.995594   -1.003810   -0.672832
      9          6           0        1.927503    0.479353   -1.119912
     10          6           0        3.372233    1.021620   -1.037769
     11          6           0        1.281541    0.710013   -2.475152
     12          6           0        1.201393   -1.306827    0.590819
     13          6           0       -0.345247   -0.983106    0.476857
     14          6           0       -1.313712   -2.201343    0.601627
     15          8           0       -1.247572   -3.114405    1.361667
     16          8           0       -2.412348   -1.971279   -0.195064
     17          7           0        6.047076    2.546816   -0.810878
     18          6           0        4.880886    3.091996   -1.178159
     19          6           0        5.092817    4.507740   -1.502202
     20          6           0        6.431199    4.844996   -1.034305
     21          6           0        7.052258    3.496440   -0.752282
     22          6           0        4.032738    5.442333   -1.833036
     23          6           0        7.066308    6.178859   -0.627314
     24          8           0        8.251996    6.245108   -0.203544
     25          6           0        6.201248    7.390554   -0.550041
     26          7           0        8.357080    0.817389    0.306887
     27          6           0        8.970808    1.999401    0.110044
     28          6           0       10.500813    1.824742    0.654473
     29          6           0       10.462596    0.412751    1.399793
     30          6           0        9.191930   -0.115738    0.838050
     31          6           0       11.505837    1.835547   -0.556381
     32          6           0       10.310959    0.507753    2.986418
     33          6           0        9.372085    1.601027    3.555490
     34          7           0        6.633492   -1.519795    0.226002
     35          6           0        7.771925   -2.135727    0.675263
     36          6           0        7.489585   -3.550707    0.899070
     37          6           0        6.101069   -3.670247    0.672636
     38          6           0        5.678470   -2.363778    0.267670
     39          6           0        8.561605   -4.575538    1.356081
     40          6           0        4.946686   -4.550315    0.751438
     41          8           0        4.748296   -5.697973    1.163665
     42          6           0        3.703901   -3.559044    0.485713
     43          6           0        3.005932   -4.269778   -0.658217
     44          8           0        3.373589   -4.351701   -1.815548
     45          8           0        1.819815   -4.879369   -0.250691
     46          6           0        0.905132   -5.448132   -1.196239
     47          6           0       -3.514451   -2.931611   -0.152340
     48          6           0       -4.644215   -2.017054   -0.589722
     49          6           0       -5.838753   -2.340727   -1.083203
     50          6           0       -6.300720   -3.721196   -1.393163
     51          6           0       -6.847398   -1.219900   -1.376087
     52          6           0       -8.116088   -1.231832   -0.678961
     53          6           0       -8.727571    0.191385   -0.416238
     54          6           0      -10.038570    0.424566   -1.264942
     55          6           0       -9.775286    1.135254   -2.670718
     56          6           0      -11.044552    1.181429   -0.375944
     57          6           0      -12.059824    0.194873    0.107178
     58          6           0      -13.184027   -0.263427   -0.912514
     59          6           0      -14.555131   -0.317504   -0.116614
     60          6           0      -15.446713   -1.484111   -0.732269
     61          6           0      -15.282988    1.066807   -0.223272
     62          6           0      -15.741482    1.575251    1.239594
     63          6           0      -15.040830    2.939481    1.505730
     64          6           0      -13.934377    2.899038    2.572120
     65          6           0      -12.820608    3.900763    2.379621
     66          6           0      -14.468504    3.014789    4.009039
     67          1           0        2.753772    2.949929   -1.394997
     68          1           0        9.092694    4.076001   -0.413213
     69          1           0        9.717872   -1.954403    1.551454
     70          1           0        1.774831   -1.618866   -1.545900
     71          1           0        1.451016    1.048477   -0.322199
     72          1           0        1.763667    1.544807   -2.983914
     73          1           0        0.231145    0.979595   -2.366426
     74          1           0        1.427545   -0.066327   -3.226600
     75          1           0        1.594271   -0.906110    1.524335
     76          1           0        1.282381   -2.385591    0.723626
     77          1           0       -0.494666   -0.660453   -0.553091
     78          1           0       -0.587381   -0.119559    1.096136
     79          1           0        4.356289    6.082006   -2.653884
     80          1           0        3.744056    6.065225   -0.986626
     81          1           0        3.137496    4.935946   -2.196505
     82          1           0        6.617467    8.197944    0.051976
     83          1           0        5.370556    6.883741   -0.058685
     84          1           0        5.837495    7.708778   -1.526741
     85          1           0       10.679988    2.690056    1.293054
     86          1           0       11.406751   -0.081517    1.169820
     87          1           0       12.348065    1.197039   -0.292544
     88          1           0       11.715640    2.872616   -0.818213
     89          1           0       10.878705    1.397224   -1.333578
     90          1           0       11.308107    0.769750    3.339416
     91          1           0       10.082020   -0.493965    3.351031
     92          1           0        9.869291    2.554989    3.727587
     93          1           0        8.939609    1.355793    4.526359
     94          1           0        8.550338    1.892200    2.900910
     95          1           0        8.755046   -5.272724    0.540629
     96          1           0        8.260224   -5.017051    2.305930
     97          1           0        9.551015   -4.128506    1.450050
     98          1           0        3.273257   -3.415796    1.477340
     99          1           0        0.740213   -4.793059   -2.051217
    100          1           0       -0.054577   -5.556775   -0.690317
    101          1           0        1.198313   -6.436015   -1.550661
    102          1           0       -3.627999   -3.262745    0.879240
    103          1           0       -3.210703   -3.786896   -0.755984
    104          1           0       -4.506746   -0.942631   -0.469839
    105          1           0       -5.704568   -4.554972   -1.020726
    106          1           0       -6.254579   -3.802479   -2.479015
    107          1           0       -7.330442   -3.899929   -1.085527
    108          1           0       -6.918040   -1.162811   -2.462177
    109          1           0       -6.324777   -0.302404   -1.107071
    110          1           0       -7.955129   -1.634721    0.321559
    111          1           0       -8.655105   -1.997171   -1.237959
    112          1           0       -7.953387    0.954692   -0.498093
    113          1           0       -8.998926    0.189991    0.640280
    114          1           0      -10.436675   -0.575084   -1.437841
    115          1           0      -10.300324    0.691753   -3.516266
    116          1           0       -8.745989    0.832676   -2.864978
    117          1           0      -10.040861    2.192289   -2.640132
    118          1           0      -11.657596    1.933024   -0.873501
    119          1           0      -10.608959    1.730406    0.459540
    120          1           0      -12.557125    0.459770    1.040603
    121          1           0      -11.514272   -0.680366    0.458206
    122          1           0      -12.926634   -1.291321   -1.166610
    123          1           0      -13.126896    0.408770   -1.768699
    124          1           0      -14.336478   -0.667351    0.891582
    125          1           0      -16.439417   -1.173943   -1.058590
    126          1           0      -15.642079   -2.216275    0.051109
    127          1           0      -14.920150   -1.937553   -1.571948
    128          1           0      -16.165224    0.946726   -0.851845
    129          1           0      -14.707025    1.798125   -0.789518
    130          1           0      -15.523438    0.846176    2.019430
    131          1           0      -16.823963    1.660939    1.339885
    132          1           0      -15.826255    3.583246    1.900329
    133          1           0      -14.631605    3.442377    0.629257
    134          1           0      -13.450400    1.946184    2.356991
    135          1           0      -12.354167    4.337464    3.263514
    136          1           0      -13.162443    4.809073    1.883405
    137          1           0      -11.956765    3.398222    1.945152
    138          1           0      -14.482088    2.083582    4.574841
    139          1           0      -15.523807    3.281101    4.069368
    140          1           0      -13.952983    3.785896    4.581663
 ---------------------------------------------------------------------

 SCF Done:  E(RPBE1PBE) =  -3005.34355946     A.U. after   16 cycles

 Excitation energies and oscillator strengths:

 Excited State   1:      Singlet-A      1.8079 eV  685.80 nm  f=0.3750  <S**2>=0.000
     245 -> 248       -0.13638
     246 -> 247        0.69649
     246 <- 247       -0.11430
 This state for optimization and/or second-order correction.
 Total Energy, E(TD-HF/TD-DFT) =  -3005.27712114
 Copying the excited state density for this state as the 1-particle RhoCI density.

 Excited State   2:      Singlet-A      2.1547 eV  575.41 nm  f=0.1397  <S**2>=0.000
     245 -> 247        0.66566
     246 -> 248        0.20017
     246 -> 249        0.11348

 Excited State   3:      Singlet-A      2.8771 eV  430.94 nm  f=0.0008  <S**2>=0.000
     244 -> 247        0.67648
     244 -> 249       -0.12771
     244 -> 250        0.11651

 Excited State   4:      Singlet-A      2.9895 eV  414.74 nm  f=0.0048  <S**2>=0.000
     239 -> 247       -0.11224
     240 -> 247       -0.26682
     241 -> 247       -0.34230
     242 -> 247        0.50120

 Excited State   5:      Singlet-A      3.0935 eV  400.79 nm  f=0.0005  <S**2>=0.000
     240 -> 247        0.21363
     241 -> 247        0.45625
     242 -> 247        0.47233

 The electronic state is 1-A.
 Alpha  occ. eigenvalues --  -46.92455 -19.24978 -19.23792 -19.20541 -19.19411
 Alpha  occ. eigenvalues --  -19.19180 -19.19089 -14.41987 -14.41873 -14.39717
 Alpha  occ. eigenvalues --  -14.38668 -10.36453 -10.36004 -10.33061 -10.32199
 Alpha  occ. eigenvalues --  -10.29705 -10.29418 -10.29300 -10.28976 -10.28967
 Alpha  occ. eigenvalues --  -10.28182 -10.27791 -10.27747 -10.26821 -10.26801
 Alpha  occ. eigenvalues --  -10.26451 -10.26377 -10.26117 -10.26031 -10.25939
 Alpha  occ. eigenvalues --  -10.25933 -10.25820 -10.25604 -10.25443 -10.25185
 Alpha  occ. eigenvalues --  -10.24813 -10.24792 -10.24759 -10.24745 -10.24536
 Alpha  occ. eigenvalues --  -10.24273 -10.24030 -10.24020 -10.23937 -10.23846
 Alpha  occ. eigenvalues --  -10.23825 -10.23821 -10.23456 -10.23446 -10.23384
 Alpha  occ. eigenvalues --  -10.23082 -10.22946 -10.22941 -10.22934 -10.22884
 Alpha  occ. eigenvalues --  -10.22862 -10.22717 -10.22658 -10.22615 -10.22443
 Alpha  occ. eigenvalues --  -10.22018 -10.21965 -10.21808 -10.21666 -10.21485
 Alpha  occ. eigenvalues --  -10.21416  -3.14549  -1.87411  -1.86903  -1.86791
 Alpha  occ. eigenvalues --   -1.11818  -1.09664  -1.03702  -1.03455  -1.02897
 Alpha  occ. eigenvalues --   -1.01518  -1.00084  -0.98641  -0.98011  -0.96919
 Alpha  occ. eigenvalues --   -0.86489  -0.85398  -0.84235  -0.83676  -0.83579
 Alpha  occ. eigenvalues --   -0.82828  -0.82547  -0.81997  -0.81472  -0.81180
 Alpha  occ. eigenvalues --   -0.80555  -0.79828  -0.78875  -0.77509  -0.77414
 Alpha  occ. eigenvalues --   -0.76911  -0.76254  -0.75625  -0.74865  -0.74320
 Alpha  occ. eigenvalues --   -0.73943  -0.72572  -0.72410  -0.71803  -0.70455
 Alpha  occ. eigenvalues --   -0.70204  -0.69487  -0.69095  -0.68899  -0.68261
 Alpha  occ. eigenvalues --   -0.67861  -0.67257  -0.65967  -0.64724  -0.64106
 Alpha  occ. eigenvalues --   -0.62848  -0.62261  -0.61901  -0.61266  -0.60020
 Alpha  occ. eigenvalues --   -0.59759  -0.59588  -0.59102  -0.58544  -0.58274
 Alpha  occ. eigenvalues --   -0.57979  -0.57891  -0.56854  -0.56190  -0.54717
 Alpha  occ. eigenvalues --   -0.54512  -0.53965  -0.53694  -0.53402  -0.52827
 Alpha  occ. eigenvalues --   -0.52429  -0.52080  -0.50913  -0.50466  -0.49736
 Alpha  occ. eigenvalues --   -0.49457  -0.49366  -0.49013  -0.48791  -0.48276
 Alpha  occ. eigenvalues --   -0.48112  -0.47921  -0.47681  -0.47640  -0.47344
 Alpha  occ. eigenvalues --   -0.47155  -0.46835  -0.46607  -0.46438  -0.46011
 Alpha  occ. eigenvalues --   -0.45893  -0.45691  -0.45569  -0.45355  -0.45288
 Alpha  occ. eigenvalues --   -0.44933  -0.44770  -0.44525  -0.44448  -0.44326
 Alpha  occ. eigenvalues --   -0.44274  -0.44010  -0.43781  -0.43423  -0.43318
 Alpha  occ. eigenvalues --   -0.43263  -0.43159  -0.42998  -0.42782  -0.42550
 Alpha  occ. eigenvalues --   -0.42413  -0.42387  -0.42266  -0.42124  -0.41523
 Alpha  occ. eigenvalues --   -0.41181  -0.40954  -0.40799  -0.40637  -0.40373
 Alpha  occ. eigenvalues --   -0.40194  -0.39974  -0.39899  -0.39823  -0.39707
 Alpha  occ. eigenvalues --   -0.39544  -0.39357  -0.38992  -0.38597  -0.38557
 Alpha  occ. eigenvalues --   -0.38451  -0.38235  -0.37946  -0.37814  -0.37729
 Alpha  occ. eigenvalues --   -0.37656  -0.37533  -0.37425  -0.37188  -0.37085
 Alpha  occ. eigenvalues --   -0.36846  -0.36741  -0.36099  -0.35868  -0.35833
 Alpha  occ. eigenvalues --   -0.35461  -0.35421  -0.35115  -0.34945  -0.34795
 Alpha  occ. eigenvalues --   -0.34694  -0.34346  -0.34021  -0.33910  -0.33736
 Alpha  occ. eigenvalues --   -0.33604  -0.33405  -0.32848  -0.32483  -0.32214
 Alpha  occ. eigenvalues --   -0.32123  -0.31913  -0.31699  -0.31360  -0.31311
 Alpha  occ. eigenvalues --   -0.30709  -0.30222  -0.29758  -0.29375  -0.29213
 Alpha  occ. eigenvalues --   -0.28850  -0.28796  -0.28376  -0.26903  -0.26128
 Alpha  occ. eigenvalues --   -0.25865  -0.25552  -0.25547  -0.25223  -0.20896
 Alpha  occ. eigenvalues --   -0.18848
 Alpha virt. eigenvalues --   -0.11475  -0.05162  -0.04107  -0.02460   0.00011
 Alpha virt. eigenvalues --    0.00574   0.01388   0.01676   0.01983   0.02469
 Alpha virt. eigenvalues --    0.03695   0.04647   0.05267   0.05353   0.05815

 Mulliken charges:
               1
     1  Mg   0.973189
     2  C   -0.001445
     3  C   -0.091371
     4  C   -0.034028
     5  C   -0.079872
     6  N   -0.384519
     7  C    0.013154
     8  C   -0.057971
     9  C   -0.127395
    10  C    0.066786
    11  C    0.022397
    12  C   -0.020071
    13  C   -0.050544
    14  C    0.228081
    15  O   -0.227199
    16  O   -0.382760
    17  N   -0.472457
    18  C    0.202571
    19  C   -0.164540
    20  C   -0.113752
    21  C    0.140301
    22  C    0.031653
    23  C    0.077574
    24  O   -0.275664
    25  C   -0.013700
    26  N   -0.427434
    27  C    0.073781
    28  C   -0.166848
    29  C   -0.105703
    30  C    0.072987
    31  C    0.024641
    32  C   -0.007282
    33  C   -0.085739
    34  N   -0.387957
    35  C    0.159043
    36  C   -0.190924
    37  C   -0.032408
    38  C    0.101337
    39  C    0.083280
    40  C    0.146568
    41  O   -0.221504
    42  C   -0.185961
    43  C    0.317855
    44  O   -0.249668
    45  O   -0.370582
    46  C    0.132143
    47  C    0.255781
    48  C   -0.132597
    49  C   -0.221080
    50  C    0.029686
    51  C    0.008203
    52  C   -0.055668
    53  C   -0.001155
    54  C   -0.203996
    55  C   -0.004277
    56  C    0.020633
    57  C   -0.101924
    58  C    0.002093
    59  C   -0.242092
    60  C   -0.014478
    61  C    0.031144
    62  C   -0.044857
    63  C   -0.003923
    64  C   -0.245959
    65  C   -0.025858
    66  C   -0.002873
    67  H   -0.000458
    68  H    0.035812
    69  H    0.005354
    70  H    0.063278
    71  H    0.045132
    72  H    0.029885
    73  H    0.051802
    74  H    0.047000
    75  H    0.041323
    76  H    0.080082
    77  H    0.055477
    78  H    0.077514
    79  H    0.055240
    80  H    0.062374
    81  H    0.040599
    82  H    0.068203
    83  H    0.055828
    84  H    0.066306
    85  H    0.048804
    86  H    0.037872
    87  H    0.050052
    88  H    0.059705
    89  H    0.049486
    90  H    0.040421
    91  H    0.043199
    92  H    0.040862
    93  H    0.045444
    94  H    0.053305
    95  H    0.062432
    96  H    0.072817
    97  H    0.019778
    98  H    0.099135
    99  H    0.039649
   100  H    0.052897
   101  H    0.056016
   102  H    0.065956
   103  H    0.054583
   104  H    0.028222
   105  H    0.036076
   106  H    0.046780
   107  H    0.045276
   108  H    0.038995
   109  H    0.003813
   110  H    0.029017
   111  H    0.039673
   112  H    0.033837
   113  H    0.026865
   114  H    0.043938
   115  H    0.031097
   116  H    0.030094
   117  H    0.049176
   118  H    0.015072
   119  H    0.034944
   120  H    0.018637
   121  H    0.013049
   122  H    0.028190
   123  H    0.036316
   124  H    0.043553
   125  H    0.029443
   126  H    0.030236
   127  H    0.035255
   128  H    0.025384
   129  H    0.030698
   130  H    0.029951
   131  H    0.027234
   132  H    0.017643
   133  H    0.028762
   134  H    0.043372
   135  H    0.020389
   136  H    0.033560
   137  H    0.033923
   138  H    0.030224
   139  H    0.019400
   140  H    0.033902
 Sum of Mulliken charges =  -0.00000

 Dipole moment (field-independent basis, Debye):
    X=             -3.6518    Y=              5.0772    Z=             -0.1242  Tot=              6.2553
 Quadrupole moment (field-independent basis, Debye-Ang):
   XX=           -371.8884   YY=           -429.8694   ZZ=           -403.7973
   XY=             11.5521   XZ=             18.7824   YZ=              3.9759

 Normal termination of Gaussian 16 at Wed Apr 27 10:38:03 2022.
