 Gaussian 16, Revision A.03,
 Gaussian 16:  ES64L-G16RevA.03 25-Dec-2016

 --------------------------------
 #p wB97XD/Def2SVP td=(nstates=5)
 --------------------------------

 -----------------------------------------------------
 step_1151_chromophore_16 TDDFT with wB97XD functional
 -----------------------------------------------------
 Symbolic Z-matrix:
 Charge =  0 Multiplicity = 1

                         Standard orientation:
 ---------------------------------------------------------------------
 Center     Atomic      Atomic             Coordinates (Angstroms)
 Number     Number       Type             X           Y           Z
 ---------------------------------------------------------------------
      1         12           0        6.390720    0.569592   -0.157797
      2          6           0        4.230481   -2.249254    0.050356
      3          6           0        3.670887    2.395025   -1.186407
      4          6           0        8.406603    3.227422   -0.361243
      5          6           0        8.924983   -1.444601    1.001808
      6          7           0        4.277489    0.017113   -0.691847
      7          6           0        3.545825   -1.107244   -0.378651
      8          6           0        1.995594   -1.003810   -0.672832
      9          6           0        1.927503    0.479353   -1.119912
     10          6           0        3.372233    1.021620   -1.037769
     11          6           0        1.281541    0.710013   -2.475152
     12          6           0        1.201393   -1.306827    0.590819
     13          6           0       -0.345247   -0.983106    0.476857
     14          6           0       -1.313712   -2.201343    0.601627
     15          8           0       -1.247572   -3.114405    1.361667
     16          8           0       -2.412348   -1.971279   -0.195064
     17          7           0        6.047076    2.546816   -0.810878
     18          6           0        4.880886    3.091996   -1.178159
     19          6           0        5.092817    4.507740   -1.502202
     20          6           0        6.431199    4.844996   -1.034305
     21          6           0        7.052258    3.496440   -0.752282
     22          6           0        4.032738    5.442333   -1.833036
     23          6           0        7.066308    6.178859   -0.627314
     24          8           0        8.251996    6.245108   -0.203544
     25          6           0        6.201248    7.390554   -0.550041
     26          7           0        8.357080    0.817389    0.306887
     27          6           0        8.970808    1.999401    0.110044
     28          6           0       10.500813    1.824742    0.654473
     29          6           0       10.462596    0.412751    1.399793
     30          6           0        9.191930   -0.115738    0.838050
     31          6           0       11.505837    1.835547   -0.556381
     32          6           0       10.310959    0.507753    2.986418
     33          6           0        9.372085    1.601027    3.555490
     34          7           0        6.633492   -1.519795    0.226002
     35          6           0        7.771925   -2.135727    0.675263
     36          6           0        7.489585   -3.550707    0.899070
     37          6           0        6.101069   -3.670247    0.672636
     38          6           0        5.678470   -2.363778    0.267670
     39          6           0        8.561605   -4.575538    1.356081
     40          6           0        4.946686   -4.550315    0.751438
     41          8           0        4.748296   -5.697973    1.163665
     42          6           0        3.703901   -3.559044    0.485713
     43          6           0        3.005932   -4.269778   -0.658217
     44          8           0        3.373589   -4.351701   -1.815548
     45          8           0        1.819815   -4.879369   -0.250691
     46          6           0        0.905132   -5.448132   -1.196239
     47          6           0       -3.514451   -2.931611   -0.152340
     48          6           0       -4.644215   -2.017054   -0.589722
     49          6           0       -5.838753   -2.340727   -1.083203
     50          6           0       -6.300720   -3.721196   -1.393163
     51          6           0       -6.847398   -1.219900   -1.376087
     52          6           0       -8.116088   -1.231832   -0.678961
     53          6           0       -8.727571    0.191385   -0.416238
     54          6           0      -10.038570    0.424566   -1.264942
     55          6           0       -9.775286    1.135254   -2.670718
     56          6           0      -11.044552    1.181429   -0.375944
     57          6           0      -12.059824    0.194873    0.107178
     58          6           0      -13.184027   -0.263427   -0.912514
     59          6           0      -14.555131   -0.317504   -0.116614
     60          6           0      -15.446713   -1.484111   -0.732269
     61          6           0      -15.282988    1.066807   -0.223272
     62          6           0      -15.741482    1.575251    1.239594
     63          6           0      -15.040830    2.939481    1.505730
     64          6           0      -13.934377    2.899038    2.572120
     65          6           0      -12.820608    3.900763    2.379621
     66          6           0      -14.468504    3.014789    4.009039
     67          1           0        2.753772    2.949929   -1.394997
     68          1           0        9.092694    4.076001   -0.413213
     69          1           0        9.717872   -1.954403    1.551454
     70          1           0        1.774831   -1.618866   -1.545900
     71          1           0        1.451016    1.048477   -0.322199
     72          1           0        1.763667    1.544807   -2.983914
     73          1           0        0.231145    0.979595   -2.366426
     74          1           0        1.427545   -0.066327   -3.226600
     75          1           0        1.594271   -0.906110    1.524335
     76          1           0        1.282381   -2.385591    0.723626
     77          1           0       -0.494666   -0.660453   -0.553091
     78          1           0       -0.587381   -0.119559    1.096136
     79          1           0        4.356289    6.082006   -2.653884
     80          1           0        3.744056    6.065225   -0.986626
     81          1           0        3.137496    4.935946   -2.196505
     82          1           0        6.617467    8.197944    0.051976
     83          1           0        5.370556    6.883741   -0.058685
     84          1           0        5.837495    7.708778   -1.526741
     85          1           0       10.679988    2.690056    1.293054
     86          1           0       11.406751   -0.081517    1.169820
     87          1           0       12.348065    1.197039   -0.292544
     88          1           0       11.715640    2.872616   -0.818213
     89          1           0       10.878705    1.397224   -1.333578
     90          1           0       11.308107    0.769750    3.339416
     91          1           0       10.082020   -0.493965    3.351031
     92          1           0        9.869291    2.554989    3.727587
     93          1           0        8.939609    1.355793    4.526359
     94          1           0        8.550338    1.892200    2.900910
     95          1           0        8.755046   -5.272724    0.540629
     96          1           0        8.260224   -5.017051    2.305930
     97          1           0        9.551015   -4.128506    1.450050
     98          1           0        3.273257   -3.415796    1.477340
     99          1           0        0.740213   -4.793059   -2.051217
    100          1           0       -0.054577   -5.556775   -0.690317
    101          1           0        1.198313   -6.436015   -1.550661
    102          1           0       -3.627999   -3.262745    0.879240
    103          1           0       -3.210703   -3.786896   -0.755984
    104          1           0       -4.506746   -0.942631   -0.469839
    105          1           0       -5.704568   -4.554972   -1.020726
    106          1           0       -6.254579   -3.802479   -2.479015
    107          1           0       -7.330442   -3.899929   -1.085527
    108          1           0       -6.918040   -1.162811   -2.462177
    109          1           0       -6.324777   -0.302404   -1.107071
    110          1           0       -7.955129   -1.634721    0.321559
    111          1           0       -8.655105   -1.997171   -1.237959
    112          1           0       -7.953387    0.954692   -0.498093
    113          1           0       -8.998926    0.189991    0.640280
    114          1           0      -10.436675   -0.575084   -1.437841
    115          1           0      -10.300324    0.691753   -3.516266
    116          1           0       -8.745989    0.832676   -2.864978
    117          1           0      -10.040861    2.192289   -2.640132
    118          1           0      -11.657596    1.933024   -0.873501
    119          1           0      -10.608959    1.730406    0.459540
    120          1           0      -12.557125    0.459770    1.040603
    121          1           0      -11.514272   -0.680366    0.458206
    122          1           0      -12.926634   -1.291321   -1.166610
    123          1           0      -13.126896    0.408770   -1.768699
    124          1           0      -14.336478   -0.667351    0.891582
    125          1           0      -16.439417   -1.173943   -1.058590
    126          1           0      -15.642079   -2.216275    0.051109
    127          1           0      -14.920150   -1.937553   -1.571948
    128          1           0      -16.165224    0.946726   -0.851845
    129          1           0      -14.707025    1.798125   -0.789518
    130          1           0      -15.523438    0.846176    2.019430
    131          1           0      -16.823963    1.660939    1.339885
    132          1           0      -15.826255    3.583246    1.900329
    133          1           0      -14.631605    3.442377    0.629257
    134          1           0      -13.450400    1.946184    2.356991
    135          1           0      -12.354167    4.337464    3.263514
    136          1           0      -13.162443    4.809073    1.883405
    137          1           0      -11.956765    3.398222    1.945152
    138          1           0      -14.482088    2.083582    4.574841
    139          1           0      -15.523807    3.281101    4.069368
    140          1           0      -13.952983    3.785896    4.581663
 ---------------------------------------------------------------------

 SCF Done:  E(RwB97XD) =  -3007.85486601     A.U. after   20 cycles

 Excitation energies and oscillator strengths:

 Excited State   1:      Singlet-A      1.6134 eV  768.49 nm  f=0.3874  <S**2>=0.000
     245 -> 248       -0.15980
     246 -> 247        0.68634
     245 <- 248       -0.10658
 This state for optimization and/or second-order correction.
 Total Energy, E(TD-HF/TD-DFT) =  -3007.79557626
 Copying the excited state density for this state as the 1-particle RhoCI density.

 Excited State   2:      Singlet-A      2.1104 eV  587.49 nm  f=0.1376  <S**2>=0.000
     245 -> 247        0.65171
     246 -> 248        0.24894

 Excited State   3:      Singlet-A      3.3968 eV  365.00 nm  f=0.0047  <S**2>=0.000
     241 -> 247        0.49029
     243 -> 247       -0.42991
     246 -> 248       -0.14817

 Excited State   4:      Singlet-A      3.4798 eV  356.29 nm  f=0.0081  <S**2>=0.000
     239 -> 247       -0.21989
     239 -> 248        0.10293
     239 -> 249       -0.13804
     240 -> 247       -0.20722
     240 -> 249       -0.15558
     241 -> 247        0.11212
     243 -> 247        0.21191
     244 -> 247        0.39594
     244 -> 249       -0.18147
     244 -> 250        0.21016

 Excited State   5:      Singlet-A      3.4903 eV  355.22 nm  f=0.0900  <S**2>=0.000
     239 -> 247        0.23200
     239 -> 248       -0.11425
     239 -> 249        0.16473
     240 -> 247        0.29092
     240 -> 249        0.10666
     244 -> 247        0.33780
     244 -> 249       -0.16919
     244 -> 250        0.16957
     246 -> 248       -0.25929

 The electronic state is 1-A.
 Alpha  occ. eigenvalues --  -46.95390 -19.29479 -19.28302 -19.25173 -19.24251
 Alpha  occ. eigenvalues --  -19.24055 -19.23662 -14.46999 -14.46992 -14.44792
 Alpha  occ. eigenvalues --  -14.43477 -10.43189 -10.42760 -10.40157 -10.38851
 Alpha  occ. eigenvalues --  -10.36178 -10.35829 -10.35793 -10.35570 -10.35074
 Alpha  occ. eigenvalues --  -10.34885 -10.34204 -10.33768 -10.33655 -10.32823
 Alpha  occ. eigenvalues --  -10.32722 -10.32679 -10.32434 -10.32237 -10.32188
 Alpha  occ. eigenvalues --  -10.32150 -10.31994 -10.31927 -10.31720 -10.31361
 Alpha  occ. eigenvalues --  -10.31318 -10.31286 -10.31237 -10.31099 -10.30929
 Alpha  occ. eigenvalues --  -10.30806 -10.30616 -10.30306 -10.30279 -10.30195
 Alpha  occ. eigenvalues --  -10.30181 -10.30083 -10.29839 -10.29835 -10.29795
 Alpha  occ. eigenvalues --  -10.29322 -10.29312 -10.29292 -10.29215 -10.29180
 Alpha  occ. eigenvalues --  -10.29081 -10.29069 -10.29033 -10.29002 -10.28881
 Alpha  occ. eigenvalues --  -10.28383 -10.28331 -10.28173 -10.28078 -10.27918
 Alpha  occ. eigenvalues --  -10.27846  -3.21340  -1.94951  -1.94442  -1.94331
 Alpha  occ. eigenvalues --   -1.19138  -1.16998  -1.10989  -1.10731  -1.10660
 Alpha  occ. eigenvalues --   -1.08817  -1.07188  -1.06029  -1.05521  -1.04325
 Alpha  occ. eigenvalues --   -0.93962  -0.93056  -0.91846  -0.91350  -0.91174
 Alpha  occ. eigenvalues --   -0.90491  -0.90376  -0.89723  -0.89015  -0.88841
 Alpha  occ. eigenvalues --   -0.88064  -0.87438  -0.86528  -0.85361  -0.84983
 Alpha  occ. eigenvalues --   -0.84653  -0.83908  -0.83263  -0.82445  -0.81911
 Alpha  occ. eigenvalues --   -0.81605  -0.80389  -0.80004  -0.79362  -0.78116
 Alpha  occ. eigenvalues --   -0.77784  -0.77188  -0.76636  -0.76570  -0.75934
 Alpha  occ. eigenvalues --   -0.75473  -0.74742  -0.73555  -0.72289  -0.71639
 Alpha  occ. eigenvalues --   -0.70372  -0.69890  -0.69545  -0.68901  -0.67563
 Alpha  occ. eigenvalues --   -0.67240  -0.67102  -0.66575  -0.65967  -0.65936
 Alpha  occ. eigenvalues --   -0.65657  -0.65343  -0.64483  -0.63547  -0.62300
 Alpha  occ. eigenvalues --   -0.62007  -0.61306  -0.61045  -0.60763  -0.60234
 Alpha  occ. eigenvalues --   -0.59831  -0.59532  -0.58428  -0.57907  -0.57123
 Alpha  occ. eigenvalues --   -0.56866  -0.56726  -0.56420  -0.56186  -0.55679
 Alpha  occ. eigenvalues --   -0.55554  -0.55444  -0.55186  -0.55063  -0.54777
 Alpha  occ. eigenvalues --   -0.54528  -0.54215  -0.53891  -0.53815  -0.53318
 Alpha  occ. eigenvalues --   -0.53242  -0.53059  -0.52953  -0.52778  -0.52670
 Alpha  occ. eigenvalues --   -0.52430  -0.52109  -0.51832  -0.51750  -0.51594
 Alpha  occ. eigenvalues --   -0.51567  -0.51288  -0.51060  -0.50688  -0.50617
 Alpha  occ. eigenvalues --   -0.50544  -0.50420  -0.50282  -0.50140  -0.49940
 Alpha  occ. eigenvalues --   -0.49725  -0.49691  -0.49547  -0.49314  -0.48757
 Alpha  occ. eigenvalues --   -0.48336  -0.48146  -0.48015  -0.47842  -0.47515
 Alpha  occ. eigenvalues --   -0.47449  -0.47181  -0.47083  -0.47054  -0.46846
 Alpha  occ. eigenvalues --   -0.46693  -0.46413  -0.46245  -0.45773  -0.45725
 Alpha  occ. eigenvalues --   -0.45569  -0.45367  -0.45089  -0.44877  -0.44842
 Alpha  occ. eigenvalues --   -0.44731  -0.44669  -0.44332  -0.44238  -0.44212
 Alpha  occ. eigenvalues --   -0.43914  -0.43763  -0.43397  -0.42963  -0.42902
 Alpha  occ. eigenvalues --   -0.42561  -0.42495  -0.42164  -0.42043  -0.41767
 Alpha  occ. eigenvalues --   -0.41667  -0.41444  -0.41088  -0.40826  -0.40639
 Alpha  occ. eigenvalues --   -0.40630  -0.40488  -0.39951  -0.39424  -0.39263
 Alpha  occ. eigenvalues --   -0.39155  -0.38784  -0.38696  -0.38355  -0.38242
 Alpha  occ. eigenvalues --   -0.37673  -0.37244  -0.36575  -0.36267  -0.36141
 Alpha  occ. eigenvalues --   -0.35759  -0.35564  -0.35343  -0.33767  -0.33107
 Alpha  occ. eigenvalues --   -0.32511  -0.32296  -0.32179  -0.32058  -0.25896
 Alpha  occ. eigenvalues --   -0.23003
 Alpha virt. eigenvalues --   -0.07367   0.00429   0.01954   0.04068   0.05986
 Alpha virt. eigenvalues --    0.07477   0.07969   0.08538   0.08687   0.08789
 Alpha virt. eigenvalues --    0.10206   0.11584   0.11847   0.12036   0.12575

 Mulliken charges:
               1
     1  Mg   0.961923
     2  C   -0.006331
     3  C   -0.114427
     4  C   -0.050494
     5  C   -0.093483
     6  N   -0.354309
     7  C   -0.020166
     8  C   -0.032250
     9  C   -0.101549
    10  C    0.058764
    11  C    0.030913
    12  C   -0.006577
    13  C   -0.030266
    14  C    0.218507
    15  O   -0.224801
    16  O   -0.381409
    17  N   -0.439831
    18  C    0.199460
    19  C   -0.152812
    20  C   -0.108068
    21  C    0.133478
    22  C    0.043405
    23  C    0.074801
    24  O   -0.268039
    25  C    0.001210
    26  N   -0.391304
    27  C    0.060426
    28  C   -0.141783
    29  C   -0.079030
    30  C    0.056494
    31  C    0.035246
    32  C    0.004969
    33  C   -0.066504
    34  N   -0.344774
    35  C    0.148039
    36  C   -0.193610
    37  C   -0.030356
    38  C    0.079018
    39  C    0.095660
    40  C    0.129857
    41  O   -0.215162
    42  C   -0.141544
    43  C    0.292433
    44  O   -0.243935
    45  O   -0.367686
    46  C    0.146313
    47  C    0.262978
    48  C   -0.138352
    49  C   -0.206123
    50  C    0.039615
    51  C    0.030489
    52  C   -0.039739
    53  C    0.012385
    54  C   -0.173143
    55  C    0.010851
    56  C    0.037851
    57  C   -0.070599
    58  C    0.014203
    59  C   -0.209962
    60  C   -0.001883
    61  C    0.041967
    62  C   -0.029420
    63  C    0.011904
    64  C   -0.204667
    65  C   -0.011182
    66  C    0.008019
    67  H   -0.009083
    68  H    0.033013
    69  H   -0.002308
    70  H    0.053333
    71  H    0.033553
    72  H    0.022477
    73  H    0.047444
    74  H    0.043209
    75  H    0.036446
    76  H    0.061655
    77  H    0.042787
    78  H    0.073096
    79  H    0.050879
    80  H    0.058736
    81  H    0.037503
    82  H    0.068953
    83  H    0.045634
    84  H    0.062165
    85  H    0.038167
    86  H    0.029629
    87  H    0.044714
    88  H    0.054526
    89  H    0.041909
    90  H    0.031899
    91  H    0.034736
    92  H    0.034513
    93  H    0.040868
    94  H    0.039944
    95  H    0.056874
    96  H    0.067943
    97  H    0.013085
    98  H    0.093728
    99  H    0.034627
   100  H    0.050379
   101  H    0.052183
   102  H    0.061974
   103  H    0.051074
   104  H    0.024539
   105  H    0.031771
   106  H    0.040917
   107  H    0.039700
   108  H    0.030855
   109  H   -0.008448
   110  H    0.020548
   111  H    0.030304
   112  H    0.026387
   113  H    0.018422
   114  H    0.026591
   115  H    0.025842
   116  H    0.020228
   117  H    0.044170
   118  H    0.003059
   119  H    0.025307
   120  H   -0.000738
   121  H    0.000806
   122  H    0.018770
   123  H    0.026840
   124  H    0.030852
   125  H    0.023120
   126  H    0.024889
   127  H    0.028906
   128  H    0.017380
   129  H    0.020526
   130  H    0.019922
   131  H    0.021588
   132  H    0.008021
   133  H    0.018895
   134  H    0.019775
   135  H    0.014150
   136  H    0.027521
   137  H    0.025008
   138  H    0.025259
   139  H    0.012668
   140  H    0.027778
 Sum of Mulliken charges =  -0.00000

 Dipole moment (field-independent basis, Debye):
    X=             -3.7843    Y=              5.8154    Z=             -0.3378  Tot=              6.9465
 Quadrupole moment (field-independent basis, Debye-Ang):
   XX=           -373.7372   YY=           -426.9783   ZZ=           -403.5156
   XY=             15.8824   XZ=             17.4764   YZ=              3.6024

 Normal termination of Gaussian 16 at Wed Apr 27 11:08:44 2022.
