 Gaussian 16, Revision A.03,
 Gaussian 16:  ES64L-G16RevA.03 25-Dec-2016

 --------------------
 #p ZINDO=(nstates=5)
 --------------------

 ------------------------------
 step_1151_chromophore_16 ZINDO
 ------------------------------
 Symbolic Z-matrix:
 Charge =  0 Multiplicity = 1

                         Standard orientation:
 ---------------------------------------------------------------------
 Center     Atomic      Atomic             Coordinates (Angstroms)
 Number     Number       Type             X           Y           Z
 ---------------------------------------------------------------------
      1         12           0        6.390720    0.569592   -0.157797
      2          6           0        4.230481   -2.249254    0.050356
      3          6           0        3.670887    2.395025   -1.186407
      4          6           0        8.406603    3.227422   -0.361243
      5          6           0        8.924983   -1.444601    1.001808
      6          7           0        4.277489    0.017113   -0.691847
      7          6           0        3.545825   -1.107244   -0.378651
      8          6           0        1.995594   -1.003810   -0.672832
      9          6           0        1.927503    0.479353   -1.119912
     10          6           0        3.372233    1.021620   -1.037769
     11          6           0        1.281541    0.710013   -2.475152
     12          6           0        1.201393   -1.306827    0.590819
     13          6           0       -0.345247   -0.983106    0.476857
     14          6           0       -1.313712   -2.201343    0.601627
     15          8           0       -1.247572   -3.114405    1.361667
     16          8           0       -2.412348   -1.971279   -0.195064
     17          7           0        6.047076    2.546816   -0.810878
     18          6           0        4.880886    3.091996   -1.178159
     19          6           0        5.092817    4.507740   -1.502202
     20          6           0        6.431199    4.844996   -1.034305
     21          6           0        7.052258    3.496440   -0.752282
     22          6           0        4.032738    5.442333   -1.833036
     23          6           0        7.066308    6.178859   -0.627314
     24          8           0        8.251996    6.245108   -0.203544
     25          6           0        6.201248    7.390554   -0.550041
     26          7           0        8.357080    0.817389    0.306887
     27          6           0        8.970808    1.999401    0.110044
     28          6           0       10.500813    1.824742    0.654473
     29          6           0       10.462596    0.412751    1.399793
     30          6           0        9.191930   -0.115738    0.838050
     31          6           0       11.505837    1.835547   -0.556381
     32          6           0       10.310959    0.507753    2.986418
     33          6           0        9.372085    1.601027    3.555490
     34          7           0        6.633492   -1.519795    0.226002
     35          6           0        7.771925   -2.135727    0.675263
     36          6           0        7.489585   -3.550707    0.899070
     37          6           0        6.101069   -3.670247    0.672636
     38          6           0        5.678470   -2.363778    0.267670
     39          6           0        8.561605   -4.575538    1.356081
     40          6           0        4.946686   -4.550315    0.751438
     41          8           0        4.748296   -5.697973    1.163665
     42          6           0        3.703901   -3.559044    0.485713
     43          6           0        3.005932   -4.269778   -0.658217
     44          8           0        3.373589   -4.351701   -1.815548
     45          8           0        1.819815   -4.879369   -0.250691
     46          6           0        0.905132   -5.448132   -1.196239
     47          6           0       -3.514451   -2.931611   -0.152340
     48          6           0       -4.644215   -2.017054   -0.589722
     49          6           0       -5.838753   -2.340727   -1.083203
     50          6           0       -6.300720   -3.721196   -1.393163
     51          6           0       -6.847398   -1.219900   -1.376087
     52          6           0       -8.116088   -1.231832   -0.678961
     53          6           0       -8.727571    0.191385   -0.416238
     54          6           0      -10.038570    0.424566   -1.264942
     55          6           0       -9.775286    1.135254   -2.670718
     56          6           0      -11.044552    1.181429   -0.375944
     57          6           0      -12.059824    0.194873    0.107178
     58          6           0      -13.184027   -0.263427   -0.912514
     59          6           0      -14.555131   -0.317504   -0.116614
     60          6           0      -15.446713   -1.484111   -0.732269
     61          6           0      -15.282988    1.066807   -0.223272
     62          6           0      -15.741482    1.575251    1.239594
     63          6           0      -15.040830    2.939481    1.505730
     64          6           0      -13.934377    2.899038    2.572120
     65          6           0      -12.820608    3.900763    2.379621
     66          6           0      -14.468504    3.014789    4.009039
     67          1           0        2.753772    2.949929   -1.394997
     68          1           0        9.092694    4.076001   -0.413213
     69          1           0        9.717872   -1.954403    1.551454
     70          1           0        1.774831   -1.618866   -1.545900
     71          1           0        1.451016    1.048477   -0.322199
     72          1           0        1.763667    1.544807   -2.983914
     73          1           0        0.231145    0.979595   -2.366426
     74          1           0        1.427545   -0.066327   -3.226600
     75          1           0        1.594271   -0.906110    1.524335
     76          1           0        1.282381   -2.385591    0.723626
     77          1           0       -0.494666   -0.660453   -0.553091
     78          1           0       -0.587381   -0.119559    1.096136
     79          1           0        4.356289    6.082006   -2.653884
     80          1           0        3.744056    6.065225   -0.986626
     81          1           0        3.137496    4.935946   -2.196505
     82          1           0        6.617467    8.197944    0.051976
     83          1           0        5.370556    6.883741   -0.058685
     84          1           0        5.837495    7.708778   -1.526741
     85          1           0       10.679988    2.690056    1.293054
     86          1           0       11.406751   -0.081517    1.169820
     87          1           0       12.348065    1.197039   -0.292544
     88          1           0       11.715640    2.872616   -0.818213
     89          1           0       10.878705    1.397224   -1.333578
     90          1           0       11.308107    0.769750    3.339416
     91          1           0       10.082020   -0.493965    3.351031
     92          1           0        9.869291    2.554989    3.727587
     93          1           0        8.939609    1.355793    4.526359
     94          1           0        8.550338    1.892200    2.900910
     95          1           0        8.755046   -5.272724    0.540629
     96          1           0        8.260224   -5.017051    2.305930
     97          1           0        9.551015   -4.128506    1.450050
     98          1           0        3.273257   -3.415796    1.477340
     99          1           0        0.740213   -4.793059   -2.051217
    100          1           0       -0.054577   -5.556775   -0.690317
    101          1           0        1.198313   -6.436015   -1.550661
    102          1           0       -3.627999   -3.262745    0.879240
    103          1           0       -3.210703   -3.786896   -0.755984
    104          1           0       -4.506746   -0.942631   -0.469839
    105          1           0       -5.704568   -4.554972   -1.020726
    106          1           0       -6.254579   -3.802479   -2.479015
    107          1           0       -7.330442   -3.899929   -1.085527
    108          1           0       -6.918040   -1.162811   -2.462177
    109          1           0       -6.324777   -0.302404   -1.107071
    110          1           0       -7.955129   -1.634721    0.321559
    111          1           0       -8.655105   -1.997171   -1.237959
    112          1           0       -7.953387    0.954692   -0.498093
    113          1           0       -8.998926    0.189991    0.640280
    114          1           0      -10.436675   -0.575084   -1.437841
    115          1           0      -10.300324    0.691753   -3.516266
    116          1           0       -8.745989    0.832676   -2.864978
    117          1           0      -10.040861    2.192289   -2.640132
    118          1           0      -11.657596    1.933024   -0.873501
    119          1           0      -10.608959    1.730406    0.459540
    120          1           0      -12.557125    0.459770    1.040603
    121          1           0      -11.514272   -0.680366    0.458206
    122          1           0      -12.926634   -1.291321   -1.166610
    123          1           0      -13.126896    0.408770   -1.768699
    124          1           0      -14.336478   -0.667351    0.891582
    125          1           0      -16.439417   -1.173943   -1.058590
    126          1           0      -15.642079   -2.216275    0.051109
    127          1           0      -14.920150   -1.937553   -1.571948
    128          1           0      -16.165224    0.946726   -0.851845
    129          1           0      -14.707025    1.798125   -0.789518
    130          1           0      -15.523438    0.846176    2.019430
    131          1           0      -16.823963    1.660939    1.339885
    132          1           0      -15.826255    3.583246    1.900329
    133          1           0      -14.631605    3.442377    0.629257
    134          1           0      -13.450400    1.946184    2.356991
    135          1           0      -12.354167    4.337464    3.263514
    136          1           0      -13.162443    4.809073    1.883405
    137          1           0      -11.956765    3.398222    1.945152
    138          1           0      -14.482088    2.083582    4.574841
    139          1           0      -15.523807    3.281101    4.069368
    140          1           0      -13.952983    3.785896    4.581663
 ---------------------------------------------------------------------

 SCF Done:  E(RZINDO/S) =  -474.186077730     A.U. after   20 cycles

 Excitation energies and oscillator strengths:

 Excited State   1:      Singlet-A      1.2118 eV 1023.18 nm  f=0.6181  <S**2>=0.000
     175 ->178         0.16646
     176 ->177         0.66702
 This state for optimization and/or second-order correction.
 Total Energy, E(CIS/TDA) =  -474.141546492
 Copying the excited state density for this state as the 1-particle RhoCI density.

 Excited State   2:      Singlet-A      1.9161 eV  647.06 nm  f=0.0703  <S**2>=0.000
     175 ->177         0.56743
     176 ->178        -0.38472

 Excited State   3:      Singlet-A      2.9237 eV  424.07 nm  f=0.2202  <S**2>=0.000
     168 ->177         0.21801
     168 ->178        -0.13484
     168 ->179        -0.24694
     168 ->180         0.14571
     168 ->185        -0.14224
     175 ->177         0.16100
     176 ->178         0.31564
     176 ->179         0.36368

 Excited State   4:      Singlet-A      2.9508 eV  420.18 nm  f=0.0122  <S**2>=0.000
     167 ->179         0.10078
     168 ->177        -0.21954
     168 ->178         0.14138
     168 ->179         0.25759
     168 ->180        -0.15672
     168 ->185         0.13874
     171 ->177        -0.10323
     176 ->178         0.12433
     176 ->179         0.45286

 Excited State   5:      Singlet-A      2.9715 eV  417.24 nm  f=0.0789  <S**2>=0.000
     170 ->177         0.29412
     170 ->179         0.29098
     170 ->180         0.39499
     170 ->185         0.11733
     170 ->187        -0.15298
     170 ->189         0.14201
     175 ->177         0.10191
     176 ->178         0.13608
     176 ->179        -0.14579

 The electronic state is 1-A.
 Alpha  occ. eigenvalues --   -1.85125  -1.80745  -1.79555  -1.73938  -1.70723
 Alpha  occ. eigenvalues --   -1.70495  -1.65744  -1.61000  -1.57493  -1.57194
 Alpha  occ. eigenvalues --   -1.56183  -1.51095  -1.49027  -1.46986  -1.45835
 Alpha  occ. eigenvalues --   -1.44328  -1.42456  -1.40360  -1.38874  -1.37810
 Alpha  occ. eigenvalues --   -1.35871  -1.32500  -1.32202  -1.31585  -1.29343
 Alpha  occ. eigenvalues --   -1.26916  -1.24160  -1.23002  -1.21430  -1.18267
 Alpha  occ. eigenvalues --   -1.16991  -1.16094  -1.15729  -1.14219  -1.13091
 Alpha  occ. eigenvalues --   -1.11903  -1.10993  -1.10536  -1.04452  -1.03879
 Alpha  occ. eigenvalues --   -1.02909  -1.00947  -0.98568  -0.97816  -0.97506
 Alpha  occ. eigenvalues --   -0.95751  -0.95221  -0.93807  -0.92568  -0.91525
 Alpha  occ. eigenvalues --   -0.91357  -0.89952  -0.89409  -0.87563  -0.87119
 Alpha  occ. eigenvalues --   -0.85459  -0.84763  -0.83543  -0.82114  -0.80069
 Alpha  occ. eigenvalues --   -0.79843  -0.79214  -0.77494  -0.77157  -0.76488
 Alpha  occ. eigenvalues --   -0.76046  -0.75309  -0.74740  -0.74500  -0.73773
 Alpha  occ. eigenvalues --   -0.73613  -0.72555  -0.72010  -0.71404  -0.71148
 Alpha  occ. eigenvalues --   -0.69733  -0.69524  -0.68868  -0.67974  -0.67739
 Alpha  occ. eigenvalues --   -0.67060  -0.66983  -0.66709  -0.65778  -0.65539
 Alpha  occ. eigenvalues --   -0.65138  -0.64538  -0.64307  -0.64060  -0.63883
 Alpha  occ. eigenvalues --   -0.63325  -0.63178  -0.62936  -0.62082  -0.61729
 Alpha  occ. eigenvalues --   -0.61454  -0.61334  -0.60931  -0.60507  -0.60332
 Alpha  occ. eigenvalues --   -0.59547  -0.59318  -0.58903  -0.58698  -0.58175
 Alpha  occ. eigenvalues --   -0.57311  -0.57218  -0.57158  -0.56750  -0.56644
 Alpha  occ. eigenvalues --   -0.56318  -0.55829  -0.55685  -0.55350  -0.54933
 Alpha  occ. eigenvalues --   -0.54632  -0.54244  -0.53917  -0.53366  -0.53086
 Alpha  occ. eigenvalues --   -0.52805  -0.52503  -0.52202  -0.51707  -0.51072
 Alpha  occ. eigenvalues --   -0.51005  -0.50696  -0.50207  -0.49840  -0.49767
 Alpha  occ. eigenvalues --   -0.49407  -0.49323  -0.49318  -0.49182  -0.48724
 Alpha  occ. eigenvalues --   -0.48582  -0.48356  -0.47909  -0.47645  -0.47593
 Alpha  occ. eigenvalues --   -0.47557  -0.47265  -0.46808  -0.46736  -0.46528
 Alpha  occ. eigenvalues --   -0.46435  -0.45986  -0.45809  -0.45570  -0.45273
 Alpha  occ. eigenvalues --   -0.44842  -0.44588  -0.44405  -0.44165  -0.43846
 Alpha  occ. eigenvalues --   -0.43270  -0.43184  -0.42449  -0.42334  -0.42014
 Alpha  occ. eigenvalues --   -0.41914  -0.41423  -0.40506  -0.39103  -0.38607
 Alpha  occ. eigenvalues --   -0.37772  -0.36870  -0.36183  -0.34663  -0.34148
 Alpha  occ. eigenvalues --   -0.33246  -0.32581  -0.32199  -0.32086  -0.26554
 Alpha  occ. eigenvalues --   -0.21598
 Alpha virt. eigenvalues --   -0.08650  -0.01671  -0.00924   0.00954   0.02277
 Alpha virt. eigenvalues --    0.02828   0.03100   0.03877   0.04300   0.05252
 Alpha virt. eigenvalues --    0.05710   0.06533   0.06743   0.07832   0.08099

 Mulliken charges:
               1
     1  Mg   0.427735
     2  C   -0.052175
     3  C   -0.098564
     4  C   -0.060323
     5  C   -0.048545
     6  N   -0.304195
     7  C    0.099185
     8  C    0.009660
     9  C    0.010436
    10  C    0.149708
    11  C   -0.048049
    12  C   -0.024334
    13  C   -0.007084
    14  C    0.464003
    15  O   -0.492351
    16  O   -0.288065
    17  N   -0.320168
    18  C    0.149467
    19  C    0.011225
    20  C   -0.046666
    21  C    0.127191
    22  C   -0.035767
    23  C    0.334621
    24  O   -0.538050
    25  C   -0.028226
    26  N   -0.251331
    27  C    0.134877
    28  C   -0.012951
    29  C   -0.000359
    30  C    0.103277
    31  C   -0.057471
    32  C   -0.023454
    33  C   -0.053086
    34  N   -0.290829
    35  C    0.062222
    36  C    0.019136
    37  C   -0.065799
    38  C    0.128425
    39  C   -0.041588
    40  C    0.326962
    41  O   -0.523318
    42  C    0.057595
    43  C    0.493465
    44  O   -0.526397
    45  O   -0.279961
    46  C    0.084172
    47  C    0.107908
    48  C   -0.091297
    49  C   -0.006673
    50  C   -0.041269
    51  C   -0.015996
    52  C   -0.029011
    53  C   -0.034778
    54  C   -0.012227
    55  C   -0.067351
    56  C   -0.028289
    57  C   -0.046008
    58  C   -0.042321
    59  C   -0.017022
    60  C   -0.069010
    61  C   -0.035895
    62  C   -0.039473
    63  C   -0.031972
    64  C   -0.003959
    65  C   -0.059017
    66  C   -0.056047
    67  H    0.015741
    68  H    0.052798
    69  H    0.024870
    70  H    0.050967
    71  H    0.028265
    72  H    0.013573
    73  H    0.020044
    74  H    0.031314
    75  H    0.032568
    76  H    0.026763
    77  H    0.026490
    78  H    0.050176
    79  H    0.026798
    80  H    0.035767
    81  H    0.019597
    82  H    0.048340
    83  H    0.037520
    84  H    0.043056
    85  H    0.031338
    86  H    0.034823
    87  H    0.030739
    88  H    0.030280
    89  H    0.025381
    90  H    0.010650
    91  H    0.027066
    92  H    0.016902
    93  H    0.018043
    94  H    0.024031
    95  H    0.036039
    96  H    0.040612
    97  H    0.016433
    98  H    0.068580
    99  H    0.035201
   100  H    0.029272
   101  H    0.045101
   102  H    0.055392
   103  H    0.053096
   104  H    0.033695
   105  H    0.021178
   106  H    0.025590
   107  H    0.025174
   108  H    0.020351
   109  H    0.007515
   110  H    0.012930
   111  H    0.027168
   112  H    0.028709
   113  H    0.013978
   114  H    0.027437
   115  H    0.016919
   116  H    0.020803
   117  H    0.032420
   118  H    0.010657
   119  H    0.019168
   120  H    0.010674
   121  H    0.005480
   122  H    0.017932
   123  H    0.032679
   124  H    0.033439
   125  H    0.018681
   126  H    0.014369
   127  H    0.021929
   128  H    0.015905
   129  H    0.027067
   130  H    0.024159
   131  H    0.018414
   132  H    0.009687
   133  H    0.023033
   134  H    0.019265
   135  H    0.010542
   136  H    0.019332
   137  H    0.016317
   138  H    0.016017
   139  H    0.012625
   140  H    0.020592
 Sum of Mulliken charges =  -0.00000

 Dipole moment (field-independent basis, Debye):
    X=             -5.2084    Y=              9.4665    Z=             -0.7700  Tot=             10.8321
 N-N= 4.210103118430D+03 E-N= 0.000000000000D+00  KE=-9.094569035883D+03
 Leave Link  601 at Wed Apr 27 11:20:45 2022, MaxMem=  6710886400 cpu:               0.8 elap:               0.0
 (Enter /sw/apps/gaussian-16.0/g16/l9999.exe)
 1\1\GINC-BP1-COMPUTE175\SP\RZINDO CIS\STO-3G\C55H74Mg1N4O6\OF15641\27-
 Apr-2022\0\\#p ZINDO=(nstates=5)\\step_1151_chromophore_16 ZINDO\\0,1\
 Mg,0,40.822,42.343,27.191\C,0,39.909,44.694,29.7\C,0,41.527,40.134,29.
 723\C,0,41.686,40.123,24.847\C,0,39.934,44.693,24.843\N,0,40.893,42.53
 8,29.43\C,0,40.328,43.482,30.259\C,0,40.341,43.119,31.798\C,0,40.929,4
 1.687,31.709\C,0,41.175,41.414,30.208\C,0,42.159,41.446,32.567\C,0,38.
 927,43.174,32.361\C,0,38.789,42.582,33.824\C,0,38.354,43.589,34.935\O,

 Normal termination of Gaussian 16 at Wed Apr 27 11:20:46 2022.
