 Gaussian 16, Revision A.03,
 Gaussian 16:  ES64L-G16RevA.03 25-Dec-2016

 ------------------------------
 #p blyp/Def2SVP td=(nstates=5)
 ------------------------------

 ------------------------------------------------
 step_51_chromophore_1 TDDFT with blyp functional
 ------------------------------------------------
 Symbolic Z-matrix:
 Charge =  0 Multiplicity = 1

                         Standard orientation:
 ---------------------------------------------------------------------
 Center     Atomic      Atomic             Coordinates (Angstroms)
 Number     Number       Type             X           Y           Z
 ---------------------------------------------------------------------
      1         12           0        5.975987    0.574027    0.273750
      2          6           0        4.108477   -2.405972   -0.401210
      3          6           0        3.618790    2.266110   -1.620686
      4          6           0        7.821411    3.372779    0.419658
      5          6           0        8.796058   -1.328571    0.742019
      6          7           0        4.148631   -0.104505   -0.979244
      7          6           0        3.416015   -1.241462   -0.824445
      8          6           0        1.993486   -1.177201   -1.513888
      9          6           0        2.073441    0.260356   -2.092813
     10          6           0        3.327879    0.909328   -1.466189
     11          6           0        1.984720    0.284535   -3.656738
     12          6           0        0.887961   -1.446157   -0.448537
     13          6           0       -0.540965   -0.741653   -0.696479
     14          6           0       -1.767873   -1.455147   -0.054815
     15          8           0       -2.024029   -1.547864    1.140007
     16          8           0       -2.617226   -1.965547   -0.978134
     17          7           0        5.646422    2.574049   -0.229326
     18          6           0        4.608375    3.038868   -1.054987
     19          6           0        4.669831    4.536329   -0.945192
     20          6           0        5.884255    4.818442   -0.255492
     21          6           0        6.499262    3.619439    0.023324
     22          6           0        3.532822    5.364041   -1.542202
     23          6           0        6.464250    6.210261    0.037599
     24          8           0        7.470495    6.332338    0.740474
     25          6           0        5.715701    7.422168   -0.476957
     26          7           0        8.007485    0.952824    0.443290
     27          6           0        8.544757    2.179477    0.512993
     28          6           0       10.069361    2.105204    0.627064
     29          6           0       10.385548    0.578385    0.658541
     30          6           0        8.965859    0.029834    0.590344
     31          6           0       10.846318    2.878096   -0.497090
     32          6           0       11.365485   -0.105808    1.696174
     33          6           0       10.864070   -0.674437    3.044073
     34          7           0        6.474336   -1.450825    0.420506
     35          6           0        7.630469   -2.102020    0.702406
     36          6           0        7.414595   -3.470225    0.747071
     37          6           0        6.078546   -3.653735    0.286006
     38          6           0        5.494955   -2.367106    0.136045
     39          6           0        8.538703   -4.406501    1.030002
     40          6           0        4.984573   -4.641156   -0.025969
     41          8           0        5.093337   -5.848839   -0.030451
     42          6           0        3.723860   -3.922970   -0.534400
     43          6           0        2.613905   -4.422151    0.271147
     44          8           0        2.371202   -4.121546    1.454032
     45          8           0        1.858482   -5.354520   -0.432383
     46          6           0        0.651412   -5.912203    0.211365
     47          6           0       -3.812261   -2.726969   -0.596294
     48          6           0       -5.056892   -1.857601   -0.957885
     49          6           0       -6.360133   -2.231063   -0.940698
     50          6           0       -6.806048   -3.557954   -0.486001
     51          6           0       -7.376881   -1.317982   -1.575213
     52          6           0       -7.477595    0.080252   -0.803855
     53          6           0       -8.835718    0.765155   -0.944573
     54          6           0       -9.172290    1.654599    0.312558
     55          6           0       -7.946708    2.533594    0.688320
     56          6           0       -9.873209    0.883562    1.465742
     57          6           0      -10.536927    1.930358    2.443018
     58          6           0      -11.843923    1.375141    3.028329
     59          6           0      -13.118638    1.777575    2.232622
     60          6           0      -13.818218    3.075916    2.846215
     61          6           0      -14.041979    0.469730    2.228530
     62          6           0      -13.828130   -0.281879    0.902503
     63          6           0      -15.077359   -0.053606   -0.037773
     64          6           0      -14.677892    0.237133   -1.560409
     65          6           0      -14.710500    1.768518   -1.631341
     66          6           0      -15.659673   -0.333229   -2.559552
     67          1           0        2.828718    2.881516   -2.055542
     68          1           0        8.424622    4.281031    0.358003
     69          1           0        9.669878   -1.983391    0.736260
     70          1           0        1.952396   -1.933468   -2.298001
     71          1           0        1.206189    0.864883   -1.829395
     72          1           0        2.872969    0.816793   -3.997083
     73          1           0        1.187196    0.985660   -3.901179
     74          1           0        1.721704   -0.686898   -4.075229
     75          1           0        1.228279   -1.362974    0.584001
     76          1           0        0.744521   -2.510078   -0.633572
     77          1           0       -0.676821   -0.711650   -1.777408
     78          1           0       -0.543240    0.294424   -0.357753
     79          1           0        2.683460    4.728163   -1.794165
     80          1           0        3.941758    5.859770   -2.422612
     81          1           0        3.203361    6.042529   -0.755250
     82          1           0        5.444261    7.172414   -1.503168
     83          1           0        6.428948    8.235740   -0.345134
     84          1           0        4.860907    7.518231    0.192449
     85          1           0       10.310695    2.562069    1.586621
     86          1           0       10.724346    0.217897   -0.312763
     87          1           0       10.240100    3.073201   -1.381973
     88          1           0       11.714780    2.324120   -0.852818
     89          1           0       11.211898    3.799387   -0.043593
     90          1           0       12.128676    0.664003    1.810548
     91          1           0       11.820479   -0.960775    1.195688
     92          1           0       10.749393   -1.756717    2.985630
     93          1           0        9.916359   -0.191868    3.288550
     94          1           0       11.522557   -0.525735    3.899739
     95          1           0        9.153170   -3.965141    1.815545
     96          1           0        9.076473   -4.607400    0.104253
     97          1           0        8.151984   -5.348998    1.417935
     98          1           0        3.506222   -4.163012   -1.574358
     99          1           0       -0.130134   -5.153479    0.221976
    100          1           0        0.895474   -6.154240    1.246052
    101          1           0        0.245353   -6.797806   -0.278378
    102          1           0       -3.874610   -2.931999    0.472713
    103          1           0       -3.892632   -3.723663   -1.030395
    104          1           0       -4.744347   -0.912319   -1.401662
    105          1           0       -7.124143   -4.087168   -1.384278
    106          1           0       -7.715405   -3.417243    0.098875
    107          1           0       -6.076046   -4.217785   -0.016766
    108          1           0       -8.338339   -1.810372   -1.720341
    109          1           0       -6.958310   -1.016142   -2.534819
    110          1           0       -6.659215    0.634432   -1.264831
    111          1           0       -7.219403   -0.190322    0.219344
    112          1           0       -9.730243    0.148585   -1.034556
    113          1           0       -8.771972    1.473788   -1.769640
    114          1           0       -9.905088    2.374533   -0.052194
    115          1           0       -6.925155    2.186452    0.526860
    116          1           0       -8.036089    2.776960    1.747329
    117          1           0       -8.030468    3.461996    0.122316
    118          1           0       -9.053330    0.419624    2.014430
    119          1           0      -10.568967    0.137150    1.080925
    120          1           0      -10.627967    2.951604    2.072924
    121          1           0       -9.872172    2.078788    3.293926
    122          1           0      -11.925312    1.564974    4.098621
    123          1           0      -11.636938    0.311206    3.143339
    124          1           0      -12.741827    2.053088    1.247878
    125          1           0      -14.243316    3.665440    2.033818
    126          1           0      -13.017491    3.615378    3.351327
    127          1           0      -14.598634    2.932603    3.594316
    128          1           0      -15.092588    0.761617    2.258398
    129          1           0      -13.745307   -0.154123    3.071479
    130          1           0      -13.633199   -1.325412    1.148645
    131          1           0      -12.926626    0.115727    0.436627
    132          1           0      -15.809275    0.681594    0.297049
    133          1           0      -15.571984   -1.025031   -0.035213
    134          1           0      -13.696241   -0.180574   -1.787424
    135          1           0      -14.487853    2.010225   -2.670546
    136          1           0      -13.933243    2.276275   -1.059281
    137          1           0      -15.711647    2.169512   -1.475925
    138          1           0      -16.662658   -0.499396   -2.168320
    139          1           0      -15.340605   -1.327155   -2.873427
    140          1           0      -15.798370    0.325094   -3.417249
 ---------------------------------------------------------------------

 SCF Done:  E(RB-LYP) =  -3007.36566195     A.U. after   21 cycles

 Excitation energies and oscillator strengths:

 Excited State   1:      Singlet-A      1.8162 eV  682.65 nm  f=0.2851  <S**2>=0.000
     245 -> 248       -0.19810
     246 -> 247        0.68339
     246 <- 247       -0.14720
 This state for optimization and/or second-order correction.
 Total Energy, E(TD-HF/TD-DFT) =  -3007.29891707
 Copying the excited state density for this state as the 1-particle RhoCI density.

 Excited State   2:      Singlet-A      1.9066 eV  650.28 nm  f=0.0214  <S**2>=0.000
     244 -> 247        0.59677
     245 -> 247        0.34891
     246 -> 248        0.10049

 Excited State   3:      Singlet-A      1.9878 eV  623.71 nm  f=0.0459  <S**2>=0.000
     243 -> 247        0.29207
     244 -> 247       -0.35142
     245 -> 247        0.49248
     246 -> 248        0.17879

 Excited State   4:      Singlet-A      2.0437 eV  606.67 nm  f=0.0000  <S**2>=0.000
     242 -> 247        0.70600

 Excited State   5:      Singlet-A      2.0467 eV  605.78 nm  f=0.0147  <S**2>=0.000
     243 -> 247        0.63896
     244 -> 247        0.10239
     245 -> 247       -0.24625
     246 -> 248       -0.11094

 The electronic state is 1-A.
 Alpha  occ. eigenvalues --  -46.27158 -18.82157 -18.81640 -18.76067 -18.76064
 Alpha  occ. eigenvalues --  -18.75958 -18.75470 -14.03430 -14.02851 -14.00598
 Alpha  occ. eigenvalues --  -14.00063 -10.04300 -10.03743 -10.00164  -9.99782
 Alpha  occ. eigenvalues --   -9.98272  -9.97477  -9.96915  -9.96766  -9.96268
 Alpha  occ. eigenvalues --   -9.95775  -9.95693  -9.95150  -9.94830  -9.94827
 Alpha  occ. eigenvalues --   -9.94795  -9.94599  -9.94536  -9.94505  -9.94053
 Alpha  occ. eigenvalues --   -9.94027  -9.93930  -9.93859  -9.93814  -9.93625
 Alpha  occ. eigenvalues --   -9.93290  -9.92966  -9.92644  -9.92640  -9.92575
 Alpha  occ. eigenvalues --   -9.92411  -9.92404  -9.92375  -9.92315  -9.92276
 Alpha  occ. eigenvalues --   -9.92085  -9.91935  -9.91911  -9.91854  -9.91807
 Alpha  occ. eigenvalues --   -9.91754  -9.91695  -9.91687  -9.91465  -9.91333
 Alpha  occ. eigenvalues --   -9.91258  -9.91221  -9.91191  -9.91122  -9.91067
 Alpha  occ. eigenvalues --   -9.91007  -9.90822  -9.90727  -9.90668  -9.90661
 Alpha  occ. eigenvalues --   -9.90602  -2.91793  -1.72186  -1.71715  -1.71479
 Alpha  occ. eigenvalues --   -0.97925  -0.96184  -0.91699  -0.91370  -0.89020
 Alpha  occ. eigenvalues --   -0.88167  -0.87228  -0.85708  -0.85205  -0.84531
 Alpha  occ. eigenvalues --   -0.74569  -0.73538  -0.72580  -0.72405  -0.72322
 Alpha  occ. eigenvalues --   -0.71742  -0.71701  -0.70896  -0.70496  -0.70298
 Alpha  occ. eigenvalues --   -0.69644  -0.68854  -0.67811  -0.67490  -0.67145
 Alpha  occ. eigenvalues --   -0.66271  -0.65937  -0.65432  -0.65030  -0.64556
 Alpha  occ. eigenvalues --   -0.63634  -0.62995  -0.62316  -0.61934  -0.60882
 Alpha  occ. eigenvalues --   -0.60438  -0.60070  -0.59848  -0.59354  -0.58578
 Alpha  occ. eigenvalues --   -0.57905  -0.57535  -0.56954  -0.55883  -0.55534
 Alpha  occ. eigenvalues --   -0.54095  -0.53476  -0.52590  -0.51987  -0.51127
 Alpha  occ. eigenvalues --   -0.50883  -0.50817  -0.50617  -0.50387  -0.49782
 Alpha  occ. eigenvalues --   -0.49641  -0.49203  -0.48020  -0.47408  -0.46618
 Alpha  occ. eigenvalues --   -0.46190  -0.45923  -0.45644  -0.44847  -0.44223
 Alpha  occ. eigenvalues --   -0.43429  -0.43246  -0.43105  -0.42570  -0.42439
 Alpha  occ. eigenvalues --   -0.42014  -0.41505  -0.41236  -0.41082  -0.40845
 Alpha  occ. eigenvalues --   -0.40629  -0.40482  -0.40446  -0.40068  -0.40017
 Alpha  occ. eigenvalues --   -0.39888  -0.39599  -0.39544  -0.39408  -0.39145
 Alpha  occ. eigenvalues --   -0.38990  -0.38614  -0.38510  -0.38341  -0.38227
 Alpha  occ. eigenvalues --   -0.38012  -0.37894  -0.37822  -0.37370  -0.37064
 Alpha  occ. eigenvalues --   -0.36954  -0.36820  -0.36768  -0.36602  -0.36377
 Alpha  occ. eigenvalues --   -0.36314  -0.36265  -0.35985  -0.35753  -0.35593
 Alpha  occ. eigenvalues --   -0.35415  -0.35328  -0.35230  -0.35071  -0.34983
 Alpha  occ. eigenvalues --   -0.34507  -0.34405  -0.34057  -0.33964  -0.33722
 Alpha  occ. eigenvalues --   -0.33604  -0.33259  -0.33113  -0.33050  -0.32842
 Alpha  occ. eigenvalues --   -0.32741  -0.32615  -0.32560  -0.32410  -0.32204
 Alpha  occ. eigenvalues --   -0.32113  -0.32037  -0.31941  -0.31722  -0.31597
 Alpha  occ. eigenvalues --   -0.31570  -0.31282  -0.31229  -0.30736  -0.30595
 Alpha  occ. eigenvalues --   -0.30367  -0.30262  -0.29943  -0.29721  -0.29488
 Alpha  occ. eigenvalues --   -0.29415  -0.29163  -0.29032  -0.28867  -0.28734
 Alpha  occ. eigenvalues --   -0.28602  -0.28442  -0.28413  -0.28307  -0.28154
 Alpha  occ. eigenvalues --   -0.27898  -0.27768  -0.27246  -0.27210  -0.26487
 Alpha  occ. eigenvalues --   -0.26153  -0.25776  -0.25628  -0.25531  -0.24738
 Alpha  occ. eigenvalues --   -0.24713  -0.24368  -0.24353  -0.23881  -0.23412
 Alpha  occ. eigenvalues --   -0.23149  -0.21907  -0.21331  -0.21124  -0.20215
 Alpha  occ. eigenvalues --   -0.19718  -0.19061  -0.18943  -0.18532  -0.17113
 Alpha  occ. eigenvalues --   -0.15860
 Alpha virt. eigenvalues --   -0.11551  -0.06728  -0.05988  -0.04662  -0.03142
 Alpha virt. eigenvalues --   -0.03062  -0.02586  -0.01820  -0.01657  -0.00239
 Alpha virt. eigenvalues --    0.01011   0.01422   0.01753   0.01786   0.02567

 Mulliken charges:
               1
     1  Mg   0.701074
     2  C   -0.008152
     3  C   -0.063916
     4  C   -0.034775
     5  C   -0.088482
     6  N   -0.219358
     7  C   -0.081912
     8  C    0.010779
     9  C   -0.021194
    10  C    0.064710
    11  C    0.138006
    12  C    0.094741
    13  C    0.120929
    14  C    0.074261
    15  O   -0.189730
    16  O   -0.257563
    17  N   -0.323865
    18  C    0.135656
    19  C   -0.172906
    20  C    0.061225
    21  C    0.087913
    22  C    0.178028
    23  C   -0.111968
    24  O   -0.174037
    25  C    0.156367
    26  N   -0.203042
    27  C    0.009828
    28  C    0.044497
    29  C    0.053876
    30  C    0.006204
    31  C    0.116413
    32  C    0.090478
    33  C    0.075335
    34  N   -0.273753
    35  C    0.084781
    36  C   -0.173804
    37  C    0.049335
    38  C    0.094650
    39  C    0.176576
    40  C   -0.057172
    41  O   -0.122201
    42  C    0.144621
    43  C    0.102428
    44  O   -0.203577
    45  O   -0.288921
    46  C    0.222388
    47  C    0.296238
    48  C   -0.133342
    49  C   -0.137233
    50  C    0.159826
    51  C    0.143710
    52  C    0.016342
    53  C    0.142010
    54  C   -0.103356
    55  C    0.086117
    56  C    0.121883
    57  C    0.051088
    58  C    0.079980
    59  C   -0.066287
    60  C    0.099051
    61  C    0.111582
    62  C    0.057128
    63  C    0.100641
    64  C   -0.084881
    65  C    0.092582
    66  C    0.111826
    67  H   -0.070322
    68  H   -0.045423
    69  H   -0.069646
    70  H   -0.017216
    71  H   -0.031935
    72  H   -0.007460
    73  H   -0.023851
    74  H    0.002825
    75  H    0.016266
    76  H   -0.002646
    77  H   -0.022950
    78  H    0.016516
    79  H   -0.012160
    80  H    0.021677
    81  H    0.005007
    82  H    0.004604
    83  H    0.002288
    84  H    0.019886
    85  H   -0.016463
    86  H   -0.024129
    87  H    0.000789
    88  H   -0.012363
    89  H    0.001287
    90  H   -0.019162
    91  H   -0.022007
    92  H   -0.005890
    93  H    0.001898
    94  H   -0.011088
    95  H   -0.005327
    96  H    0.010257
    97  H    0.000125
    98  H   -0.000236
    99  H    0.007959
   100  H    0.021476
   101  H    0.018158
   102  H    0.009052
   103  H    0.002341
   104  H   -0.036609
   105  H   -0.005208
   106  H   -0.005355
   107  H   -0.014054
   108  H   -0.040157
   109  H   -0.022806
   110  H   -0.009173
   111  H   -0.003291
   112  H   -0.033990
   113  H   -0.040292
   114  H   -0.046160
   115  H   -0.003709
   116  H   -0.024842
   117  H   -0.023307
   118  H   -0.027633
   119  H   -0.018856
   120  H   -0.026463
   121  H   -0.038844
   122  H   -0.051232
   123  H   -0.047125
   124  H   -0.019535
   125  H   -0.011526
   126  H   -0.019214
   127  H   -0.011662
   128  H   -0.034447
   129  H   -0.029427
   130  H   -0.031897
   131  H   -0.014712
   132  H   -0.022269
   133  H   -0.041520
   134  H   -0.031556
   135  H   -0.033627
   136  H   -0.011407
   137  H   -0.012536
   138  H   -0.024782
   139  H   -0.019796
   140  H   -0.022792
 Sum of Mulliken charges =  -0.00000

 Dipole moment (field-independent basis, Debye):
    X=             -1.8628    Y=              2.5969    Z=             -3.9090  Tot=              5.0492
 Quadrupole moment (field-independent basis, Debye-Ang):
   XX=           -367.2724   YY=           -422.7269   ZZ=           -408.6969
   XY=             13.9925   XZ=              0.8452   YZ=             -3.5776

 Normal termination of Gaussian 16 at Sat Apr 30 00:02:31 2022.
