 Gaussian 16, Revision A.03,
 Gaussian 16:  ES64L-G16RevA.03 25-Dec-2016

 -----------------------------------
 #p cam-b3lyp/Def2SVP td=(nstates=5)
 -----------------------------------

 -----------------------------------------------------
 step_51_chromophore_1 TDDFT with cam-b3lyp functional
 -----------------------------------------------------
 Symbolic Z-matrix:
 Charge =  0 Multiplicity = 1

                         Standard orientation:
 ---------------------------------------------------------------------
 Center     Atomic      Atomic             Coordinates (Angstroms)
 Number     Number       Type             X           Y           Z
 ---------------------------------------------------------------------
      1         12           0        5.975987    0.574027    0.273750
      2          6           0        4.108477   -2.405972   -0.401210
      3          6           0        3.618790    2.266110   -1.620686
      4          6           0        7.821411    3.372779    0.419658
      5          6           0        8.796058   -1.328571    0.742019
      6          7           0        4.148631   -0.104505   -0.979244
      7          6           0        3.416015   -1.241462   -0.824445
      8          6           0        1.993486   -1.177201   -1.513888
      9          6           0        2.073441    0.260356   -2.092813
     10          6           0        3.327879    0.909328   -1.466189
     11          6           0        1.984720    0.284535   -3.656738
     12          6           0        0.887961   -1.446157   -0.448537
     13          6           0       -0.540965   -0.741653   -0.696479
     14          6           0       -1.767873   -1.455147   -0.054815
     15          8           0       -2.024029   -1.547864    1.140007
     16          8           0       -2.617226   -1.965547   -0.978134
     17          7           0        5.646422    2.574049   -0.229326
     18          6           0        4.608375    3.038868   -1.054987
     19          6           0        4.669831    4.536329   -0.945192
     20          6           0        5.884255    4.818442   -0.255492
     21          6           0        6.499262    3.619439    0.023324
     22          6           0        3.532822    5.364041   -1.542202
     23          6           0        6.464250    6.210261    0.037599
     24          8           0        7.470495    6.332338    0.740474
     25          6           0        5.715701    7.422168   -0.476957
     26          7           0        8.007485    0.952824    0.443290
     27          6           0        8.544757    2.179477    0.512993
     28          6           0       10.069361    2.105204    0.627064
     29          6           0       10.385548    0.578385    0.658541
     30          6           0        8.965859    0.029834    0.590344
     31          6           0       10.846318    2.878096   -0.497090
     32          6           0       11.365485   -0.105808    1.696174
     33          6           0       10.864070   -0.674437    3.044073
     34          7           0        6.474336   -1.450825    0.420506
     35          6           0        7.630469   -2.102020    0.702406
     36          6           0        7.414595   -3.470225    0.747071
     37          6           0        6.078546   -3.653735    0.286006
     38          6           0        5.494955   -2.367106    0.136045
     39          6           0        8.538703   -4.406501    1.030002
     40          6           0        4.984573   -4.641156   -0.025969
     41          8           0        5.093337   -5.848839   -0.030451
     42          6           0        3.723860   -3.922970   -0.534400
     43          6           0        2.613905   -4.422151    0.271147
     44          8           0        2.371202   -4.121546    1.454032
     45          8           0        1.858482   -5.354520   -0.432383
     46          6           0        0.651412   -5.912203    0.211365
     47          6           0       -3.812261   -2.726969   -0.596294
     48          6           0       -5.056892   -1.857601   -0.957885
     49          6           0       -6.360133   -2.231063   -0.940698
     50          6           0       -6.806048   -3.557954   -0.486001
     51          6           0       -7.376881   -1.317982   -1.575213
     52          6           0       -7.477595    0.080252   -0.803855
     53          6           0       -8.835718    0.765155   -0.944573
     54          6           0       -9.172290    1.654599    0.312558
     55          6           0       -7.946708    2.533594    0.688320
     56          6           0       -9.873209    0.883562    1.465742
     57          6           0      -10.536927    1.930358    2.443018
     58          6           0      -11.843923    1.375141    3.028329
     59          6           0      -13.118638    1.777575    2.232622
     60          6           0      -13.818218    3.075916    2.846215
     61          6           0      -14.041979    0.469730    2.228530
     62          6           0      -13.828130   -0.281879    0.902503
     63          6           0      -15.077359   -0.053606   -0.037773
     64          6           0      -14.677892    0.237133   -1.560409
     65          6           0      -14.710500    1.768518   -1.631341
     66          6           0      -15.659673   -0.333229   -2.559552
     67          1           0        2.828718    2.881516   -2.055542
     68          1           0        8.424622    4.281031    0.358003
     69          1           0        9.669878   -1.983391    0.736260
     70          1           0        1.952396   -1.933468   -2.298001
     71          1           0        1.206189    0.864883   -1.829395
     72          1           0        2.872969    0.816793   -3.997083
     73          1           0        1.187196    0.985660   -3.901179
     74          1           0        1.721704   -0.686898   -4.075229
     75          1           0        1.228279   -1.362974    0.584001
     76          1           0        0.744521   -2.510078   -0.633572
     77          1           0       -0.676821   -0.711650   -1.777408
     78          1           0       -0.543240    0.294424   -0.357753
     79          1           0        2.683460    4.728163   -1.794165
     80          1           0        3.941758    5.859770   -2.422612
     81          1           0        3.203361    6.042529   -0.755250
     82          1           0        5.444261    7.172414   -1.503168
     83          1           0        6.428948    8.235740   -0.345134
     84          1           0        4.860907    7.518231    0.192449
     85          1           0       10.310695    2.562069    1.586621
     86          1           0       10.724346    0.217897   -0.312763
     87          1           0       10.240100    3.073201   -1.381973
     88          1           0       11.714780    2.324120   -0.852818
     89          1           0       11.211898    3.799387   -0.043593
     90          1           0       12.128676    0.664003    1.810548
     91          1           0       11.820479   -0.960775    1.195688
     92          1           0       10.749393   -1.756717    2.985630
     93          1           0        9.916359   -0.191868    3.288550
     94          1           0       11.522557   -0.525735    3.899739
     95          1           0        9.153170   -3.965141    1.815545
     96          1           0        9.076473   -4.607400    0.104253
     97          1           0        8.151984   -5.348998    1.417935
     98          1           0        3.506222   -4.163012   -1.574358
     99          1           0       -0.130134   -5.153479    0.221976
    100          1           0        0.895474   -6.154240    1.246052
    101          1           0        0.245353   -6.797806   -0.278378
    102          1           0       -3.874610   -2.931999    0.472713
    103          1           0       -3.892632   -3.723663   -1.030395
    104          1           0       -4.744347   -0.912319   -1.401662
    105          1           0       -7.124143   -4.087168   -1.384278
    106          1           0       -7.715405   -3.417243    0.098875
    107          1           0       -6.076046   -4.217785   -0.016766
    108          1           0       -8.338339   -1.810372   -1.720341
    109          1           0       -6.958310   -1.016142   -2.534819
    110          1           0       -6.659215    0.634432   -1.264831
    111          1           0       -7.219403   -0.190322    0.219344
    112          1           0       -9.730243    0.148585   -1.034556
    113          1           0       -8.771972    1.473788   -1.769640
    114          1           0       -9.905088    2.374533   -0.052194
    115          1           0       -6.925155    2.186452    0.526860
    116          1           0       -8.036089    2.776960    1.747329
    117          1           0       -8.030468    3.461996    0.122316
    118          1           0       -9.053330    0.419624    2.014430
    119          1           0      -10.568967    0.137150    1.080925
    120          1           0      -10.627967    2.951604    2.072924
    121          1           0       -9.872172    2.078788    3.293926
    122          1           0      -11.925312    1.564974    4.098621
    123          1           0      -11.636938    0.311206    3.143339
    124          1           0      -12.741827    2.053088    1.247878
    125          1           0      -14.243316    3.665440    2.033818
    126          1           0      -13.017491    3.615378    3.351327
    127          1           0      -14.598634    2.932603    3.594316
    128          1           0      -15.092588    0.761617    2.258398
    129          1           0      -13.745307   -0.154123    3.071479
    130          1           0      -13.633199   -1.325412    1.148645
    131          1           0      -12.926626    0.115727    0.436627
    132          1           0      -15.809275    0.681594    0.297049
    133          1           0      -15.571984   -1.025031   -0.035213
    134          1           0      -13.696241   -0.180574   -1.787424
    135          1           0      -14.487853    2.010225   -2.670546
    136          1           0      -13.933243    2.276275   -1.059281
    137          1           0      -15.711647    2.169512   -1.475925
    138          1           0      -16.662658   -0.499396   -2.168320
    139          1           0      -15.340605   -1.327155   -2.873427
    140          1           0      -15.798370    0.325094   -3.417249
 ---------------------------------------------------------------------

 SCF Done:  E(RCAM-B3LYP) =  -3007.15310015     A.U. after   19 cycles

 Excitation energies and oscillator strengths:

 Excited State   1:      Singlet-A      1.7086 eV  725.66 nm  f=0.3671  <S**2>=0.000
     245 -> 248       -0.18592
     246 -> 247        0.68462
     245 <- 248       -0.11026
 This state for optimization and/or second-order correction.
 Total Energy, E(TD-HF/TD-DFT) =  -3007.09031108
 Copying the excited state density for this state as the 1-particle RhoCI density.

 Excited State   2:      Singlet-A      2.1854 eV  567.34 nm  f=0.1219  <S**2>=0.000
     245 -> 247        0.64399
     246 -> 248        0.27420

 Excited State   3:      Singlet-A      3.1828 eV  389.54 nm  f=0.0017  <S**2>=0.000
     242 -> 247       -0.22872
     243 -> 247        0.65701

 Excited State   4:      Singlet-A      3.3288 eV  372.46 nm  f=0.0093  <S**2>=0.000
     242 -> 247        0.60467
     243 -> 247        0.19745
     246 -> 248       -0.26513

 Excited State   5:      Singlet-A      3.5438 eV  349.87 nm  f=0.0205  <S**2>=0.000
     241 -> 247        0.58723
     241 -> 249        0.22823
     241 -> 251       -0.24034

 The electronic state is 1-A.
 Alpha  occ. eigenvalues --  -46.88712 -19.25028 -19.24581 -19.19403 -19.19209
 Alpha  occ. eigenvalues --  -19.19050 -19.18556 -14.42391 -14.41649 -14.39114
 Alpha  occ. eigenvalues --  -14.38249 -10.39614 -10.39298 -10.35605 -10.34946
 Alpha  occ. eigenvalues --  -10.32366 -10.31492 -10.31476 -10.31354 -10.30842
 Alpha  occ. eigenvalues --  -10.30366 -10.29900 -10.29713 -10.29496 -10.29215
 Alpha  occ. eigenvalues --  -10.28972 -10.28945 -10.28825 -10.28713 -10.28089
 Alpha  occ. eigenvalues --  -10.27976 -10.27931 -10.27850 -10.27836 -10.27430
 Alpha  occ. eigenvalues --  -10.27214 -10.27038 -10.26951 -10.26847 -10.26628
 Alpha  occ. eigenvalues --  -10.26527 -10.26462 -10.26083 -10.26044 -10.25989
 Alpha  occ. eigenvalues --  -10.25843 -10.25782 -10.25741 -10.25546 -10.25478
 Alpha  occ. eigenvalues --  -10.25428 -10.25412 -10.25406 -10.25363 -10.25178
 Alpha  occ. eigenvalues --  -10.25127 -10.24952 -10.24932 -10.24797 -10.24757
 Alpha  occ. eigenvalues --  -10.24628 -10.24511 -10.24334 -10.24320 -10.24237
 Alpha  occ. eigenvalues --  -10.24235  -3.17245  -1.92116  -1.91731  -1.91518
 Alpha  occ. eigenvalues --   -1.16388  -1.14696  -1.10018  -1.09984  -1.06887
 Alpha  occ. eigenvalues --   -1.06088  -1.04921  -1.03329  -1.02773  -1.02135
 Alpha  occ. eigenvalues --   -0.91617  -0.90450  -0.89384  -0.89190  -0.89060
 Alpha  occ. eigenvalues --   -0.88441  -0.88364  -0.87504  -0.87138  -0.87065
 Alpha  occ. eigenvalues --   -0.85947  -0.85204  -0.84043  -0.83638  -0.83277
 Alpha  occ. eigenvalues --   -0.82409  -0.82148  -0.81424  -0.80816  -0.80433
 Alpha  occ. eigenvalues --   -0.79421  -0.78847  -0.77919  -0.77365  -0.76227
 Alpha  occ. eigenvalues --   -0.75817  -0.75409  -0.75092  -0.74637  -0.73795
 Alpha  occ. eigenvalues --   -0.72937  -0.72484  -0.71892  -0.70743  -0.70122
 Alpha  occ. eigenvalues --   -0.68722  -0.67961  -0.67028  -0.66608  -0.65128
 Alpha  occ. eigenvalues --   -0.65066  -0.64892  -0.64600  -0.64450  -0.63781
 Alpha  occ. eigenvalues --   -0.63439  -0.63158  -0.61593  -0.61182  -0.60362
 Alpha  occ. eigenvalues --   -0.59723  -0.59510  -0.59172  -0.58217  -0.57744
 Alpha  occ. eigenvalues --   -0.56819  -0.56590  -0.56299  -0.55755  -0.55519
 Alpha  occ. eigenvalues --   -0.55019  -0.54582  -0.54306  -0.54208  -0.53713
 Alpha  occ. eigenvalues --   -0.53596  -0.53378  -0.53072  -0.52926  -0.52720
 Alpha  occ. eigenvalues --   -0.52576  -0.52408  -0.52157  -0.52023  -0.51829
 Alpha  occ. eigenvalues --   -0.51435  -0.51162  -0.50884  -0.50761  -0.50679
 Alpha  occ. eigenvalues --   -0.50421  -0.50237  -0.50126  -0.49782  -0.49645
 Alpha  occ. eigenvalues --   -0.49379  -0.49249  -0.49146  -0.49066  -0.48719
 Alpha  occ. eigenvalues --   -0.48641  -0.48415  -0.48232  -0.48007  -0.47937
 Alpha  occ. eigenvalues --   -0.47769  -0.47557  -0.47215  -0.46918  -0.46846
 Alpha  occ. eigenvalues --   -0.46357  -0.46208  -0.46041  -0.45731  -0.45607
 Alpha  occ. eigenvalues --   -0.45455  -0.44911  -0.44874  -0.44745  -0.44437
 Alpha  occ. eigenvalues --   -0.44397  -0.44337  -0.44119  -0.44051  -0.43958
 Alpha  occ. eigenvalues --   -0.43757  -0.43605  -0.43595  -0.43175  -0.43099
 Alpha  occ. eigenvalues --   -0.42961  -0.42754  -0.42668  -0.42260  -0.42058
 Alpha  occ. eigenvalues --   -0.41955  -0.41590  -0.41351  -0.41313  -0.40997
 Alpha  occ. eigenvalues --   -0.40870  -0.40497  -0.40305  -0.40187  -0.39679
 Alpha  occ. eigenvalues --   -0.39670  -0.39421  -0.39370  -0.39249  -0.39163
 Alpha  occ. eigenvalues --   -0.38870  -0.38845  -0.38057  -0.38028  -0.37260
 Alpha  occ. eigenvalues --   -0.37045  -0.36830  -0.36573  -0.36397  -0.35878
 Alpha  occ. eigenvalues --   -0.35789  -0.35222  -0.34794  -0.34369  -0.33750
 Alpha  occ. eigenvalues --   -0.33566  -0.33521  -0.33218  -0.31483  -0.30909
 Alpha  occ. eigenvalues --   -0.30386  -0.29808  -0.28809  -0.28648  -0.23884
 Alpha  occ. eigenvalues --   -0.21226
 Alpha virt. eigenvalues --   -0.08698  -0.01608   0.00638   0.01862   0.02516
 Alpha virt. eigenvalues --    0.04442   0.05019   0.05562   0.05757   0.06844
 Alpha virt. eigenvalues --    0.07334   0.07795   0.07938   0.08689   0.09075

 Mulliken charges:
               1
     1  Mg   0.830545
     2  C   -0.021920
     3  C   -0.082046
     4  C   -0.051183
     5  C   -0.096222
     6  N   -0.279507
     7  C   -0.045011
     8  C   -0.036884
     9  C   -0.076392
    10  C    0.083114
    11  C    0.080089
    12  C    0.048742
    13  C    0.050921
    14  C    0.156842
    15  O   -0.231191
    16  O   -0.324477
    17  N   -0.410240
    18  C    0.145452
    19  C   -0.176461
    20  C   -0.008485
    21  C    0.112401
    22  C    0.122037
    23  C   -0.027433
    24  O   -0.212940
    25  C    0.075619
    26  N   -0.279060
    27  C    0.035844
    28  C   -0.016225
    29  C   -0.001895
    30  C    0.028571
    31  C    0.057423
    32  C    0.034520
    33  C    0.015248
    34  N   -0.363500
    35  C    0.093774
    36  C   -0.177758
    37  C   -0.023008
    38  C    0.123331
    39  C    0.124348
    40  C    0.039658
    41  O   -0.160377
    42  C    0.060063
    43  C    0.191447
    44  O   -0.239386
    45  O   -0.353794
    46  C    0.185355
    47  C    0.266067
    48  C   -0.150443
    49  C   -0.162682
    50  C    0.093143
    51  C    0.087115
    52  C   -0.037996
    53  C    0.091493
    54  C   -0.157067
    55  C    0.027264
    56  C    0.069368
    57  C   -0.003590
    58  C    0.025833
    59  C   -0.119778
    60  C    0.046576
    61  C    0.055908
    62  C    0.012060
    63  C    0.042533
    64  C   -0.144364
    65  C    0.034203
    66  C    0.049929
    67  H   -0.036936
    68  H   -0.007783
    69  H   -0.034000
    70  H    0.017336
    71  H    0.001358
    72  H    0.019895
    73  H    0.000579
    74  H    0.027412
    75  H    0.048468
    76  H    0.021659
    77  H    0.011572
    78  H    0.045681
    79  H    0.016352
    80  H    0.047389
    81  H    0.031491
    82  H    0.029826
    83  H    0.037752
    84  H    0.047249
    85  H    0.018261
    86  H    0.012525
    87  H    0.025862
    88  H    0.013068
    89  H    0.024813
    90  H    0.008113
    91  H    0.005974
    92  H    0.014223
    93  H    0.024027
    94  H    0.014363
    95  H    0.016257
    96  H    0.035242
    97  H    0.027360
    98  H    0.044499
    99  H    0.026629
   100  H    0.046922
   101  H    0.041457
   102  H    0.041324
   103  H    0.027885
   104  H   -0.003640
   105  H    0.019920
   106  H    0.019166
   107  H    0.010939
   108  H   -0.009187
   109  H    0.008488
   110  H    0.015282
   111  H    0.023512
   112  H   -0.006854
   113  H   -0.010116
   114  H   -0.013619
   115  H    0.021087
   116  H   -0.000616
   117  H    0.002009
   118  H    0.000346
   119  H    0.005840
   120  H   -0.000266
   121  H   -0.008665
   122  H   -0.019490
   123  H   -0.017229
   124  H    0.006083
   125  H    0.011009
   126  H    0.003545
   127  H    0.011706
   128  H   -0.005837
   129  H   -0.000118
   130  H   -0.002732
   131  H    0.004761
   132  H    0.004304
   133  H   -0.010659
   134  H   -0.000447
   135  H   -0.008213
   136  H    0.010784
   137  H    0.011315
   138  H    0.000196
   139  H    0.005526
   140  H    0.002246
 Sum of Mulliken charges =  -0.00000

 Dipole moment (field-independent basis, Debye):
    X=             -2.2145    Y=              3.4971    Z=             -4.2905  Tot=              5.9617
 Quadrupole moment (field-independent basis, Debye-Ang):
   XX=           -369.3873   YY=           -417.7591   ZZ=           -408.8283
   XY=             19.1907   XZ=             -0.0006   YZ=             -4.6448

 Normal termination of Gaussian 16 at Fri Apr 29 23:06:47 2022.
