 Gaussian 16, Revision A.03,
 Gaussian 16:  ES64L-G16RevA.03 25-Dec-2016

 ---------------------------------
 #p PBE1PBE/Def2SVP td=(nstates=5)
 ---------------------------------

 ---------------------------------------------------
 step_51_chromophore_1 TDDFT with PBE1PBE functional
 ---------------------------------------------------
 Symbolic Z-matrix:
 Charge =  0 Multiplicity = 1

                         Standard orientation:
 ---------------------------------------------------------------------
 Center     Atomic      Atomic             Coordinates (Angstroms)
 Number     Number       Type             X           Y           Z
 ---------------------------------------------------------------------
      1         12           0        5.975987    0.574027    0.273750
      2          6           0        4.108477   -2.405972   -0.401210
      3          6           0        3.618790    2.266110   -1.620686
      4          6           0        7.821411    3.372779    0.419658
      5          6           0        8.796058   -1.328571    0.742019
      6          7           0        4.148631   -0.104505   -0.979244
      7          6           0        3.416015   -1.241462   -0.824445
      8          6           0        1.993486   -1.177201   -1.513888
      9          6           0        2.073441    0.260356   -2.092813
     10          6           0        3.327879    0.909328   -1.466189
     11          6           0        1.984720    0.284535   -3.656738
     12          6           0        0.887961   -1.446157   -0.448537
     13          6           0       -0.540965   -0.741653   -0.696479
     14          6           0       -1.767873   -1.455147   -0.054815
     15          8           0       -2.024029   -1.547864    1.140007
     16          8           0       -2.617226   -1.965547   -0.978134
     17          7           0        5.646422    2.574049   -0.229326
     18          6           0        4.608375    3.038868   -1.054987
     19          6           0        4.669831    4.536329   -0.945192
     20          6           0        5.884255    4.818442   -0.255492
     21          6           0        6.499262    3.619439    0.023324
     22          6           0        3.532822    5.364041   -1.542202
     23          6           0        6.464250    6.210261    0.037599
     24          8           0        7.470495    6.332338    0.740474
     25          6           0        5.715701    7.422168   -0.476957
     26          7           0        8.007485    0.952824    0.443290
     27          6           0        8.544757    2.179477    0.512993
     28          6           0       10.069361    2.105204    0.627064
     29          6           0       10.385548    0.578385    0.658541
     30          6           0        8.965859    0.029834    0.590344
     31          6           0       10.846318    2.878096   -0.497090
     32          6           0       11.365485   -0.105808    1.696174
     33          6           0       10.864070   -0.674437    3.044073
     34          7           0        6.474336   -1.450825    0.420506
     35          6           0        7.630469   -2.102020    0.702406
     36          6           0        7.414595   -3.470225    0.747071
     37          6           0        6.078546   -3.653735    0.286006
     38          6           0        5.494955   -2.367106    0.136045
     39          6           0        8.538703   -4.406501    1.030002
     40          6           0        4.984573   -4.641156   -0.025969
     41          8           0        5.093337   -5.848839   -0.030451
     42          6           0        3.723860   -3.922970   -0.534400
     43          6           0        2.613905   -4.422151    0.271147
     44          8           0        2.371202   -4.121546    1.454032
     45          8           0        1.858482   -5.354520   -0.432383
     46          6           0        0.651412   -5.912203    0.211365
     47          6           0       -3.812261   -2.726969   -0.596294
     48          6           0       -5.056892   -1.857601   -0.957885
     49          6           0       -6.360133   -2.231063   -0.940698
     50          6           0       -6.806048   -3.557954   -0.486001
     51          6           0       -7.376881   -1.317982   -1.575213
     52          6           0       -7.477595    0.080252   -0.803855
     53          6           0       -8.835718    0.765155   -0.944573
     54          6           0       -9.172290    1.654599    0.312558
     55          6           0       -7.946708    2.533594    0.688320
     56          6           0       -9.873209    0.883562    1.465742
     57          6           0      -10.536927    1.930358    2.443018
     58          6           0      -11.843923    1.375141    3.028329
     59          6           0      -13.118638    1.777575    2.232622
     60          6           0      -13.818218    3.075916    2.846215
     61          6           0      -14.041979    0.469730    2.228530
     62          6           0      -13.828130   -0.281879    0.902503
     63          6           0      -15.077359   -0.053606   -0.037773
     64          6           0      -14.677892    0.237133   -1.560409
     65          6           0      -14.710500    1.768518   -1.631341
     66          6           0      -15.659673   -0.333229   -2.559552
     67          1           0        2.828718    2.881516   -2.055542
     68          1           0        8.424622    4.281031    0.358003
     69          1           0        9.669878   -1.983391    0.736260
     70          1           0        1.952396   -1.933468   -2.298001
     71          1           0        1.206189    0.864883   -1.829395
     72          1           0        2.872969    0.816793   -3.997083
     73          1           0        1.187196    0.985660   -3.901179
     74          1           0        1.721704   -0.686898   -4.075229
     75          1           0        1.228279   -1.362974    0.584001
     76          1           0        0.744521   -2.510078   -0.633572
     77          1           0       -0.676821   -0.711650   -1.777408
     78          1           0       -0.543240    0.294424   -0.357753
     79          1           0        2.683460    4.728163   -1.794165
     80          1           0        3.941758    5.859770   -2.422612
     81          1           0        3.203361    6.042529   -0.755250
     82          1           0        5.444261    7.172414   -1.503168
     83          1           0        6.428948    8.235740   -0.345134
     84          1           0        4.860907    7.518231    0.192449
     85          1           0       10.310695    2.562069    1.586621
     86          1           0       10.724346    0.217897   -0.312763
     87          1           0       10.240100    3.073201   -1.381973
     88          1           0       11.714780    2.324120   -0.852818
     89          1           0       11.211898    3.799387   -0.043593
     90          1           0       12.128676    0.664003    1.810548
     91          1           0       11.820479   -0.960775    1.195688
     92          1           0       10.749393   -1.756717    2.985630
     93          1           0        9.916359   -0.191868    3.288550
     94          1           0       11.522557   -0.525735    3.899739
     95          1           0        9.153170   -3.965141    1.815545
     96          1           0        9.076473   -4.607400    0.104253
     97          1           0        8.151984   -5.348998    1.417935
     98          1           0        3.506222   -4.163012   -1.574358
     99          1           0       -0.130134   -5.153479    0.221976
    100          1           0        0.895474   -6.154240    1.246052
    101          1           0        0.245353   -6.797806   -0.278378
    102          1           0       -3.874610   -2.931999    0.472713
    103          1           0       -3.892632   -3.723663   -1.030395
    104          1           0       -4.744347   -0.912319   -1.401662
    105          1           0       -7.124143   -4.087168   -1.384278
    106          1           0       -7.715405   -3.417243    0.098875
    107          1           0       -6.076046   -4.217785   -0.016766
    108          1           0       -8.338339   -1.810372   -1.720341
    109          1           0       -6.958310   -1.016142   -2.534819
    110          1           0       -6.659215    0.634432   -1.264831
    111          1           0       -7.219403   -0.190322    0.219344
    112          1           0       -9.730243    0.148585   -1.034556
    113          1           0       -8.771972    1.473788   -1.769640
    114          1           0       -9.905088    2.374533   -0.052194
    115          1           0       -6.925155    2.186452    0.526860
    116          1           0       -8.036089    2.776960    1.747329
    117          1           0       -8.030468    3.461996    0.122316
    118          1           0       -9.053330    0.419624    2.014430
    119          1           0      -10.568967    0.137150    1.080925
    120          1           0      -10.627967    2.951604    2.072924
    121          1           0       -9.872172    2.078788    3.293926
    122          1           0      -11.925312    1.564974    4.098621
    123          1           0      -11.636938    0.311206    3.143339
    124          1           0      -12.741827    2.053088    1.247878
    125          1           0      -14.243316    3.665440    2.033818
    126          1           0      -13.017491    3.615378    3.351327
    127          1           0      -14.598634    2.932603    3.594316
    128          1           0      -15.092588    0.761617    2.258398
    129          1           0      -13.745307   -0.154123    3.071479
    130          1           0      -13.633199   -1.325412    1.148645
    131          1           0      -12.926626    0.115727    0.436627
    132          1           0      -15.809275    0.681594    0.297049
    133          1           0      -15.571984   -1.025031   -0.035213
    134          1           0      -13.696241   -0.180574   -1.787424
    135          1           0      -14.487853    2.010225   -2.670546
    136          1           0      -13.933243    2.276275   -1.059281
    137          1           0      -15.711647    2.169512   -1.475925
    138          1           0      -16.662658   -0.499396   -2.168320
    139          1           0      -15.340605   -1.327155   -2.873427
    140          1           0      -15.798370    0.325094   -3.417249
 ---------------------------------------------------------------------

 SCF Done:  E(RPBE1PBE) =  -3005.34123482     A.U. after   16 cycles

 Excitation energies and oscillator strengths:

 Excited State   1:      Singlet-A      1.8637 eV  665.25 nm  f=0.3543  <S**2>=0.000
     245 -> 248        0.18143
     246 -> 247        0.69111
     246 <- 247       -0.10602
 This state for optimization and/or second-order correction.
 Total Energy, E(TD-HF/TD-DFT) =  -3005.27274426
 Copying the excited state density for this state as the 1-particle RhoCI density.

 Excited State   2:      Singlet-A      2.1973 eV  564.26 nm  f=0.1122  <S**2>=0.000
     245 -> 247        0.65307
     246 -> 248       -0.25091

 Excited State   3:      Singlet-A      2.8572 eV  433.93 nm  f=0.0028  <S**2>=0.000
     241 -> 247        0.10055
     243 -> 247        0.68904

 Excited State   4:      Singlet-A      2.9863 eV  415.18 nm  f=0.0003  <S**2>=0.000
     241 -> 247        0.51888
     241 -> 249       -0.10915
     242 -> 247        0.44159

 Excited State   5:      Singlet-A      3.0455 eV  407.10 nm  f=0.0066  <S**2>=0.000
     241 -> 247       -0.43590
     242 -> 247        0.51268
     243 -> 247        0.11491
     246 -> 248        0.14239

 The electronic state is 1-A.
 Alpha  occ. eigenvalues --  -46.92124 -19.25745 -19.25274 -19.19503 -19.19459
 Alpha  occ. eigenvalues --  -19.19346 -19.18886 -14.41887 -14.41164 -14.38747
 Alpha  occ. eigenvalues --  -14.38044 -10.36668 -10.36330 -10.32636 -10.32239
 Alpha  occ. eigenvalues --  -10.29808 -10.29215 -10.29102 -10.28721 -10.28444
 Alpha  occ. eigenvalues --  -10.27890 -10.27755 -10.27186 -10.27117 -10.27013
 Alpha  occ. eigenvalues --  -10.26865 -10.26788 -10.26503 -10.26236 -10.25743
 Alpha  occ. eigenvalues --  -10.25735 -10.25726 -10.25463 -10.25406 -10.25338
 Alpha  occ. eigenvalues --  -10.24753 -10.24652 -10.24533 -10.24530 -10.24150
 Alpha  occ. eigenvalues --  -10.24017 -10.23902 -10.23812 -10.23485 -10.23465
 Alpha  occ. eigenvalues --  -10.23463 -10.23439 -10.23406 -10.23191 -10.23116
 Alpha  occ. eigenvalues --  -10.23070 -10.22995 -10.22987 -10.22940 -10.22893
 Alpha  occ. eigenvalues --  -10.22735 -10.22521 -10.22509 -10.22338 -10.22322
 Alpha  occ. eigenvalues --  -10.22083 -10.22017 -10.21917 -10.21700 -10.21629
 Alpha  occ. eigenvalues --  -10.21604  -3.14235  -1.87043  -1.86639  -1.86431
 Alpha  occ. eigenvalues --   -1.11235  -1.09469  -1.04884  -1.04587  -1.01768
 Alpha  occ. eigenvalues --   -1.00917  -0.99570  -0.97988  -0.97465  -0.96760
 Alpha  occ. eigenvalues --   -0.86001  -0.84569  -0.83481  -0.83385  -0.83331
 Alpha  occ. eigenvalues --   -0.82661  -0.82520  -0.81805  -0.81289  -0.81159
 Alpha  occ. eigenvalues --   -0.80404  -0.79455  -0.78284  -0.77924  -0.77513
 Alpha  occ. eigenvalues --   -0.76567  -0.76289  -0.75625  -0.75168  -0.74723
 Alpha  occ. eigenvalues --   -0.73544  -0.73090  -0.72225  -0.71719  -0.70589
 Alpha  occ. eigenvalues --   -0.69975  -0.69488  -0.69479  -0.68755  -0.67941
 Alpha  occ. eigenvalues --   -0.67303  -0.66918  -0.66296  -0.65049  -0.64532
 Alpha  occ. eigenvalues --   -0.62949  -0.62485  -0.61235  -0.60955  -0.59557
 Alpha  occ. eigenvalues --   -0.59353  -0.59257  -0.59209  -0.59036  -0.57944
 Alpha  occ. eigenvalues --   -0.57895  -0.57328  -0.56254  -0.55423  -0.54839
 Alpha  occ. eigenvalues --   -0.54123  -0.54097  -0.53675  -0.52830  -0.52259
 Alpha  occ. eigenvalues --   -0.51282  -0.51195  -0.50878  -0.50312  -0.49948
 Alpha  occ. eigenvalues --   -0.49586  -0.49089  -0.48807  -0.48724  -0.48295
 Alpha  occ. eigenvalues --   -0.47827  -0.47795  -0.47589  -0.47453  -0.47188
 Alpha  occ. eigenvalues --   -0.47006  -0.46930  -0.46779  -0.46536  -0.46481
 Alpha  occ. eigenvalues --   -0.45904  -0.45719  -0.45432  -0.45299  -0.45231
 Alpha  occ. eigenvalues --   -0.44972  -0.44891  -0.44607  -0.44325  -0.44207
 Alpha  occ. eigenvalues --   -0.43961  -0.43828  -0.43714  -0.43653  -0.43376
 Alpha  occ. eigenvalues --   -0.43231  -0.42979  -0.42817  -0.42664  -0.42535
 Alpha  occ. eigenvalues --   -0.42372  -0.42155  -0.41857  -0.41635  -0.41454
 Alpha  occ. eigenvalues --   -0.41094  -0.40914  -0.40785  -0.40483  -0.40319
 Alpha  occ. eigenvalues --   -0.40173  -0.39692  -0.39483  -0.39409  -0.39231
 Alpha  occ. eigenvalues --   -0.39153  -0.39056  -0.38802  -0.38753  -0.38716
 Alpha  occ. eigenvalues --   -0.38584  -0.38425  -0.38328  -0.38063  -0.37977
 Alpha  occ. eigenvalues --   -0.37697  -0.37624  -0.37384  -0.37130  -0.36831
 Alpha  occ. eigenvalues --   -0.36805  -0.36304  -0.36156  -0.36082  -0.35824
 Alpha  occ. eigenvalues --   -0.35620  -0.35369  -0.35247  -0.34975  -0.34576
 Alpha  occ. eigenvalues --   -0.34479  -0.34365  -0.34149  -0.34093  -0.33985
 Alpha  occ. eigenvalues --   -0.33795  -0.33653  -0.32895  -0.32845  -0.32312
 Alpha  occ. eigenvalues --   -0.32079  -0.31732  -0.31643  -0.31308  -0.30835
 Alpha  occ. eigenvalues --   -0.30701  -0.30110  -0.29800  -0.29575  -0.28992
 Alpha  occ. eigenvalues --   -0.28443  -0.28394  -0.28368  -0.26763  -0.25960
 Alpha  occ. eigenvalues --   -0.25388  -0.25293  -0.24581  -0.23931  -0.20825
 Alpha  occ. eigenvalues --   -0.18833
 Alpha virt. eigenvalues --   -0.11159  -0.05104  -0.03621  -0.02010  -0.00809
 Alpha virt. eigenvalues --   -0.00171   0.00487   0.01101   0.01324   0.02765
 Alpha virt. eigenvalues --    0.03805   0.04352   0.04558   0.04695   0.05415

 Mulliken charges:
               1
     1  Mg   0.973343
     2  C   -0.012647
     3  C   -0.082554
     4  C   -0.040654
     5  C   -0.088783
     6  N   -0.369626
     7  C    0.022708
     8  C   -0.112547
     9  C   -0.145729
    10  C    0.111204
    11  C    0.022589
    12  C    0.001708
    13  C   -0.030375
    14  C    0.229395
    15  O   -0.265018
    16  O   -0.357531
    17  N   -0.515569
    18  C    0.166408
    19  C   -0.200813
    20  C   -0.058951
    21  C    0.136070
    22  C    0.058543
    23  C    0.028667
    24  O   -0.249676
    25  C   -0.000522
    26  N   -0.391099
    27  C    0.071385
    28  C   -0.099410
    29  C   -0.063153
    30  C    0.065530
    31  C   -0.001071
    32  C   -0.034960
    33  C   -0.059307
    34  N   -0.489496
    35  C    0.127950
    36  C   -0.201123
    37  C   -0.075362
    38  C    0.171700
    39  C    0.066489
    40  C    0.139296
    41  O   -0.203634
    42  C   -0.058119
    43  C    0.283921
    44  O   -0.274206
    45  O   -0.386886
    46  C    0.130615
    47  C    0.227264
    48  C   -0.155139
    49  C   -0.214885
    50  C    0.028020
    51  C    0.029491
    52  C   -0.106726
    53  C    0.036294
    54  C   -0.243176
    55  C   -0.029737
    56  C    0.011732
    57  C   -0.066746
    58  C   -0.023225
    59  C   -0.207291
    60  C   -0.013150
    61  C   -0.003270
    62  C   -0.048382
    63  C   -0.011378
    64  C   -0.240978
    65  C   -0.030066
    66  C   -0.007995
    67  H   -0.004153
    68  H    0.024177
    69  H   -0.001811
    70  H    0.052497
    71  H    0.039916
    72  H    0.048370
    73  H    0.027840
    74  H    0.053055
    75  H    0.077682
    76  H    0.061665
    77  H    0.045356
    78  H    0.076988
    79  H    0.043009
    80  H    0.074074
    81  H    0.059724
    82  H    0.057413
    83  H    0.064378
    84  H    0.074242
    85  H    0.056207
    86  H    0.052328
    87  H    0.053716
    88  H    0.040397
    89  H    0.051634
    90  H    0.042112
    91  H    0.038225
    92  H    0.041966
    93  H    0.054226
    94  H    0.043376
    95  H    0.045099
    96  H    0.064199
    97  H    0.056945
    98  H    0.080318
    99  H    0.048842
   100  H    0.068144
   101  H    0.063166
   102  H    0.067438
   103  H    0.054101
   104  H    0.026405
   105  H    0.048710
   106  H    0.047524
   107  H    0.037145
   108  H    0.021688
   109  H    0.043346
   110  H    0.046952
   111  H    0.057986
   112  H    0.024703
   113  H    0.023953
   114  H    0.026067
   115  H    0.047189
   116  H    0.028023
   117  H    0.030022
   118  H    0.034595
   119  H    0.037885
   120  H    0.030191
   121  H    0.024691
   122  H    0.013206
   123  H    0.015455
   124  H    0.046246
   125  H    0.038730
   126  H    0.031436
   127  H    0.038272
   128  H    0.027759
   129  H    0.032250
   130  H    0.029384
   131  H    0.039324
   132  H    0.033858
   133  H    0.023980
   134  H    0.035404
   135  H    0.021228
   136  H    0.041120
   137  H    0.038755
   138  H    0.027560
   139  H    0.033637
   140  H    0.029103
 Sum of Mulliken charges =  -0.00000

 Dipole moment (field-independent basis, Debye):
    X=             -2.0494    Y=              3.1338    Z=             -4.2303  Tot=              5.6495
 Quadrupole moment (field-independent basis, Debye-Ang):
   XX=           -361.5719   YY=           -415.6238   ZZ=           -406.1387
   XY=             16.8006   XZ=              1.1301   YZ=             -4.7465

 Normal termination of Gaussian 16 at Fri Apr 29 23:23:56 2022.
