 Gaussian 16, Revision A.03,
 Gaussian 16:  ES64L-G16RevA.03 25-Dec-2016

 --------------------------------
 #p wB97XD/Def2SVP td=(nstates=5)
 --------------------------------

 --------------------------------------------------
 step_51_chromophore_1 TDDFT with wB97XD functional
 --------------------------------------------------
 Symbolic Z-matrix:
 Charge =  0 Multiplicity = 1

                         Standard orientation:
 ---------------------------------------------------------------------
 Center     Atomic      Atomic             Coordinates (Angstroms)
 Number     Number       Type             X           Y           Z
 ---------------------------------------------------------------------
      1         12           0        5.975987    0.574027    0.273750
      2          6           0        4.108477   -2.405972   -0.401210
      3          6           0        3.618790    2.266110   -1.620686
      4          6           0        7.821411    3.372779    0.419658
      5          6           0        8.796058   -1.328571    0.742019
      6          7           0        4.148631   -0.104505   -0.979244
      7          6           0        3.416015   -1.241462   -0.824445
      8          6           0        1.993486   -1.177201   -1.513888
      9          6           0        2.073441    0.260356   -2.092813
     10          6           0        3.327879    0.909328   -1.466189
     11          6           0        1.984720    0.284535   -3.656738
     12          6           0        0.887961   -1.446157   -0.448537
     13          6           0       -0.540965   -0.741653   -0.696479
     14          6           0       -1.767873   -1.455147   -0.054815
     15          8           0       -2.024029   -1.547864    1.140007
     16          8           0       -2.617226   -1.965547   -0.978134
     17          7           0        5.646422    2.574049   -0.229326
     18          6           0        4.608375    3.038868   -1.054987
     19          6           0        4.669831    4.536329   -0.945192
     20          6           0        5.884255    4.818442   -0.255492
     21          6           0        6.499262    3.619439    0.023324
     22          6           0        3.532822    5.364041   -1.542202
     23          6           0        6.464250    6.210261    0.037599
     24          8           0        7.470495    6.332338    0.740474
     25          6           0        5.715701    7.422168   -0.476957
     26          7           0        8.007485    0.952824    0.443290
     27          6           0        8.544757    2.179477    0.512993
     28          6           0       10.069361    2.105204    0.627064
     29          6           0       10.385548    0.578385    0.658541
     30          6           0        8.965859    0.029834    0.590344
     31          6           0       10.846318    2.878096   -0.497090
     32          6           0       11.365485   -0.105808    1.696174
     33          6           0       10.864070   -0.674437    3.044073
     34          7           0        6.474336   -1.450825    0.420506
     35          6           0        7.630469   -2.102020    0.702406
     36          6           0        7.414595   -3.470225    0.747071
     37          6           0        6.078546   -3.653735    0.286006
     38          6           0        5.494955   -2.367106    0.136045
     39          6           0        8.538703   -4.406501    1.030002
     40          6           0        4.984573   -4.641156   -0.025969
     41          8           0        5.093337   -5.848839   -0.030451
     42          6           0        3.723860   -3.922970   -0.534400
     43          6           0        2.613905   -4.422151    0.271147
     44          8           0        2.371202   -4.121546    1.454032
     45          8           0        1.858482   -5.354520   -0.432383
     46          6           0        0.651412   -5.912203    0.211365
     47          6           0       -3.812261   -2.726969   -0.596294
     48          6           0       -5.056892   -1.857601   -0.957885
     49          6           0       -6.360133   -2.231063   -0.940698
     50          6           0       -6.806048   -3.557954   -0.486001
     51          6           0       -7.376881   -1.317982   -1.575213
     52          6           0       -7.477595    0.080252   -0.803855
     53          6           0       -8.835718    0.765155   -0.944573
     54          6           0       -9.172290    1.654599    0.312558
     55          6           0       -7.946708    2.533594    0.688320
     56          6           0       -9.873209    0.883562    1.465742
     57          6           0      -10.536927    1.930358    2.443018
     58          6           0      -11.843923    1.375141    3.028329
     59          6           0      -13.118638    1.777575    2.232622
     60          6           0      -13.818218    3.075916    2.846215
     61          6           0      -14.041979    0.469730    2.228530
     62          6           0      -13.828130   -0.281879    0.902503
     63          6           0      -15.077359   -0.053606   -0.037773
     64          6           0      -14.677892    0.237133   -1.560409
     65          6           0      -14.710500    1.768518   -1.631341
     66          6           0      -15.659673   -0.333229   -2.559552
     67          1           0        2.828718    2.881516   -2.055542
     68          1           0        8.424622    4.281031    0.358003
     69          1           0        9.669878   -1.983391    0.736260
     70          1           0        1.952396   -1.933468   -2.298001
     71          1           0        1.206189    0.864883   -1.829395
     72          1           0        2.872969    0.816793   -3.997083
     73          1           0        1.187196    0.985660   -3.901179
     74          1           0        1.721704   -0.686898   -4.075229
     75          1           0        1.228279   -1.362974    0.584001
     76          1           0        0.744521   -2.510078   -0.633572
     77          1           0       -0.676821   -0.711650   -1.777408
     78          1           0       -0.543240    0.294424   -0.357753
     79          1           0        2.683460    4.728163   -1.794165
     80          1           0        3.941758    5.859770   -2.422612
     81          1           0        3.203361    6.042529   -0.755250
     82          1           0        5.444261    7.172414   -1.503168
     83          1           0        6.428948    8.235740   -0.345134
     84          1           0        4.860907    7.518231    0.192449
     85          1           0       10.310695    2.562069    1.586621
     86          1           0       10.724346    0.217897   -0.312763
     87          1           0       10.240100    3.073201   -1.381973
     88          1           0       11.714780    2.324120   -0.852818
     89          1           0       11.211898    3.799387   -0.043593
     90          1           0       12.128676    0.664003    1.810548
     91          1           0       11.820479   -0.960775    1.195688
     92          1           0       10.749393   -1.756717    2.985630
     93          1           0        9.916359   -0.191868    3.288550
     94          1           0       11.522557   -0.525735    3.899739
     95          1           0        9.153170   -3.965141    1.815545
     96          1           0        9.076473   -4.607400    0.104253
     97          1           0        8.151984   -5.348998    1.417935
     98          1           0        3.506222   -4.163012   -1.574358
     99          1           0       -0.130134   -5.153479    0.221976
    100          1           0        0.895474   -6.154240    1.246052
    101          1           0        0.245353   -6.797806   -0.278378
    102          1           0       -3.874610   -2.931999    0.472713
    103          1           0       -3.892632   -3.723663   -1.030395
    104          1           0       -4.744347   -0.912319   -1.401662
    105          1           0       -7.124143   -4.087168   -1.384278
    106          1           0       -7.715405   -3.417243    0.098875
    107          1           0       -6.076046   -4.217785   -0.016766
    108          1           0       -8.338339   -1.810372   -1.720341
    109          1           0       -6.958310   -1.016142   -2.534819
    110          1           0       -6.659215    0.634432   -1.264831
    111          1           0       -7.219403   -0.190322    0.219344
    112          1           0       -9.730243    0.148585   -1.034556
    113          1           0       -8.771972    1.473788   -1.769640
    114          1           0       -9.905088    2.374533   -0.052194
    115          1           0       -6.925155    2.186452    0.526860
    116          1           0       -8.036089    2.776960    1.747329
    117          1           0       -8.030468    3.461996    0.122316
    118          1           0       -9.053330    0.419624    2.014430
    119          1           0      -10.568967    0.137150    1.080925
    120          1           0      -10.627967    2.951604    2.072924
    121          1           0       -9.872172    2.078788    3.293926
    122          1           0      -11.925312    1.564974    4.098621
    123          1           0      -11.636938    0.311206    3.143339
    124          1           0      -12.741827    2.053088    1.247878
    125          1           0      -14.243316    3.665440    2.033818
    126          1           0      -13.017491    3.615378    3.351327
    127          1           0      -14.598634    2.932603    3.594316
    128          1           0      -15.092588    0.761617    2.258398
    129          1           0      -13.745307   -0.154123    3.071479
    130          1           0      -13.633199   -1.325412    1.148645
    131          1           0      -12.926626    0.115727    0.436627
    132          1           0      -15.809275    0.681594    0.297049
    133          1           0      -15.571984   -1.025031   -0.035213
    134          1           0      -13.696241   -0.180574   -1.787424
    135          1           0      -14.487853    2.010225   -2.670546
    136          1           0      -13.933243    2.276275   -1.059281
    137          1           0      -15.711647    2.169512   -1.475925
    138          1           0      -16.662658   -0.499396   -2.168320
    139          1           0      -15.340605   -1.327155   -2.873427
    140          1           0      -15.798370    0.325094   -3.417249
 ---------------------------------------------------------------------

 SCF Done:  E(RwB97XD) =  -3007.85275310     A.U. after   20 cycles

 Excitation energies and oscillator strengths:

 Excited State   1:      Singlet-A      1.6548 eV  749.26 nm  f=0.3668  <S**2>=0.000
     245 -> 248        0.19069
     246 -> 247        0.68263
     245 <- 248        0.11918
 This state for optimization and/or second-order correction.
 Total Energy, E(TD-HF/TD-DFT) =  -3007.79194188
 Copying the excited state density for this state as the 1-particle RhoCI density.

 Excited State   2:      Singlet-A      2.1287 eV  582.44 nm  f=0.1187  <S**2>=0.000
     245 -> 247        0.64169
     246 -> 248       -0.27601

 Excited State   3:      Singlet-A      3.2022 eV  387.19 nm  f=0.0018  <S**2>=0.000
     242 -> 247       -0.29597
     243 -> 247        0.62396

 Excited State   4:      Singlet-A      3.3341 eV  371.87 nm  f=0.0147  <S**2>=0.000
     242 -> 247        0.56323
     243 -> 247        0.26125
     246 -> 248        0.28986

 Excited State   5:      Singlet-A      3.5827 eV  346.06 nm  f=0.0166  <S**2>=0.000
     241 -> 247        0.57465
     241 -> 249       -0.24406
     241 -> 250       -0.24901

 The electronic state is 1-A.
 Alpha  occ. eigenvalues --  -46.95063 -19.30299 -19.29815 -19.24465 -19.24157
 Alpha  occ. eigenvalues --  -19.24024 -19.23571 -14.46999 -14.46234 -14.43751
 Alpha  occ. eigenvalues --  -14.42814 -10.43456 -10.43153 -10.39607 -10.38938
 Alpha  occ. eigenvalues --  -10.36287 -10.35566 -10.35379 -10.35210 -10.34883
 Alpha  occ. eigenvalues --  -10.34468 -10.33852 -10.33766 -10.33721 -10.33384
 Alpha  occ. eigenvalues --  -10.33038 -10.32940 -10.32849 -10.32670 -10.32074
 Alpha  occ. eigenvalues --  -10.32032 -10.31961 -10.31820 -10.31782 -10.31465
 Alpha  occ. eigenvalues --  -10.31269 -10.31157 -10.30887 -10.30743 -10.30674
 Alpha  occ. eigenvalues --  -10.30510 -10.30335 -10.30088 -10.29907 -10.29857
 Alpha  occ. eigenvalues --  -10.29853 -10.29750 -10.29718 -10.29490 -10.29463
 Alpha  occ. eigenvalues --  -10.29386 -10.29323 -10.29255 -10.29228 -10.29157
 Alpha  occ. eigenvalues --  -10.29112 -10.28882 -10.28872 -10.28711 -10.28693
 Alpha  occ. eigenvalues --  -10.28453 -10.28436 -10.28274 -10.28139 -10.28072
 Alpha  occ. eigenvalues --  -10.28037  -3.21046  -1.94601  -1.94199  -1.93986
 Alpha  occ. eigenvalues --   -1.18607  -1.16859  -1.12231  -1.12227  -1.09111
 Alpha  occ. eigenvalues --   -1.08280  -1.06918  -1.05330  -1.04814  -1.04187
 Alpha  occ. eigenvalues --   -0.93564  -0.92254  -0.91151  -0.91033  -0.90974
 Alpha  occ. eigenvalues --   -0.90261  -0.90198  -0.89440  -0.89097  -0.88834
 Alpha  occ. eigenvalues --   -0.87855  -0.87099  -0.85921  -0.85523  -0.85159
 Alpha  occ. eigenvalues --   -0.84337  -0.84025  -0.83293  -0.82763  -0.82373
 Alpha  occ. eigenvalues --   -0.81233  -0.80823  -0.79833  -0.79278  -0.78145
 Alpha  occ. eigenvalues --   -0.77657  -0.77186  -0.77042  -0.76446  -0.75623
 Alpha  occ. eigenvalues --   -0.74872  -0.74443  -0.73858  -0.72676  -0.72037
 Alpha  occ. eigenvalues --   -0.70597  -0.69962  -0.68891  -0.68639  -0.66999
 Alpha  occ. eigenvalues --   -0.66953  -0.66863  -0.66622  -0.66447  -0.65578
 Alpha  occ. eigenvalues --   -0.65415  -0.64980  -0.63592  -0.63044  -0.62389
 Alpha  occ. eigenvalues --   -0.61640  -0.61500  -0.61121  -0.60189  -0.59703
 Alpha  occ. eigenvalues --   -0.58729  -0.58598  -0.58234  -0.57749  -0.57416
 Alpha  occ. eigenvalues --   -0.56957  -0.56505  -0.56246  -0.56149  -0.55634
 Alpha  occ. eigenvalues --   -0.55545  -0.55265  -0.54911  -0.54857  -0.54646
 Alpha  occ. eigenvalues --   -0.54419  -0.54313  -0.54070  -0.53927  -0.53762
 Alpha  occ. eigenvalues --   -0.53302  -0.53099  -0.52829  -0.52680  -0.52599
 Alpha  occ. eigenvalues --   -0.52294  -0.52138  -0.51986  -0.51768  -0.51571
 Alpha  occ. eigenvalues --   -0.51278  -0.51165  -0.51073  -0.51007  -0.50613
 Alpha  occ. eigenvalues --   -0.50530  -0.50293  -0.50115  -0.49978  -0.49837
 Alpha  occ. eigenvalues --   -0.49738  -0.49428  -0.49094  -0.48858  -0.48706
 Alpha  occ. eigenvalues --   -0.48279  -0.48106  -0.47957  -0.47649  -0.47523
 Alpha  occ. eigenvalues --   -0.47390  -0.46764  -0.46746  -0.46626  -0.46313
 Alpha  occ. eigenvalues --   -0.46292  -0.46266  -0.45994  -0.45976  -0.45871
 Alpha  occ. eigenvalues --   -0.45690  -0.45530  -0.45473  -0.45115  -0.45084
 Alpha  occ. eigenvalues --   -0.44798  -0.44652  -0.44534  -0.44222  -0.44018
 Alpha  occ. eigenvalues --   -0.43936  -0.43461  -0.43275  -0.43214  -0.42934
 Alpha  occ. eigenvalues --   -0.42722  -0.42391  -0.42224  -0.42055  -0.41583
 Alpha  occ. eigenvalues --   -0.41516  -0.41290  -0.41196  -0.41094  -0.41037
 Alpha  occ. eigenvalues --   -0.40750  -0.40719  -0.39903  -0.39861  -0.39308
 Alpha  occ. eigenvalues --   -0.39041  -0.38710  -0.38560  -0.38332  -0.37887
 Alpha  occ. eigenvalues --   -0.37702  -0.37059  -0.36654  -0.36356  -0.35743
 Alpha  occ. eigenvalues --   -0.35490  -0.35394  -0.35361  -0.33526  -0.33068
 Alpha  occ. eigenvalues --   -0.32329  -0.32005  -0.30945  -0.30676  -0.25811
 Alpha  occ. eigenvalues --   -0.23043
 Alpha virt. eigenvalues --   -0.07045   0.00307   0.02686   0.04567   0.05137
 Alpha virt. eigenvalues --    0.06617   0.07287   0.07866   0.08070   0.09448
 Alpha virt. eigenvalues --    0.10328   0.11096   0.11144   0.11534   0.12121

 Mulliken charges:
               1
     1  Mg   0.964334
     2  C   -0.025168
     3  C   -0.094908
     4  C   -0.058745
     5  C   -0.101126
     6  N   -0.338994
     7  C   -0.007022
     8  C   -0.086193
     9  C   -0.121716
    10  C    0.102168
    11  C    0.033387
    12  C    0.011515
    13  C   -0.011316
    14  C    0.217082
    15  O   -0.262050
    16  O   -0.355882
    17  N   -0.489127
    18  C    0.161201
    19  C   -0.192012
    20  C   -0.051441
    21  C    0.133009
    22  C    0.072343
    23  C    0.021764
    24  O   -0.243203
    25  C    0.013747
    26  N   -0.354768
    27  C    0.060573
    28  C   -0.074713
    29  C   -0.044901
    30  C    0.052876
    31  C    0.008702
    32  C   -0.016789
    33  C   -0.040606
    34  N   -0.451976
    35  C    0.114209
    36  C   -0.195174
    37  C   -0.068755
    38  C    0.153561
    39  C    0.079533
    40  C    0.116917
    41  O   -0.196318
    42  C   -0.012991
    43  C    0.255537
    44  O   -0.267135
    45  O   -0.385263
    46  C    0.146376
    47  C    0.239919
    48  C   -0.167946
    49  C   -0.194120
    50  C    0.040708
    51  C    0.041459
    52  C   -0.083273
    53  C    0.049628
    54  C   -0.208602
    55  C   -0.020681
    56  C    0.027245
    57  C   -0.049957
    58  C   -0.009819
    59  C   -0.174132
    60  C   -0.000070
    61  C    0.015286
    62  C   -0.027310
    63  C    0.001444
    64  C   -0.209182
    65  C   -0.014974
    66  C    0.000730
    67  H   -0.012725
    68  H    0.018316
    69  H   -0.012623
    70  H    0.042831
    71  H    0.025614
    72  H    0.041665
    73  H    0.022339
    74  H    0.048791
    75  H    0.073900
    76  H    0.046823
    77  H    0.037793
    78  H    0.071191
    79  H    0.040254
    80  H    0.069954
    81  H    0.054219
    82  H    0.049746
    83  H    0.063881
    84  H    0.069538
    85  H    0.046720
    86  H    0.040110
    87  H    0.047676
    88  H    0.035296
    89  H    0.046635
    90  H    0.033616
    91  H    0.030761
    92  H    0.034632
    93  H    0.044545
    94  H    0.038525
    95  H    0.036979
    96  H    0.058502
    97  H    0.052337
    98  H    0.075344
    99  H    0.043932
   100  H    0.064058
   101  H    0.060091
   102  H    0.062674
   103  H    0.049739
   104  H    0.021948
   105  H    0.042362
   106  H    0.041838
   107  H    0.033076
   108  H    0.015453
   109  H    0.035032
   110  H    0.037384
   111  H    0.043748
   112  H    0.016095
   113  H    0.016467
   114  H    0.012276
   115  H    0.041336
   116  H    0.020827
   117  H    0.024692
   118  H    0.025291
   119  H    0.025663
   120  H    0.020381
   121  H    0.016883
   122  H    0.005554
   123  H    0.004251
   124  H    0.026015
   125  H    0.033088
   126  H    0.024198
   127  H    0.033096
   128  H    0.017212
   129  H    0.024081
   130  H    0.023657
   131  H    0.019086
   132  H    0.023912
   133  H    0.015458
   134  H    0.026653
   135  H    0.013533
   136  H    0.033539
   137  H    0.031981
   138  H    0.021421
   139  H    0.028587
   140  H    0.023350
 Sum of Mulliken charges =  -0.00000

 Dipole moment (field-independent basis, Debye):
    X=             -2.2829    Y=              3.6565    Z=             -4.3422  Tot=              6.1185
 Quadrupole moment (field-independent basis, Debye-Ang):
   XX=           -364.5579   YY=           -413.1446   ZZ=           -405.8429
   XY=             19.9912   XZ=              0.4899   YZ=             -4.9221

 Normal termination of Gaussian 16 at Fri Apr 29 23:50:09 2022.
