 Gaussian 16, Revision A.03,
 Gaussian 16:  ES64L-G16RevA.03 25-Dec-2016

 --------------------
 #p ZINDO=(nstates=5)
 --------------------

 ---------------------------
 step_51_chromophore_1 ZINDO
 ---------------------------
 Symbolic Z-matrix:
 Charge =  0 Multiplicity = 1

                         Standard orientation:
 ---------------------------------------------------------------------
 Center     Atomic      Atomic             Coordinates (Angstroms)
 Number     Number       Type             X           Y           Z
 ---------------------------------------------------------------------
      1         12           0        5.975987    0.574027    0.273750
      2          6           0        4.108477   -2.405972   -0.401210
      3          6           0        3.618790    2.266110   -1.620686
      4          6           0        7.821411    3.372779    0.419658
      5          6           0        8.796058   -1.328571    0.742019
      6          7           0        4.148631   -0.104505   -0.979244
      7          6           0        3.416015   -1.241462   -0.824445
      8          6           0        1.993486   -1.177201   -1.513888
      9          6           0        2.073441    0.260356   -2.092813
     10          6           0        3.327879    0.909328   -1.466189
     11          6           0        1.984720    0.284535   -3.656738
     12          6           0        0.887961   -1.446157   -0.448537
     13          6           0       -0.540965   -0.741653   -0.696479
     14          6           0       -1.767873   -1.455147   -0.054815
     15          8           0       -2.024029   -1.547864    1.140007
     16          8           0       -2.617226   -1.965547   -0.978134
     17          7           0        5.646422    2.574049   -0.229326
     18          6           0        4.608375    3.038868   -1.054987
     19          6           0        4.669831    4.536329   -0.945192
     20          6           0        5.884255    4.818442   -0.255492
     21          6           0        6.499262    3.619439    0.023324
     22          6           0        3.532822    5.364041   -1.542202
     23          6           0        6.464250    6.210261    0.037599
     24          8           0        7.470495    6.332338    0.740474
     25          6           0        5.715701    7.422168   -0.476957
     26          7           0        8.007485    0.952824    0.443290
     27          6           0        8.544757    2.179477    0.512993
     28          6           0       10.069361    2.105204    0.627064
     29          6           0       10.385548    0.578385    0.658541
     30          6           0        8.965859    0.029834    0.590344
     31          6           0       10.846318    2.878096   -0.497090
     32          6           0       11.365485   -0.105808    1.696174
     33          6           0       10.864070   -0.674437    3.044073
     34          7           0        6.474336   -1.450825    0.420506
     35          6           0        7.630469   -2.102020    0.702406
     36          6           0        7.414595   -3.470225    0.747071
     37          6           0        6.078546   -3.653735    0.286006
     38          6           0        5.494955   -2.367106    0.136045
     39          6           0        8.538703   -4.406501    1.030002
     40          6           0        4.984573   -4.641156   -0.025969
     41          8           0        5.093337   -5.848839   -0.030451
     42          6           0        3.723860   -3.922970   -0.534400
     43          6           0        2.613905   -4.422151    0.271147
     44          8           0        2.371202   -4.121546    1.454032
     45          8           0        1.858482   -5.354520   -0.432383
     46          6           0        0.651412   -5.912203    0.211365
     47          6           0       -3.812261   -2.726969   -0.596294
     48          6           0       -5.056892   -1.857601   -0.957885
     49          6           0       -6.360133   -2.231063   -0.940698
     50          6           0       -6.806048   -3.557954   -0.486001
     51          6           0       -7.376881   -1.317982   -1.575213
     52          6           0       -7.477595    0.080252   -0.803855
     53          6           0       -8.835718    0.765155   -0.944573
     54          6           0       -9.172290    1.654599    0.312558
     55          6           0       -7.946708    2.533594    0.688320
     56          6           0       -9.873209    0.883562    1.465742
     57          6           0      -10.536927    1.930358    2.443018
     58          6           0      -11.843923    1.375141    3.028329
     59          6           0      -13.118638    1.777575    2.232622
     60          6           0      -13.818218    3.075916    2.846215
     61          6           0      -14.041979    0.469730    2.228530
     62          6           0      -13.828130   -0.281879    0.902503
     63          6           0      -15.077359   -0.053606   -0.037773
     64          6           0      -14.677892    0.237133   -1.560409
     65          6           0      -14.710500    1.768518   -1.631341
     66          6           0      -15.659673   -0.333229   -2.559552
     67          1           0        2.828718    2.881516   -2.055542
     68          1           0        8.424622    4.281031    0.358003
     69          1           0        9.669878   -1.983391    0.736260
     70          1           0        1.952396   -1.933468   -2.298001
     71          1           0        1.206189    0.864883   -1.829395
     72          1           0        2.872969    0.816793   -3.997083
     73          1           0        1.187196    0.985660   -3.901179
     74          1           0        1.721704   -0.686898   -4.075229
     75          1           0        1.228279   -1.362974    0.584001
     76          1           0        0.744521   -2.510078   -0.633572
     77          1           0       -0.676821   -0.711650   -1.777408
     78          1           0       -0.543240    0.294424   -0.357753
     79          1           0        2.683460    4.728163   -1.794165
     80          1           0        3.941758    5.859770   -2.422612
     81          1           0        3.203361    6.042529   -0.755250
     82          1           0        5.444261    7.172414   -1.503168
     83          1           0        6.428948    8.235740   -0.345134
     84          1           0        4.860907    7.518231    0.192449
     85          1           0       10.310695    2.562069    1.586621
     86          1           0       10.724346    0.217897   -0.312763
     87          1           0       10.240100    3.073201   -1.381973
     88          1           0       11.714780    2.324120   -0.852818
     89          1           0       11.211898    3.799387   -0.043593
     90          1           0       12.128676    0.664003    1.810548
     91          1           0       11.820479   -0.960775    1.195688
     92          1           0       10.749393   -1.756717    2.985630
     93          1           0        9.916359   -0.191868    3.288550
     94          1           0       11.522557   -0.525735    3.899739
     95          1           0        9.153170   -3.965141    1.815545
     96          1           0        9.076473   -4.607400    0.104253
     97          1           0        8.151984   -5.348998    1.417935
     98          1           0        3.506222   -4.163012   -1.574358
     99          1           0       -0.130134   -5.153479    0.221976
    100          1           0        0.895474   -6.154240    1.246052
    101          1           0        0.245353   -6.797806   -0.278378
    102          1           0       -3.874610   -2.931999    0.472713
    103          1           0       -3.892632   -3.723663   -1.030395
    104          1           0       -4.744347   -0.912319   -1.401662
    105          1           0       -7.124143   -4.087168   -1.384278
    106          1           0       -7.715405   -3.417243    0.098875
    107          1           0       -6.076046   -4.217785   -0.016766
    108          1           0       -8.338339   -1.810372   -1.720341
    109          1           0       -6.958310   -1.016142   -2.534819
    110          1           0       -6.659215    0.634432   -1.264831
    111          1           0       -7.219403   -0.190322    0.219344
    112          1           0       -9.730243    0.148585   -1.034556
    113          1           0       -8.771972    1.473788   -1.769640
    114          1           0       -9.905088    2.374533   -0.052194
    115          1           0       -6.925155    2.186452    0.526860
    116          1           0       -8.036089    2.776960    1.747329
    117          1           0       -8.030468    3.461996    0.122316
    118          1           0       -9.053330    0.419624    2.014430
    119          1           0      -10.568967    0.137150    1.080925
    120          1           0      -10.627967    2.951604    2.072924
    121          1           0       -9.872172    2.078788    3.293926
    122          1           0      -11.925312    1.564974    4.098621
    123          1           0      -11.636938    0.311206    3.143339
    124          1           0      -12.741827    2.053088    1.247878
    125          1           0      -14.243316    3.665440    2.033818
    126          1           0      -13.017491    3.615378    3.351327
    127          1           0      -14.598634    2.932603    3.594316
    128          1           0      -15.092588    0.761617    2.258398
    129          1           0      -13.745307   -0.154123    3.071479
    130          1           0      -13.633199   -1.325412    1.148645
    131          1           0      -12.926626    0.115727    0.436627
    132          1           0      -15.809275    0.681594    0.297049
    133          1           0      -15.571984   -1.025031   -0.035213
    134          1           0      -13.696241   -0.180574   -1.787424
    135          1           0      -14.487853    2.010225   -2.670546
    136          1           0      -13.933243    2.276275   -1.059281
    137          1           0      -15.711647    2.169512   -1.475925
    138          1           0      -16.662658   -0.499396   -2.168320
    139          1           0      -15.340605   -1.327155   -2.873427
    140          1           0      -15.798370    0.325094   -3.417249
 ---------------------------------------------------------------------

 SCF Done:  E(RZINDO/S) =  -474.083199334     A.U. after   19 cycles

 Excitation energies and oscillator strengths:

 Excited State   1:      Singlet-A      1.2503 eV  991.62 nm  f=0.5681  <S**2>=0.000
     175 ->178        -0.19034
     176 ->177         0.66336
 This state for optimization and/or second-order correction.
 Total Energy, E(CIS/TDA) =  -474.037251107
 Copying the excited state density for this state as the 1-particle RhoCI density.

 Excited State   2:      Singlet-A      1.8683 eV  663.62 nm  f=0.0599  <S**2>=0.000
     175 ->177         0.56309
     176 ->178         0.39604

 Excited State   3:      Singlet-A      2.9513 eV  420.10 nm  f=0.8141  <S**2>=0.000
     171 ->177         0.24788
     175 ->177        -0.32567
     176 ->178         0.51725
     176 ->181         0.10467

 Excited State   4:      Singlet-A      3.0099 eV  411.92 nm  f=0.0521  <S**2>=0.000
     168 ->177        -0.17326
     168 ->179         0.32028
     168 ->184         0.12357
     168 ->185         0.12862
     170 ->177         0.21935
     170 ->178        -0.10443
     170 ->179         0.17174
     170 ->180         0.24666
     170 ->181        -0.15589
     170 ->185         0.16799
     176 ->178         0.11096

 Excited State   5:      Singlet-A      3.0138 eV  411.39 nm  f=0.0029  <S**2>=0.000
     167 ->179        -0.11374
     168 ->177         0.22704
     168 ->179        -0.32501
     168 ->180         0.15678
     168 ->181        -0.12419
     168 ->184        -0.15359
     168 ->185        -0.10786
     170 ->177         0.18877
     170 ->179         0.18630
     170 ->180         0.22071
     170 ->181        -0.13891
     170 ->185         0.16587

 The electronic state is 1-A.
 Alpha  occ. eigenvalues --   -1.84307  -1.81667  -1.78936  -1.72012  -1.70766
 Alpha  occ. eigenvalues --   -1.70469  -1.64692  -1.60236  -1.58904  -1.57769
 Alpha  occ. eigenvalues --   -1.55072  -1.50715  -1.47417  -1.46718  -1.45976
 Alpha  occ. eigenvalues --   -1.43554  -1.41746  -1.40499  -1.39430  -1.38689
 Alpha  occ. eigenvalues --   -1.35585  -1.33561  -1.32307  -1.31623  -1.28316
 Alpha  occ. eigenvalues --   -1.26090  -1.25676  -1.22779  -1.20961  -1.17611
 Alpha  occ. eigenvalues --   -1.16763  -1.15519  -1.14735  -1.14481  -1.13067
 Alpha  occ. eigenvalues --   -1.13030  -1.12031  -1.10346  -1.04624  -1.03686
 Alpha  occ. eigenvalues --   -1.01716  -1.00620  -0.99326  -0.98080  -0.97328
 Alpha  occ. eigenvalues --   -0.95627  -0.95126  -0.94004  -0.93402  -0.92271
 Alpha  occ. eigenvalues --   -0.91018  -0.89982  -0.87709  -0.87422  -0.84659
 Alpha  occ. eigenvalues --   -0.84021  -0.83479  -0.82744  -0.81163  -0.79986
 Alpha  occ. eigenvalues --   -0.79678  -0.78577  -0.77117  -0.75967  -0.75037
 Alpha  occ. eigenvalues --   -0.74758  -0.74542  -0.73961  -0.73703  -0.73409
 Alpha  occ. eigenvalues --   -0.72766  -0.72035  -0.71900  -0.71261  -0.71001
 Alpha  occ. eigenvalues --   -0.69806  -0.69581  -0.69150  -0.68571  -0.68324
 Alpha  occ. eigenvalues --   -0.67989  -0.67290  -0.66801  -0.66422  -0.65161
 Alpha  occ. eigenvalues --   -0.64614  -0.64424  -0.64096  -0.63628  -0.63180
 Alpha  occ. eigenvalues --   -0.63174  -0.63040  -0.62629  -0.62531  -0.62359
 Alpha  occ. eigenvalues --   -0.61998  -0.61659  -0.61425  -0.60549  -0.60490
 Alpha  occ. eigenvalues --   -0.60070  -0.59753  -0.59583  -0.58780  -0.57710
 Alpha  occ. eigenvalues --   -0.57421  -0.57094  -0.56919  -0.56835  -0.56529
 Alpha  occ. eigenvalues --   -0.56123  -0.55704  -0.55586  -0.55208  -0.54684
 Alpha  occ. eigenvalues --   -0.54126  -0.53732  -0.53620  -0.53212  -0.53089
 Alpha  occ. eigenvalues --   -0.52523  -0.52084  -0.51773  -0.50961  -0.50877
 Alpha  occ. eigenvalues --   -0.50705  -0.50537  -0.50291  -0.50140  -0.49676
 Alpha  occ. eigenvalues --   -0.49553  -0.49345  -0.49006  -0.48919  -0.48822
 Alpha  occ. eigenvalues --   -0.48467  -0.48345  -0.48085  -0.47950  -0.47849
 Alpha  occ. eigenvalues --   -0.47770  -0.47616  -0.47430  -0.47153  -0.47035
 Alpha  occ. eigenvalues --   -0.46668  -0.46439  -0.46016  -0.45881  -0.45384
 Alpha  occ. eigenvalues --   -0.45148  -0.44989  -0.44717  -0.44489  -0.43698
 Alpha  occ. eigenvalues --   -0.43641  -0.43280  -0.43017  -0.42401  -0.41808
 Alpha  occ. eigenvalues --   -0.41092  -0.41055  -0.40771  -0.39021  -0.38386
 Alpha  occ. eigenvalues --   -0.37926  -0.36983  -0.35944  -0.34718  -0.34229
 Alpha  occ. eigenvalues --   -0.33012  -0.32256  -0.31463  -0.31173  -0.26375
 Alpha  occ. eigenvalues --   -0.21772
 Alpha virt. eigenvalues --   -0.08503  -0.02006  -0.00238   0.01119   0.01290
 Alpha virt. eigenvalues --    0.02349   0.02707   0.03227   0.04730   0.04839
 Alpha virt. eigenvalues --    0.05930   0.06642   0.07220   0.07874   0.08012

 Mulliken charges:
               1
     1  Mg   0.431853
     2  C   -0.043104
     3  C   -0.072033
     4  C   -0.079435
     5  C   -0.068800
     6  N   -0.284402
     7  C    0.097613
     8  C    0.005122
     9  C   -0.000806
    10  C    0.142993
    11  C   -0.056902
    12  C   -0.022603
    13  C    0.005408
    14  C    0.468934
    15  O   -0.517958
    16  O   -0.271497
    17  N   -0.354714
    18  C    0.111876
    19  C    0.008334
    20  C   -0.028044
    21  C    0.173309
    22  C   -0.040157
    23  C    0.318706
    24  O   -0.521227
    25  C   -0.034180
    26  N   -0.256839
    27  C    0.162236
    28  C    0.013620
    29  C   -0.010242
    30  C    0.115936
    31  C   -0.050255
    32  C   -0.024168
    33  C   -0.052043
    34  N   -0.324649
    35  C    0.093613
    36  C    0.018962
    37  C   -0.061686
    38  C    0.087802
    39  C   -0.038536
    40  C    0.341152
    41  O   -0.514966
    42  C    0.070389
    43  C    0.495569
    44  O   -0.531793
    45  O   -0.277463
    46  C    0.075874
    47  C    0.101959
    48  C   -0.106484
    49  C    0.004730
    50  C   -0.037844
    51  C   -0.033496
    52  C   -0.029933
    53  C   -0.036552
    54  C   -0.021024
    55  C   -0.058915
    56  C   -0.029906
    57  C   -0.040417
    58  C   -0.040505
    59  C   -0.017285
    60  C   -0.062491
    61  C   -0.039719
    62  C   -0.039207
    63  C   -0.041396
    64  C   -0.011116
    65  C   -0.054955
    66  C   -0.053444
    67  H    0.021678
    68  H    0.036205
    69  H    0.019326
    70  H    0.036151
    71  H    0.020959
    72  H    0.029912
    73  H    0.010670
    74  H    0.036232
    75  H    0.051464
    76  H    0.021158
    77  H    0.027143
    78  H    0.044121
    79  H    0.031433
    80  H    0.038333
    81  H    0.032490
    82  H    0.039363
    83  H    0.046129
    84  H    0.049193
    85  H    0.034942
    86  H    0.029411
    87  H    0.027297
    88  H    0.018586
    89  H    0.023464
    90  H    0.016300
    91  H    0.018779
    92  H    0.023197
    93  H    0.022628
    94  H    0.019161
    95  H    0.024644
    96  H    0.035123
    97  H    0.026118
    98  H    0.055837
    99  H    0.035787
   100  H    0.050214
   101  H    0.038019
   102  H    0.053776
   103  H    0.044883
   104  H    0.028972
   105  H    0.023552
   106  H    0.026807
   107  H    0.028603
   108  H    0.023357
   109  H    0.020367
   110  H    0.028276
   111  H    0.027913
   112  H    0.024449
   113  H    0.016047
   114  H    0.007457
   115  H    0.028162
   116  H    0.013674
   117  H    0.012045
   118  H    0.021788
   119  H    0.029883
   120  H    0.025100
   121  H    0.008058
   122  H    0.012189
   123  H    0.012198
   124  H    0.029406
   125  H    0.017986
   126  H    0.017440
   127  H    0.024258
   128  H    0.020626
   129  H    0.025659
   130  H    0.020396
   131  H    0.021133
   132  H    0.034320
   133  H    0.007045
   134  H    0.027356
   135  H   -0.000440
   136  H    0.020438
   137  H    0.025655
   138  H    0.015575
   139  H    0.012739
   140  H    0.018583
 Sum of Mulliken charges =  -0.00000

 Dipole moment (field-independent basis, Debye):
    X=             -3.3923    Y=              6.5934    Z=             -8.4590  Tot=             11.2488
 N-N= 4.226095493128D+03 E-N= 0.000000000000D+00  KE=-9.126775678727D+03
 Leave Link  601 at Sat Apr 30 00:02:38 2022, MaxMem=  6710886400 cpu:               2.2 elap:               0.1
 (Enter /sw/apps/gaussian-16.0/g16/l9999.exe)
 1\1\GINC-BP1-COMPUTE161\SP\RZINDO CIS\STO-3G\C55H74Mg1N4O6\OF15641\30-
 Apr-2022\0\\#p ZINDO=(nstates=5)\\step_51_chromophore_1 ZINDO\\0,1\Mg,
 0,-1.684,17.297,26.952\C,0,-2.229,14.96,29.61\C,0,-2.851,19.747,29.107
 \C,0,-1.666,19.543,24.459\C,0,-2.023,14.749,24.675\N,0,-2.574,17.25,29
 .091\C,0,-2.377,16.302,30.048\C,0,-2.734,16.793,31.509\C,0,-3.173,18.2
 43,31.173\C,0,-2.771,18.486,29.701\C,0,-4.671,18.518,31.54\C,0,-1.487,
 16.631,32.43\C,0,-1.351,17.674,33.652\C,0,-0.533,17.175,34.88\O,0,0.67

 Normal termination of Gaussian 16 at Sat Apr 30 00:02:38 2022.
