 Gaussian 16, Revision A.03,
 Gaussian 16:  ES64L-G16RevA.03 25-Dec-2016

 ------------------------------
 #p blyp/Def2SVP td=(nstates=5)
 ------------------------------

 ------------------------------------------------
 step_51_chromophore_5 TDDFT with blyp functional
 ------------------------------------------------
 Symbolic Z-matrix:
 Charge =  0 Multiplicity = 1

                         Standard orientation:
 ---------------------------------------------------------------------
 Center     Atomic      Atomic             Coordinates (Angstroms)
 Number     Number       Type             X           Y           Z
 ---------------------------------------------------------------------
      1         12           0        5.037085    0.670124   -0.221161
      2          6           0        3.704316   -2.674578    0.251861
      3          6           0        2.478695    1.446343   -2.174536
      4          6           0        6.071546    3.848282    0.047429
      5          6           0        7.183907   -0.206048    2.412354
      6          7           0        3.221039   -0.493693   -0.835112
      7          6           0        2.946058   -1.849502   -0.661696
      8          6           0        1.684695   -2.205430   -1.405155
      9          6           0        1.527461   -0.911401   -2.350625
     10          6           0        2.483921    0.098955   -1.780651
     11          6           0        1.804256   -1.149013   -3.848174
     12          6           0        0.456248   -2.490190   -0.488238
     13          6           0       -0.185217   -3.828376   -0.849937
     14          6           0       -1.247599   -3.781269   -1.978907
     15          8           0       -1.083168   -3.612520   -3.152885
     16          8           0       -2.463508   -3.971153   -1.406884
     17          7           0        4.354912    2.473227   -0.992331
     18          6           0        3.331053    2.556680   -1.818311
     19          6           0        3.223521    3.889787   -2.330866
     20          6           0        4.243659    4.619938   -1.705395
     21          6           0        4.912536    3.681600   -0.779311
     22          6           0        2.290008    4.158838   -3.451609
     23          6           0        4.654879    6.079605   -2.039949
     24          8           0        4.081971    6.572533   -2.969135
     25          6           0        5.798491    6.874576   -1.428143
     26          7           0        6.312602    1.696169    1.116425
     27          6           0        6.687152    3.007468    0.895146
     28          6           0        7.837908    3.488172    1.758179
     29          6           0        7.989511    2.218370    2.670659
     30          6           0        7.139929    1.159264    2.026091
     31          6           0        9.021947    3.811286    0.837027
     32          6           0        7.556357    2.491324    4.130883
     33          6           0        8.598647    1.927646    5.206113
     34          7           0        5.555558   -1.060046    0.870309
     35          6           0        6.418802   -1.266947    1.940805
     36          6           0        6.504817   -2.603950    2.401670
     37          6           0        5.415105   -3.169078    1.774767
     38          6           0        4.849782   -2.187866    0.921149
     39          6           0        7.359179   -3.126441    3.662472
     40          6           0        4.634167   -4.388232    1.666391
     41          8           0        4.843764   -5.498495    2.200837
     42          6           0        3.477167   -4.063240    0.750580
     43          6           0        3.580619   -5.039096   -0.368838
     44          8           0        2.889520   -6.050716   -0.506403
     45          8           0        4.437174   -4.654311   -1.357524
     46          6           0        4.585458   -5.575906   -2.493640
     47          6           0       -3.654331   -3.919713   -2.206779
     48          6           0       -4.003358   -2.503808   -2.314735
     49          6           0       -4.309992   -1.572491   -1.360002
     50          6           0       -4.220674   -1.830353    0.182700
     51          6           0       -4.532883   -0.143163   -1.762472
     52          6           0       -5.901445    0.444058   -1.213712
     53          6           0       -5.814656    1.899883   -0.834667
     54          6           0       -7.143198    2.425133   -0.355101
     55          6           0       -7.328211    3.901180   -0.716055
     56          6           0       -7.325351    2.227927    1.123313
     57          6           0       -8.844071    2.160857    1.448731
     58          6           0       -9.335474    0.645909    1.612937
     59          6           0      -10.704296    0.340134    1.057750
     60          6           0      -10.595810   -0.139861   -0.377310
     61          6           0      -11.395359   -0.734684    1.929815
     62          6           0      -12.672484   -0.182074    2.621668
     63          6           0      -13.977111   -0.141634    1.744516
     64          6           0      -14.584743    1.313575    1.770035
     65          6           0      -15.879809    1.375730    2.586887
     66          6           0      -14.828530    1.767298    0.305869
     67          1           0        1.545312    1.656732   -2.701916
     68          1           0        6.500712    4.848527    0.130773
     69          1           0        7.903674   -0.501611    3.178239
     70          1           0        1.924828   -3.080309   -2.009121
     71          1           0        0.491608   -0.578697   -2.279603
     72          1           0        2.076672   -2.188524   -4.028113
     73          1           0        2.693115   -0.595172   -4.151111
     74          1           0        0.998124   -0.855871   -4.520950
     75          1           0       -0.273210   -1.692964   -0.632651
     76          1           0        0.836131   -2.543085    0.531599
     77          1           0       -0.572148   -4.168513    0.111085
     78          1           0        0.550249   -4.513947   -1.269627
     79          1           0        1.297879    3.743257   -3.273583
     80          1           0        2.630261    3.687009   -4.374339
     81          1           0        2.177050    5.215157   -3.697181
     82          1           0        6.741508    6.333876   -1.508393
     83          1           0        5.494397    6.933647   -0.383332
     84          1           0        5.828208    7.772335   -2.044912
     85          1           0        7.550768    4.391106    2.296622
     86          1           0        9.053882    1.985349    2.684585
     87          1           0        8.714151    4.674455    0.246763
     88          1           0        9.301492    2.887327    0.330666
     89          1           0        9.744909    4.206198    1.550265
     90          1           0        6.570962    2.039117    4.235757
     91          1           0        7.385925    3.544552    4.355050
     92          1           0        8.928695    2.726353    5.871797
     93          1           0        9.573034    1.682904    4.783141
     94          1           0        8.241938    1.070689    5.777011
     95          1           0        7.728471   -4.138575    3.496227
     96          1           0        6.770265   -2.978561    4.566646
     97          1           0        8.147530   -2.421036    3.924580
     98          1           0        2.629252   -4.253263    1.408101
     99          1           0        3.642955   -5.708210   -3.024297
    100          1           0        4.877336   -6.589799   -2.222108
    101          1           0        5.401682   -5.288936   -3.155976
    102          1           0       -4.410571   -4.412135   -1.594436
    103          1           0       -3.435248   -4.404184   -3.158094
    104          1           0       -3.968515   -2.207623   -3.363005
    105          1           0       -3.205403   -2.104411    0.469899
    106          1           0       -4.769912   -2.752699    0.371055
    107          1           0       -4.691640   -1.042111    0.768413
    108          1           0       -4.784497   -0.173035   -2.822578
    109          1           0       -3.671590    0.453129   -1.459783
    110          1           0       -6.339850   -0.152987   -0.413657
    111          1           0       -6.659503    0.474707   -1.996192
    112          1           0       -5.468779    2.465649   -1.699129
    113          1           0       -5.133242    1.816788    0.012498
    114          1           0       -7.983983    1.843530   -0.732921
    115          1           0       -7.931715    3.891162   -1.623436
    116          1           0       -6.385347    4.393666   -0.953717
    117          1           0       -7.882301    4.591913   -0.080670
    118          1           0       -6.962374    3.060789    1.724949
    119          1           0       -6.867822    1.282791    1.413973
    120          1           0       -9.497772    2.687907    0.754087
    121          1           0       -8.915709    2.614272    2.436948
    122          1           0       -9.280919    0.635082    2.701553
    123          1           0       -8.545076   -0.065556    1.373493
    124          1           0      -11.220186    1.285664    0.889556
    125          1           0       -9.729731    0.222895   -0.930148
    126          1           0      -11.531723    0.106264   -0.879439
    127          1           0      -10.589361   -1.228929   -0.320453
    128          1           0      -10.781256   -1.078716    2.762105
    129          1           0      -11.671811   -1.686713    1.476943
    130          1           0      -12.398452    0.804735    2.993432
    131          1           0      -12.846473   -0.886793    3.435016
    132          1           0      -14.621299   -0.867526    2.240331
    133          1           0      -13.850863   -0.493637    0.720544
    134          1           0      -13.924352    2.064231    2.203279
    135          1           0      -16.667902    1.584881    1.862748
    136          1           0      -15.829820    2.191369    3.308986
    137          1           0      -16.047197    0.515530    3.234608
    138          1           0      -15.716680    2.390585    0.204121
    139          1           0      -14.975739    0.898924   -0.337001
    140          1           0      -13.915979    2.292439    0.021369
 ---------------------------------------------------------------------

 SCF Done:  E(RB-LYP) =  -3007.35081757     A.U. after   21 cycles

 Excitation energies and oscillator strengths:

 Excited State   1:      Singlet-A      1.8095 eV  685.17 nm  f=0.2801  <S**2>=0.000
     245 -> 248       -0.19302
     246 -> 247        0.68328
     246 <- 247       -0.15053
 This state for optimization and/or second-order correction.
 Total Energy, E(TD-HF/TD-DFT) =  -3007.28431788
 Copying the excited state density for this state as the 1-particle RhoCI density.

 Excited State   2:      Singlet-A      1.8913 eV  655.53 nm  f=0.0069  <S**2>=0.000
     244 -> 247        0.69576

 Excited State   3:      Singlet-A      1.9714 eV  628.90 nm  f=0.0445  <S**2>=0.000
     243 -> 247        0.50195
     245 -> 247       -0.45232
     246 -> 248       -0.14461

 Excited State   4:      Singlet-A      2.0439 eV  606.60 nm  f=0.0459  <S**2>=0.000
     243 -> 247        0.49248
     245 -> 247        0.45180
     246 -> 248        0.18816

 Excited State   5:      Singlet-A      2.3327 eV  531.50 nm  f=0.0003  <S**2>=0.000
     242 -> 247        0.70625

 The electronic state is 1-A.
 Alpha  occ. eigenvalues --  -46.27737 -18.82619 -18.81113 -18.76928 -18.76084
 Alpha  occ. eigenvalues --  -18.75800 -18.75411 -14.03241 -14.03194 -14.01077
 Alpha  occ. eigenvalues --  -14.00994 -10.04068 -10.03750  -9.99795  -9.99640
 Alpha  occ. eigenvalues --   -9.97969  -9.97361  -9.97064  -9.96621  -9.96232
 Alpha  occ. eigenvalues --   -9.95921  -9.95625  -9.95273  -9.95087  -9.94600
 Alpha  occ. eigenvalues --   -9.94538  -9.94003  -9.93878  -9.93871  -9.93693
 Alpha  occ. eigenvalues --   -9.93632  -9.93546  -9.93511  -9.93502  -9.93453
 Alpha  occ. eigenvalues --   -9.93346  -9.93164  -9.92952  -9.92888  -9.92738
 Alpha  occ. eigenvalues --   -9.92565  -9.92540  -9.92524  -9.92444  -9.92431
 Alpha  occ. eigenvalues --   -9.92407  -9.92202  -9.91703  -9.91609  -9.91595
 Alpha  occ. eigenvalues --   -9.91456  -9.91290  -9.91283  -9.91256  -9.91188
 Alpha  occ. eigenvalues --   -9.91100  -9.91059  -9.90903  -9.90901  -9.90871
 Alpha  occ. eigenvalues --   -9.90752  -9.90696  -9.90684  -9.90651  -9.90405
 Alpha  occ. eigenvalues --   -9.90381  -2.92338  -1.72746  -1.72212  -1.72065
 Alpha  occ. eigenvalues --   -0.98654  -0.98077  -0.93036  -0.90899  -0.90269
 Alpha  occ. eigenvalues --   -0.88777  -0.87479  -0.87053  -0.86343  -0.85578
 Alpha  occ. eigenvalues --   -0.76722  -0.74318  -0.73084  -0.72912  -0.72740
 Alpha  occ. eigenvalues --   -0.72425  -0.72124  -0.70943  -0.70931  -0.70339
 Alpha  occ. eigenvalues --   -0.69484  -0.69195  -0.68352  -0.67918  -0.67381
 Alpha  occ. eigenvalues --   -0.66481  -0.65925  -0.65458  -0.65006  -0.64737
 Alpha  occ. eigenvalues --   -0.64002  -0.62447  -0.62301  -0.61599  -0.61448
 Alpha  occ. eigenvalues --   -0.60930  -0.60133  -0.59892  -0.59660  -0.58916
 Alpha  occ. eigenvalues --   -0.58574  -0.57942  -0.56840  -0.55385  -0.55136
 Alpha  occ. eigenvalues --   -0.54316  -0.53685  -0.52567  -0.52007  -0.51823
 Alpha  occ. eigenvalues --   -0.51341  -0.51107  -0.50706  -0.50603  -0.49892
 Alpha  occ. eigenvalues --   -0.49827  -0.49800  -0.49195  -0.48957  -0.46859
 Alpha  occ. eigenvalues --   -0.46274  -0.45947  -0.45722  -0.45020  -0.44805
 Alpha  occ. eigenvalues --   -0.44400  -0.44202  -0.43263  -0.42912  -0.42701
 Alpha  occ. eigenvalues --   -0.42245  -0.42091  -0.41647  -0.41448  -0.41012
 Alpha  occ. eigenvalues --   -0.40761  -0.40711  -0.40574  -0.40155  -0.39918
 Alpha  occ. eigenvalues --   -0.39860  -0.39777  -0.39758  -0.39540  -0.39299
 Alpha  occ. eigenvalues --   -0.39077  -0.38967  -0.38723  -0.38425  -0.38345
 Alpha  occ. eigenvalues --   -0.38259  -0.38222  -0.37978  -0.37746  -0.37683
 Alpha  occ. eigenvalues --   -0.37331  -0.37190  -0.36886  -0.36679  -0.36406
 Alpha  occ. eigenvalues --   -0.36082  -0.35960  -0.35803  -0.35586  -0.35547
 Alpha  occ. eigenvalues --   -0.35295  -0.35087  -0.34872  -0.34792  -0.34675
 Alpha  occ. eigenvalues --   -0.34421  -0.34377  -0.34305  -0.34131  -0.34058
 Alpha  occ. eigenvalues --   -0.33921  -0.33658  -0.33574  -0.33371  -0.33306
 Alpha  occ. eigenvalues --   -0.33071  -0.32990  -0.32734  -0.32557  -0.32491
 Alpha  occ. eigenvalues --   -0.32280  -0.32072  -0.31991  -0.31940  -0.31710
 Alpha  occ. eigenvalues --   -0.31364  -0.31184  -0.31001  -0.30898  -0.30788
 Alpha  occ. eigenvalues --   -0.30647  -0.30547  -0.30421  -0.30179  -0.30002
 Alpha  occ. eigenvalues --   -0.29714  -0.29557  -0.29444  -0.29075  -0.28910
 Alpha  occ. eigenvalues --   -0.28254  -0.28185  -0.27741  -0.27638  -0.27543
 Alpha  occ. eigenvalues --   -0.27414  -0.27330  -0.27126  -0.26880  -0.26619
 Alpha  occ. eigenvalues --   -0.26393  -0.26206  -0.25730  -0.25713  -0.25410
 Alpha  occ. eigenvalues --   -0.25177  -0.24672  -0.24488  -0.23915  -0.23760
 Alpha  occ. eigenvalues --   -0.23169  -0.22458  -0.22210  -0.21435  -0.20998
 Alpha  occ. eigenvalues --   -0.20406  -0.20148  -0.18801  -0.18475  -0.17374
 Alpha  occ. eigenvalues --   -0.15828
 Alpha virt. eigenvalues --   -0.11579  -0.06938  -0.06228  -0.04411  -0.03377
 Alpha virt. eigenvalues --   -0.02948  -0.02377  -0.01822  -0.01420   0.00328
 Alpha virt. eigenvalues --    0.01248   0.01638   0.02034   0.02374   0.02500

 Mulliken charges:
               1
     1  Mg   0.693512
     2  C   -0.006051
     3  C   -0.052824
     4  C   -0.058625
     5  C   -0.101142
     6  N   -0.211862
     7  C   -0.096552
     8  C    0.024430
     9  C   -0.033608
    10  C    0.026668
    11  C    0.141460
    12  C    0.139651
    13  C    0.119772
    14  C    0.043051
    15  O   -0.167173
    16  O   -0.265583
    17  N   -0.251014
    18  C    0.113250
    19  C   -0.121003
    20  C    0.024362
    21  C    0.104241
    22  C    0.179691
    23  C   -0.115644
    24  O   -0.142444
    25  C    0.151570
    26  N   -0.221932
    27  C    0.000536
    28  C   -0.018955
    29  C    0.053413
    30  C    0.049397
    31  C    0.157978
    32  C    0.100462
    33  C    0.047831
    34  N   -0.228651
    35  C    0.141234
    36  C   -0.214237
    37  C    0.129565
    38  C    0.084527
    39  C    0.158814
    40  C   -0.115187
    41  O   -0.151702
    42  C    0.146896
    43  C    0.102327
    44  O   -0.189221
    45  O   -0.264674
    46  C    0.229384
    47  C    0.381796
    48  C   -0.150506
    49  C   -0.168114
    50  C    0.147709
    51  C    0.206209
    52  C   -0.036341
    53  C    0.152540
    54  C   -0.069906
    55  C    0.116852
    56  C    0.099003
    57  C    0.035692
    58  C    0.076654
    59  C   -0.021804
    60  C    0.097769
    61  C    0.113094
    62  C    0.030872
    63  C    0.123071
    64  C   -0.117083
    65  C    0.117560
    66  C    0.092282
    67  H   -0.054106
    68  H   -0.091324
    69  H   -0.079334
    70  H   -0.017290
    71  H   -0.023948
    72  H   -0.012773
    73  H   -0.022235
    74  H    0.001313
    75  H   -0.004075
    76  H   -0.014965
    77  H   -0.012173
    78  H    0.011880
    79  H   -0.013131
    80  H   -0.005619
    81  H   -0.001357
    82  H    0.015915
    83  H    0.013631
    84  H    0.002649
    85  H   -0.027744
    86  H   -0.038852
    87  H   -0.010925
    88  H    0.007824
    89  H   -0.014269
    90  H   -0.014065
    91  H   -0.020571
    92  H   -0.013610
    93  H   -0.016106
    94  H    0.008296
    95  H    0.029834
    96  H    0.006383
    97  H   -0.022994
    98  H    0.003931
    99  H    0.014629
   100  H    0.009604
   101  H    0.011702
   102  H   -0.011701
   103  H   -0.013798
   104  H   -0.037204
   105  H    0.007212
   106  H   -0.016606
   107  H    0.000054
   108  H   -0.028128
   109  H   -0.006594
   110  H   -0.020485
   111  H   -0.034059
   112  H   -0.030891
   113  H   -0.035884
   114  H   -0.036828
   115  H   -0.027125
   116  H   -0.017106
   117  H   -0.019913
   118  H   -0.040249
   119  H   -0.041601
   120  H   -0.023369
   121  H   -0.036694
   122  H   -0.043130
   123  H   -0.035083
   124  H   -0.029613
   125  H   -0.008393
   126  H   -0.020765
   127  H   -0.028163
   128  H   -0.042108
   129  H   -0.040255
   130  H   -0.020534
   131  H   -0.039093
   132  H   -0.033272
   133  H   -0.026375
   134  H   -0.026311
   135  H   -0.018635
   136  H   -0.026013
   137  H   -0.018006
   138  H   -0.018934
   139  H   -0.014467
   140  H   -0.009290
 Sum of Mulliken charges =  -0.00000

 Dipole moment (field-independent basis, Debye):
    X=              1.5019    Y=              3.4810    Z=              1.5792  Tot=              4.1069
 Quadrupole moment (field-independent basis, Debye-Ang):
   XX=           -353.4981   YY=           -451.8182   ZZ=           -404.3688
   XY=             23.7561   XZ=              5.7424   YZ=             28.3682

 Normal termination of Gaussian 16 at Sat Apr 30 02:16:21 2022.
