 Gaussian 16, Revision A.03,
 Gaussian 16:  ES64L-G16RevA.03 25-Dec-2016

 -----------------------------------
 #p cam-b3lyp/Def2SVP td=(nstates=5)
 -----------------------------------

 -----------------------------------------------------
 step_51_chromophore_5 TDDFT with cam-b3lyp functional
 -----------------------------------------------------
 Symbolic Z-matrix:
 Charge =  0 Multiplicity = 1

                         Standard orientation:
 ---------------------------------------------------------------------
 Center     Atomic      Atomic             Coordinates (Angstroms)
 Number     Number       Type             X           Y           Z
 ---------------------------------------------------------------------
      1         12           0        5.037085    0.670124   -0.221161
      2          6           0        3.704316   -2.674578    0.251861
      3          6           0        2.478695    1.446343   -2.174536
      4          6           0        6.071546    3.848282    0.047429
      5          6           0        7.183907   -0.206048    2.412354
      6          7           0        3.221039   -0.493693   -0.835112
      7          6           0        2.946058   -1.849502   -0.661696
      8          6           0        1.684695   -2.205430   -1.405155
      9          6           0        1.527461   -0.911401   -2.350625
     10          6           0        2.483921    0.098955   -1.780651
     11          6           0        1.804256   -1.149013   -3.848174
     12          6           0        0.456248   -2.490190   -0.488238
     13          6           0       -0.185217   -3.828376   -0.849937
     14          6           0       -1.247599   -3.781269   -1.978907
     15          8           0       -1.083168   -3.612520   -3.152885
     16          8           0       -2.463508   -3.971153   -1.406884
     17          7           0        4.354912    2.473227   -0.992331
     18          6           0        3.331053    2.556680   -1.818311
     19          6           0        3.223521    3.889787   -2.330866
     20          6           0        4.243659    4.619938   -1.705395
     21          6           0        4.912536    3.681600   -0.779311
     22          6           0        2.290008    4.158838   -3.451609
     23          6           0        4.654879    6.079605   -2.039949
     24          8           0        4.081971    6.572533   -2.969135
     25          6           0        5.798491    6.874576   -1.428143
     26          7           0        6.312602    1.696169    1.116425
     27          6           0        6.687152    3.007468    0.895146
     28          6           0        7.837908    3.488172    1.758179
     29          6           0        7.989511    2.218370    2.670659
     30          6           0        7.139929    1.159264    2.026091
     31          6           0        9.021947    3.811286    0.837027
     32          6           0        7.556357    2.491324    4.130883
     33          6           0        8.598647    1.927646    5.206113
     34          7           0        5.555558   -1.060046    0.870309
     35          6           0        6.418802   -1.266947    1.940805
     36          6           0        6.504817   -2.603950    2.401670
     37          6           0        5.415105   -3.169078    1.774767
     38          6           0        4.849782   -2.187866    0.921149
     39          6           0        7.359179   -3.126441    3.662472
     40          6           0        4.634167   -4.388232    1.666391
     41          8           0        4.843764   -5.498495    2.200837
     42          6           0        3.477167   -4.063240    0.750580
     43          6           0        3.580619   -5.039096   -0.368838
     44          8           0        2.889520   -6.050716   -0.506403
     45          8           0        4.437174   -4.654311   -1.357524
     46          6           0        4.585458   -5.575906   -2.493640
     47          6           0       -3.654331   -3.919713   -2.206779
     48          6           0       -4.003358   -2.503808   -2.314735
     49          6           0       -4.309992   -1.572491   -1.360002
     50          6           0       -4.220674   -1.830353    0.182700
     51          6           0       -4.532883   -0.143163   -1.762472
     52          6           0       -5.901445    0.444058   -1.213712
     53          6           0       -5.814656    1.899883   -0.834667
     54          6           0       -7.143198    2.425133   -0.355101
     55          6           0       -7.328211    3.901180   -0.716055
     56          6           0       -7.325351    2.227927    1.123313
     57          6           0       -8.844071    2.160857    1.448731
     58          6           0       -9.335474    0.645909    1.612937
     59          6           0      -10.704296    0.340134    1.057750
     60          6           0      -10.595810   -0.139861   -0.377310
     61          6           0      -11.395359   -0.734684    1.929815
     62          6           0      -12.672484   -0.182074    2.621668
     63          6           0      -13.977111   -0.141634    1.744516
     64          6           0      -14.584743    1.313575    1.770035
     65          6           0      -15.879809    1.375730    2.586887
     66          6           0      -14.828530    1.767298    0.305869
     67          1           0        1.545312    1.656732   -2.701916
     68          1           0        6.500712    4.848527    0.130773
     69          1           0        7.903674   -0.501611    3.178239
     70          1           0        1.924828   -3.080309   -2.009121
     71          1           0        0.491608   -0.578697   -2.279603
     72          1           0        2.076672   -2.188524   -4.028113
     73          1           0        2.693115   -0.595172   -4.151111
     74          1           0        0.998124   -0.855871   -4.520950
     75          1           0       -0.273210   -1.692964   -0.632651
     76          1           0        0.836131   -2.543085    0.531599
     77          1           0       -0.572148   -4.168513    0.111085
     78          1           0        0.550249   -4.513947   -1.269627
     79          1           0        1.297879    3.743257   -3.273583
     80          1           0        2.630261    3.687009   -4.374339
     81          1           0        2.177050    5.215157   -3.697181
     82          1           0        6.741508    6.333876   -1.508393
     83          1           0        5.494397    6.933647   -0.383332
     84          1           0        5.828208    7.772335   -2.044912
     85          1           0        7.550768    4.391106    2.296622
     86          1           0        9.053882    1.985349    2.684585
     87          1           0        8.714151    4.674455    0.246763
     88          1           0        9.301492    2.887327    0.330666
     89          1           0        9.744909    4.206198    1.550265
     90          1           0        6.570962    2.039117    4.235757
     91          1           0        7.385925    3.544552    4.355050
     92          1           0        8.928695    2.726353    5.871797
     93          1           0        9.573034    1.682904    4.783141
     94          1           0        8.241938    1.070689    5.777011
     95          1           0        7.728471   -4.138575    3.496227
     96          1           0        6.770265   -2.978561    4.566646
     97          1           0        8.147530   -2.421036    3.924580
     98          1           0        2.629252   -4.253263    1.408101
     99          1           0        3.642955   -5.708210   -3.024297
    100          1           0        4.877336   -6.589799   -2.222108
    101          1           0        5.401682   -5.288936   -3.155976
    102          1           0       -4.410571   -4.412135   -1.594436
    103          1           0       -3.435248   -4.404184   -3.158094
    104          1           0       -3.968515   -2.207623   -3.363005
    105          1           0       -3.205403   -2.104411    0.469899
    106          1           0       -4.769912   -2.752699    0.371055
    107          1           0       -4.691640   -1.042111    0.768413
    108          1           0       -4.784497   -0.173035   -2.822578
    109          1           0       -3.671590    0.453129   -1.459783
    110          1           0       -6.339850   -0.152987   -0.413657
    111          1           0       -6.659503    0.474707   -1.996192
    112          1           0       -5.468779    2.465649   -1.699129
    113          1           0       -5.133242    1.816788    0.012498
    114          1           0       -7.983983    1.843530   -0.732921
    115          1           0       -7.931715    3.891162   -1.623436
    116          1           0       -6.385347    4.393666   -0.953717
    117          1           0       -7.882301    4.591913   -0.080670
    118          1           0       -6.962374    3.060789    1.724949
    119          1           0       -6.867822    1.282791    1.413973
    120          1           0       -9.497772    2.687907    0.754087
    121          1           0       -8.915709    2.614272    2.436948
    122          1           0       -9.280919    0.635082    2.701553
    123          1           0       -8.545076   -0.065556    1.373493
    124          1           0      -11.220186    1.285664    0.889556
    125          1           0       -9.729731    0.222895   -0.930148
    126          1           0      -11.531723    0.106264   -0.879439
    127          1           0      -10.589361   -1.228929   -0.320453
    128          1           0      -10.781256   -1.078716    2.762105
    129          1           0      -11.671811   -1.686713    1.476943
    130          1           0      -12.398452    0.804735    2.993432
    131          1           0      -12.846473   -0.886793    3.435016
    132          1           0      -14.621299   -0.867526    2.240331
    133          1           0      -13.850863   -0.493637    0.720544
    134          1           0      -13.924352    2.064231    2.203279
    135          1           0      -16.667902    1.584881    1.862748
    136          1           0      -15.829820    2.191369    3.308986
    137          1           0      -16.047197    0.515530    3.234608
    138          1           0      -15.716680    2.390585    0.204121
    139          1           0      -14.975739    0.898924   -0.337001
    140          1           0      -13.915979    2.292439    0.021369
 ---------------------------------------------------------------------

 SCF Done:  E(RCAM-B3LYP) =  -3007.15943292     A.U. after   18 cycles

 Excitation energies and oscillator strengths:

 Excited State   1:      Singlet-A      1.7044 eV  727.45 nm  f=0.3768  <S**2>=0.000
     245 -> 248       -0.18240
     246 -> 247        0.68582
     245 <- 248       -0.10844
 This state for optimization and/or second-order correction.
 Total Energy, E(TD-HF/TD-DFT) =  -3007.09679888
 Copying the excited state density for this state as the 1-particle RhoCI density.

 Excited State   2:      Singlet-A      2.2531 eV  550.28 nm  f=0.0969  <S**2>=0.000
     245 -> 247        0.63166
     246 -> 248        0.30630

 Excited State   3:      Singlet-A      3.4171 eV  362.83 nm  f=0.0283  <S**2>=0.000
     240 -> 247        0.50653
     240 -> 248       -0.10096
     240 -> 249       -0.30875
     240 -> 251        0.10754
     241 -> 247        0.16258
     244 -> 247       -0.12316
     246 -> 248        0.17102

 Excited State   4:      Singlet-A      3.4544 eV  358.91 nm  f=0.2028  <S**2>=0.000
     240 -> 247        0.18531
     240 -> 249       -0.10342
     243 -> 247        0.14467
     244 -> 247        0.47293
     245 -> 247        0.16526
     246 -> 248       -0.39902

 Excited State   5:      Singlet-A      3.4936 eV  354.89 nm  f=0.3331  <S**2>=0.000
     241 -> 247        0.26322
     243 -> 247        0.11411
     244 -> 247        0.42510
     245 -> 247       -0.19967
     246 -> 248        0.40763

 The electronic state is 1-A.
 Alpha  occ. eigenvalues --  -46.89355 -19.25624 -19.23883 -19.19885 -19.19305
 Alpha  occ. eigenvalues --  -19.19282 -19.18454 -14.42108 -14.42091 -14.39594
 Alpha  occ. eigenvalues --  -14.39385 -10.39598 -10.38988 -10.35241 -10.34727
 Alpha  occ. eigenvalues --  -10.31978 -10.31755 -10.31343 -10.31154 -10.30506
 Alpha  occ. eigenvalues --  -10.30158 -10.29899 -10.29687 -10.29131 -10.29106
 Alpha  occ. eigenvalues --  -10.29024 -10.28587 -10.28363 -10.27782 -10.27701
 Alpha  occ. eigenvalues --  -10.27676 -10.27637 -10.27531 -10.27457 -10.27347
 Alpha  occ. eigenvalues --  -10.27125 -10.27014 -10.26969 -10.26869 -10.26821
 Alpha  occ. eigenvalues --  -10.26756 -10.26609 -10.26495 -10.26468 -10.26234
 Alpha  occ. eigenvalues --  -10.26069 -10.25900 -10.25556 -10.25395 -10.25257
 Alpha  occ. eigenvalues --  -10.25165 -10.25154 -10.25145 -10.24934 -10.24851
 Alpha  occ. eigenvalues --  -10.24804 -10.24734 -10.24560 -10.24521 -10.24494
 Alpha  occ. eigenvalues --  -10.24426 -10.24285 -10.24279 -10.24241 -10.23976
 Alpha  occ. eigenvalues --  -10.23934  -3.17853  -1.92738  -1.92296  -1.92168
 Alpha  occ. eigenvalues --   -1.17135  -1.16672  -1.11348  -1.08890  -1.08774
 Alpha  occ. eigenvalues --   -1.06794  -1.05289  -1.04685  -1.04016  -1.03184
 Alpha  occ. eigenvalues --   -0.94101  -0.91209  -0.89877  -0.89594  -0.89503
 Alpha  occ. eigenvalues --   -0.89119  -0.88833  -0.87587  -0.87517  -0.86895
 Alpha  occ. eigenvalues --   -0.85920  -0.85495  -0.84665  -0.84188  -0.83544
 Alpha  occ. eigenvalues --   -0.82512  -0.82046  -0.81376  -0.80767  -0.80631
 Alpha  occ. eigenvalues --   -0.79757  -0.78074  -0.77986  -0.77112  -0.76931
 Alpha  occ. eigenvalues --   -0.76308  -0.75419  -0.75224  -0.74957  -0.74132
 Alpha  occ. eigenvalues --   -0.73706  -0.72941  -0.71720  -0.70184  -0.69781
 Alpha  occ. eigenvalues --   -0.69011  -0.68222  -0.66954  -0.66158  -0.66093
 Alpha  occ. eigenvalues --   -0.65496  -0.65056  -0.64917  -0.64602  -0.63838
 Alpha  occ. eigenvalues --   -0.63753  -0.63709  -0.63133  -0.62893  -0.60568
 Alpha  occ. eigenvalues --   -0.59981  -0.59438  -0.59191  -0.58395  -0.58318
 Alpha  occ. eigenvalues --   -0.57957  -0.57597  -0.56519  -0.55878  -0.55764
 Alpha  occ. eigenvalues --   -0.55509  -0.55182  -0.54818  -0.54330  -0.53974
 Alpha  occ. eigenvalues --   -0.53880  -0.53513  -0.53277  -0.53100  -0.52686
 Alpha  occ. eigenvalues --   -0.52531  -0.52424  -0.52250  -0.52089  -0.51993
 Alpha  occ. eigenvalues --   -0.51777  -0.51468  -0.51167  -0.50997  -0.50717
 Alpha  occ. eigenvalues --   -0.50629  -0.50514  -0.50365  -0.50128  -0.50063
 Alpha  occ. eigenvalues --   -0.49755  -0.49279  -0.49142  -0.48963  -0.48886
 Alpha  occ. eigenvalues --   -0.48704  -0.48302  -0.48102  -0.47913  -0.47736
 Alpha  occ. eigenvalues --   -0.47361  -0.47086  -0.47040  -0.46657  -0.46595
 Alpha  occ. eigenvalues --   -0.46257  -0.46247  -0.46157  -0.45948  -0.45875
 Alpha  occ. eigenvalues --   -0.45839  -0.45390  -0.45342  -0.45159  -0.45019
 Alpha  occ. eigenvalues --   -0.44760  -0.44614  -0.44484  -0.44412  -0.44053
 Alpha  occ. eigenvalues --   -0.43987  -0.43764  -0.43593  -0.43449  -0.43273
 Alpha  occ. eigenvalues --   -0.42908  -0.42688  -0.42648  -0.42389  -0.42079
 Alpha  occ. eigenvalues --   -0.41928  -0.41879  -0.41804  -0.41674  -0.41525
 Alpha  occ. eigenvalues --   -0.41248  -0.40683  -0.40638  -0.40175  -0.40059
 Alpha  occ. eigenvalues --   -0.39627  -0.39159  -0.38691  -0.38610  -0.38480
 Alpha  occ. eigenvalues --   -0.38398  -0.38228  -0.38208  -0.37969  -0.37385
 Alpha  occ. eigenvalues --   -0.37022  -0.36929  -0.36821  -0.36723  -0.36348
 Alpha  occ. eigenvalues --   -0.36156  -0.35641  -0.35063  -0.34831  -0.34294
 Alpha  occ. eigenvalues --   -0.34122  -0.33538  -0.33023  -0.31506  -0.31201
 Alpha  occ. eigenvalues --   -0.30760  -0.30503  -0.29752  -0.29721  -0.24231
 Alpha  occ. eigenvalues --   -0.21048
 Alpha virt. eigenvalues --   -0.08679  -0.01816   0.00194   0.01573   0.02792
 Alpha virt. eigenvalues --    0.04467   0.05038   0.05448   0.06120   0.07257
 Alpha virt. eigenvalues --    0.08009   0.08205   0.08402   0.08555   0.08897

 Mulliken charges:
               1
     1  Mg   0.826885
     2  C   -0.035339
     3  C   -0.061310
     4  C   -0.073413
     5  C   -0.105469
     6  N   -0.282298
     7  C   -0.043117
     8  C   -0.019977
     9  C   -0.087526
    10  C    0.041104
    11  C    0.084025
    12  C    0.085585
    13  C    0.048379
    14  C    0.127908
    15  O   -0.208153
    16  O   -0.329772
    17  N   -0.340110
    18  C    0.118347
    19  C   -0.127212
    20  C   -0.040973
    21  C    0.128632
    22  C    0.120254
    23  C   -0.038281
    24  O   -0.184323
    25  C    0.072160
    26  N   -0.292571
    27  C    0.017045
    28  C   -0.071405
    29  C   -0.007794
    30  C    0.065088
    31  C    0.101803
    32  C    0.046148
    33  C   -0.014657
    34  N   -0.314576
    35  C    0.137188
    36  C   -0.197233
    37  C    0.044831
    38  C    0.118729
    39  C    0.114482
    40  C   -0.009858
    41  O   -0.187855
    42  C    0.061534
    43  C    0.190476
    44  O   -0.226978
    45  O   -0.326279
    46  C    0.188587
    47  C    0.334765
    48  C   -0.173945
    49  C   -0.181784
    50  C    0.092730
    51  C    0.138990
    52  C   -0.078904
    53  C    0.094383
    54  C   -0.125298
    55  C    0.055010
    56  C    0.049720
    57  C   -0.015167
    58  C    0.025826
    59  C   -0.083216
    60  C    0.047856
    61  C    0.056455
    62  C   -0.016778
    63  C    0.065495
    64  C   -0.177115
    65  C    0.059347
    66  C    0.036367
    67  H   -0.019316
    68  H   -0.057798
    69  H   -0.044003
    70  H    0.015089
    71  H    0.009984
    72  H    0.011283
    73  H    0.004776
    74  H    0.025741
    75  H    0.023425
    76  H    0.015939
    77  H    0.024038
    78  H    0.039638
    79  H    0.010808
    80  H    0.021566
    81  H    0.029984
    82  H    0.040254
    83  H    0.038115
    84  H    0.037550
    85  H    0.007521
    86  H   -0.002406
    87  H    0.011785
    88  H    0.030953
    89  H    0.010999
    90  H    0.016588
    91  H    0.008998
    92  H    0.011206
    93  H    0.006339
    94  H    0.030089
    95  H    0.055578
    96  H    0.032924
    97  H    0.001586
    98  H    0.046145
    99  H    0.037136
   100  H    0.033594
   101  H    0.036310
   102  H    0.019081
   103  H    0.022033
   104  H   -0.003148
   105  H    0.031157
   106  H    0.008082
   107  H    0.021117
   108  H    0.004137
   109  H    0.022015
   110  H    0.000911
   111  H   -0.006325
   112  H   -0.000894
   113  H   -0.008498
   114  H   -0.008722
   115  H   -0.002062
   116  H    0.008331
   117  H    0.005448
   118  H   -0.009585
   119  H   -0.015265
   120  H    0.001869
   121  H   -0.006584
   122  H   -0.012234
   123  H   -0.008468
   124  H   -0.001506
   125  H    0.012534
   126  H    0.001949
   127  H   -0.003747
   128  H   -0.010786
   129  H   -0.011450
   130  H    0.004210
   131  H   -0.009683
   132  H   -0.003481
   133  H   -0.000108
   134  H    0.004509
   135  H    0.004829
   136  H   -0.001280
   137  H    0.005755
   138  H    0.005482
   139  H    0.008267
   140  H    0.012237
 Sum of Mulliken charges =  -0.00000

 Dipole moment (field-independent basis, Debye):
    X=              1.7710    Y=              3.3980    Z=              1.8391  Tot=              4.2503
 Quadrupole moment (field-independent basis, Debye-Ang):
   XX=           -349.7873   YY=           -449.8890   ZZ=           -403.0688
   XY=             24.5187   XZ=              7.8105   YZ=             28.8796

 Normal termination of Gaussian 16 at Sat Apr 30 01:16:16 2022.
