 Gaussian 16, Revision A.03,
 Gaussian 16:  ES64L-G16RevA.03 25-Dec-2016

 ---------------------------------
 #p PBE1PBE/Def2SVP td=(nstates=5)
 ---------------------------------

 ---------------------------------------------------
 step_51_chromophore_5 TDDFT with PBE1PBE functional
 ---------------------------------------------------
 Symbolic Z-matrix:
 Charge =  0 Multiplicity = 1

                         Standard orientation:
 ---------------------------------------------------------------------
 Center     Atomic      Atomic             Coordinates (Angstroms)
 Number     Number       Type             X           Y           Z
 ---------------------------------------------------------------------
      1         12           0        5.037085    0.670124   -0.221161
      2          6           0        3.704316   -2.674578    0.251861
      3          6           0        2.478695    1.446343   -2.174536
      4          6           0        6.071546    3.848282    0.047429
      5          6           0        7.183907   -0.206048    2.412354
      6          7           0        3.221039   -0.493693   -0.835112
      7          6           0        2.946058   -1.849502   -0.661696
      8          6           0        1.684695   -2.205430   -1.405155
      9          6           0        1.527461   -0.911401   -2.350625
     10          6           0        2.483921    0.098955   -1.780651
     11          6           0        1.804256   -1.149013   -3.848174
     12          6           0        0.456248   -2.490190   -0.488238
     13          6           0       -0.185217   -3.828376   -0.849937
     14          6           0       -1.247599   -3.781269   -1.978907
     15          8           0       -1.083168   -3.612520   -3.152885
     16          8           0       -2.463508   -3.971153   -1.406884
     17          7           0        4.354912    2.473227   -0.992331
     18          6           0        3.331053    2.556680   -1.818311
     19          6           0        3.223521    3.889787   -2.330866
     20          6           0        4.243659    4.619938   -1.705395
     21          6           0        4.912536    3.681600   -0.779311
     22          6           0        2.290008    4.158838   -3.451609
     23          6           0        4.654879    6.079605   -2.039949
     24          8           0        4.081971    6.572533   -2.969135
     25          6           0        5.798491    6.874576   -1.428143
     26          7           0        6.312602    1.696169    1.116425
     27          6           0        6.687152    3.007468    0.895146
     28          6           0        7.837908    3.488172    1.758179
     29          6           0        7.989511    2.218370    2.670659
     30          6           0        7.139929    1.159264    2.026091
     31          6           0        9.021947    3.811286    0.837027
     32          6           0        7.556357    2.491324    4.130883
     33          6           0        8.598647    1.927646    5.206113
     34          7           0        5.555558   -1.060046    0.870309
     35          6           0        6.418802   -1.266947    1.940805
     36          6           0        6.504817   -2.603950    2.401670
     37          6           0        5.415105   -3.169078    1.774767
     38          6           0        4.849782   -2.187866    0.921149
     39          6           0        7.359179   -3.126441    3.662472
     40          6           0        4.634167   -4.388232    1.666391
     41          8           0        4.843764   -5.498495    2.200837
     42          6           0        3.477167   -4.063240    0.750580
     43          6           0        3.580619   -5.039096   -0.368838
     44          8           0        2.889520   -6.050716   -0.506403
     45          8           0        4.437174   -4.654311   -1.357524
     46          6           0        4.585458   -5.575906   -2.493640
     47          6           0       -3.654331   -3.919713   -2.206779
     48          6           0       -4.003358   -2.503808   -2.314735
     49          6           0       -4.309992   -1.572491   -1.360002
     50          6           0       -4.220674   -1.830353    0.182700
     51          6           0       -4.532883   -0.143163   -1.762472
     52          6           0       -5.901445    0.444058   -1.213712
     53          6           0       -5.814656    1.899883   -0.834667
     54          6           0       -7.143198    2.425133   -0.355101
     55          6           0       -7.328211    3.901180   -0.716055
     56          6           0       -7.325351    2.227927    1.123313
     57          6           0       -8.844071    2.160857    1.448731
     58          6           0       -9.335474    0.645909    1.612937
     59          6           0      -10.704296    0.340134    1.057750
     60          6           0      -10.595810   -0.139861   -0.377310
     61          6           0      -11.395359   -0.734684    1.929815
     62          6           0      -12.672484   -0.182074    2.621668
     63          6           0      -13.977111   -0.141634    1.744516
     64          6           0      -14.584743    1.313575    1.770035
     65          6           0      -15.879809    1.375730    2.586887
     66          6           0      -14.828530    1.767298    0.305869
     67          1           0        1.545312    1.656732   -2.701916
     68          1           0        6.500712    4.848527    0.130773
     69          1           0        7.903674   -0.501611    3.178239
     70          1           0        1.924828   -3.080309   -2.009121
     71          1           0        0.491608   -0.578697   -2.279603
     72          1           0        2.076672   -2.188524   -4.028113
     73          1           0        2.693115   -0.595172   -4.151111
     74          1           0        0.998124   -0.855871   -4.520950
     75          1           0       -0.273210   -1.692964   -0.632651
     76          1           0        0.836131   -2.543085    0.531599
     77          1           0       -0.572148   -4.168513    0.111085
     78          1           0        0.550249   -4.513947   -1.269627
     79          1           0        1.297879    3.743257   -3.273583
     80          1           0        2.630261    3.687009   -4.374339
     81          1           0        2.177050    5.215157   -3.697181
     82          1           0        6.741508    6.333876   -1.508393
     83          1           0        5.494397    6.933647   -0.383332
     84          1           0        5.828208    7.772335   -2.044912
     85          1           0        7.550768    4.391106    2.296622
     86          1           0        9.053882    1.985349    2.684585
     87          1           0        8.714151    4.674455    0.246763
     88          1           0        9.301492    2.887327    0.330666
     89          1           0        9.744909    4.206198    1.550265
     90          1           0        6.570962    2.039117    4.235757
     91          1           0        7.385925    3.544552    4.355050
     92          1           0        8.928695    2.726353    5.871797
     93          1           0        9.573034    1.682904    4.783141
     94          1           0        8.241938    1.070689    5.777011
     95          1           0        7.728471   -4.138575    3.496227
     96          1           0        6.770265   -2.978561    4.566646
     97          1           0        8.147530   -2.421036    3.924580
     98          1           0        2.629252   -4.253263    1.408101
     99          1           0        3.642955   -5.708210   -3.024297
    100          1           0        4.877336   -6.589799   -2.222108
    101          1           0        5.401682   -5.288936   -3.155976
    102          1           0       -4.410571   -4.412135   -1.594436
    103          1           0       -3.435248   -4.404184   -3.158094
    104          1           0       -3.968515   -2.207623   -3.363005
    105          1           0       -3.205403   -2.104411    0.469899
    106          1           0       -4.769912   -2.752699    0.371055
    107          1           0       -4.691640   -1.042111    0.768413
    108          1           0       -4.784497   -0.173035   -2.822578
    109          1           0       -3.671590    0.453129   -1.459783
    110          1           0       -6.339850   -0.152987   -0.413657
    111          1           0       -6.659503    0.474707   -1.996192
    112          1           0       -5.468779    2.465649   -1.699129
    113          1           0       -5.133242    1.816788    0.012498
    114          1           0       -7.983983    1.843530   -0.732921
    115          1           0       -7.931715    3.891162   -1.623436
    116          1           0       -6.385347    4.393666   -0.953717
    117          1           0       -7.882301    4.591913   -0.080670
    118          1           0       -6.962374    3.060789    1.724949
    119          1           0       -6.867822    1.282791    1.413973
    120          1           0       -9.497772    2.687907    0.754087
    121          1           0       -8.915709    2.614272    2.436948
    122          1           0       -9.280919    0.635082    2.701553
    123          1           0       -8.545076   -0.065556    1.373493
    124          1           0      -11.220186    1.285664    0.889556
    125          1           0       -9.729731    0.222895   -0.930148
    126          1           0      -11.531723    0.106264   -0.879439
    127          1           0      -10.589361   -1.228929   -0.320453
    128          1           0      -10.781256   -1.078716    2.762105
    129          1           0      -11.671811   -1.686713    1.476943
    130          1           0      -12.398452    0.804735    2.993432
    131          1           0      -12.846473   -0.886793    3.435016
    132          1           0      -14.621299   -0.867526    2.240331
    133          1           0      -13.850863   -0.493637    0.720544
    134          1           0      -13.924352    2.064231    2.203279
    135          1           0      -16.667902    1.584881    1.862748
    136          1           0      -15.829820    2.191369    3.308986
    137          1           0      -16.047197    0.515530    3.234608
    138          1           0      -15.716680    2.390585    0.204121
    139          1           0      -14.975739    0.898924   -0.337001
    140          1           0      -13.915979    2.292439    0.021369
 ---------------------------------------------------------------------

 SCF Done:  E(RPBE1PBE) =  -3005.34841890     A.U. after   15 cycles

 Excitation energies and oscillator strengths:

 Excited State   1:      Singlet-A      1.8618 eV  665.94 nm  f=0.3614  <S**2>=0.000
     245 -> 248       -0.17655
     246 -> 247        0.69322
     246 <- 247       -0.11055
 This state for optimization and/or second-order correction.
 Total Energy, E(TD-HF/TD-DFT) =  -3005.27999976
 Copying the excited state density for this state as the 1-particle RhoCI density.

 Excited State   2:      Singlet-A      2.2533 eV  550.24 nm  f=0.1008  <S**2>=0.000
     245 -> 247        0.64618
     246 -> 248        0.27214

 Excited State   3:      Singlet-A      2.9922 eV  414.36 nm  f=0.0001  <S**2>=0.000
     241 -> 247        0.65722
     241 -> 249       -0.19062

 Excited State   4:      Singlet-A      3.0677 eV  404.17 nm  f=0.0004  <S**2>=0.000
     243 -> 247        0.68903

 Excited State   5:      Singlet-A      3.1094 eV  398.74 nm  f=0.0000  <S**2>=0.000
     242 -> 247        0.68896

 The electronic state is 1-A.
 Alpha  occ. eigenvalues --  -46.92725 -19.26168 -19.24586 -19.20114 -19.19452
 Alpha  occ. eigenvalues --  -19.19400 -19.18743 -14.41614 -14.41581 -14.39178
 Alpha  occ. eigenvalues --  -14.39026 -10.36554 -10.35990 -10.32257 -10.31990
 Alpha  occ. eigenvalues --  -10.29447 -10.29150 -10.28791 -10.28689 -10.28274
 Alpha  occ. eigenvalues --  -10.27966 -10.27686 -10.27258 -10.26940 -10.26662
 Alpha  occ. eigenvalues --  -10.26523 -10.26151 -10.26134 -10.25624 -10.25488
 Alpha  occ. eigenvalues --  -10.25446 -10.25400 -10.25181 -10.25059 -10.24876
 Alpha  occ. eigenvalues --  -10.24770 -10.24760 -10.24730 -10.24593 -10.24359
 Alpha  occ. eigenvalues --  -10.24350 -10.24184 -10.24133 -10.23869 -10.23678
 Alpha  occ. eigenvalues --  -10.23486 -10.23477 -10.23118 -10.23083 -10.22933
 Alpha  occ. eigenvalues --  -10.22732 -10.22725 -10.22670 -10.22625 -10.22397
 Alpha  occ. eigenvalues --  -10.22390 -10.22315 -10.22118 -10.22103 -10.22046
 Alpha  occ. eigenvalues --  -10.22013 -10.21855 -10.21691 -10.21654 -10.21353
 Alpha  occ. eigenvalues --  -10.21317  -3.14804  -1.87629  -1.87166  -1.87042
 Alpha  occ. eigenvalues --   -1.11941  -1.11349  -1.06196  -1.03633  -1.03462
 Alpha  occ. eigenvalues --   -1.01536  -0.99908  -0.99421  -0.98633  -0.97810
 Alpha  occ. eigenvalues --   -0.88371  -0.85326  -0.84039  -0.83950  -0.83656
 Alpha  occ. eigenvalues --   -0.83410  -0.83001  -0.81892  -0.81635  -0.81233
 Alpha  occ. eigenvalues --   -0.80324  -0.79747  -0.78928  -0.78433  -0.77783
 Alpha  occ. eigenvalues --   -0.76719  -0.76250  -0.75584  -0.75032  -0.74942
 Alpha  occ. eigenvalues --   -0.73924  -0.72344  -0.72193  -0.71415  -0.71231
 Alpha  occ. eigenvalues --   -0.70463  -0.69779  -0.69318  -0.69087  -0.68321
 Alpha  occ. eigenvalues --   -0.68111  -0.67277  -0.66178  -0.64464  -0.64103
 Alpha  occ. eigenvalues --   -0.63459  -0.62491  -0.61446  -0.60554  -0.60365
 Alpha  occ. eigenvalues --   -0.59968  -0.59591  -0.59140  -0.59092  -0.58245
 Alpha  occ. eigenvalues --   -0.58128  -0.57929  -0.57303  -0.57109  -0.55058
 Alpha  occ. eigenvalues --   -0.54525  -0.53998  -0.53788  -0.52931  -0.52713
 Alpha  occ. eigenvalues --   -0.52333  -0.52073  -0.51120  -0.50276  -0.50231
 Alpha  occ. eigenvalues --   -0.50119  -0.49660  -0.49417  -0.48823  -0.48544
 Alpha  occ. eigenvalues --   -0.48333  -0.47982  -0.47816  -0.47712  -0.47224
 Alpha  occ. eigenvalues --   -0.47049  -0.46909  -0.46745  -0.46625  -0.46490
 Alpha  occ. eigenvalues --   -0.46323  -0.46005  -0.45673  -0.45565  -0.45270
 Alpha  occ. eigenvalues --   -0.45178  -0.45003  -0.44945  -0.44701  -0.44654
 Alpha  occ. eigenvalues --   -0.44382  -0.43873  -0.43736  -0.43604  -0.43495
 Alpha  occ. eigenvalues --   -0.43312  -0.42917  -0.42717  -0.42590  -0.42356
 Alpha  occ. eigenvalues --   -0.42005  -0.41760  -0.41700  -0.41337  -0.41225
 Alpha  occ. eigenvalues --   -0.41020  -0.40985  -0.40795  -0.40680  -0.40561
 Alpha  occ. eigenvalues --   -0.40500  -0.40091  -0.39893  -0.39854  -0.39765
 Alpha  occ. eigenvalues --   -0.39448  -0.39345  -0.39182  -0.39160  -0.38832
 Alpha  occ. eigenvalues --   -0.38650  -0.38554  -0.38396  -0.38211  -0.38125
 Alpha  occ. eigenvalues --   -0.37682  -0.37532  -0.37460  -0.37188  -0.36811
 Alpha  occ. eigenvalues --   -0.36707  -0.36698  -0.36589  -0.36502  -0.36283
 Alpha  occ. eigenvalues --   -0.36084  -0.35520  -0.35422  -0.35017  -0.34892
 Alpha  occ. eigenvalues --   -0.34435  -0.33944  -0.33553  -0.33489  -0.33425
 Alpha  occ. eigenvalues --   -0.33382  -0.33218  -0.32981  -0.32703  -0.32263
 Alpha  occ. eigenvalues --   -0.32065  -0.31853  -0.31717  -0.31580  -0.31191
 Alpha  occ. eigenvalues --   -0.31032  -0.30586  -0.29991  -0.29932  -0.29291
 Alpha  occ. eigenvalues --   -0.28968  -0.28484  -0.28394  -0.27074  -0.26344
 Alpha  occ. eigenvalues --   -0.25869  -0.25477  -0.25255  -0.25083  -0.21129
 Alpha  occ. eigenvalues --   -0.18726
 Alpha virt. eigenvalues --   -0.11158  -0.05297  -0.03965  -0.01720  -0.01128
 Alpha virt. eigenvalues --    0.00006   0.00728   0.01136   0.01722   0.03343
 Alpha virt. eigenvalues --    0.04255   0.04414   0.04910   0.05260   0.05311

 Mulliken charges:
               1
     1  Mg   0.969361
     2  C   -0.037541
     3  C   -0.047906
     4  C   -0.073883
     5  C   -0.088224
     6  N   -0.385600
     7  C    0.038416
     8  C   -0.079937
     9  C   -0.169342
    10  C    0.077635
    11  C    0.031159
    12  C    0.031807
    13  C   -0.035494
    14  C    0.205375
    15  O   -0.244471
    16  O   -0.360375
    17  N   -0.462530
    18  C    0.148269
    19  C   -0.154011
    20  C   -0.093466
    21  C    0.169396
    22  C    0.060209
    23  C    0.019438
    24  O   -0.217607
    25  C   -0.006612
    26  N   -0.397850
    27  C    0.051882
    28  C   -0.148783
    29  C   -0.084697
    30  C    0.095649
    31  C    0.039137
    32  C   -0.005565
    33  C   -0.086705
    34  N   -0.435075
    35  C    0.128988
    36  C   -0.176153
    37  C   -0.011988
    38  C    0.155370
    39  C    0.056659
    40  C    0.087411
    41  O   -0.234359
    42  C   -0.064322
    43  C    0.287188
    44  O   -0.264213
    45  O   -0.357541
    46  C    0.133024
    47  C    0.283172
    48  C   -0.189717
    49  C   -0.210447
    50  C    0.028338
    51  C    0.068786
    52  C   -0.137155
    53  C    0.032562
    54  C   -0.222592
    55  C   -0.000717
    56  C   -0.003636
    57  C   -0.079014
    58  C   -0.022039
    59  C   -0.176448
    60  C   -0.012424
    61  C    0.004038
    62  C   -0.083821
    63  C    0.015434
    64  C   -0.268673
    65  C    0.000938
    66  C   -0.026286
    67  H    0.011281
    68  H   -0.022740
    69  H   -0.008688
    70  H    0.054221
    71  H    0.045795
    72  H    0.038915
    73  H    0.033324
    74  H    0.052004
    75  H    0.055106
    76  H    0.050152
    77  H    0.055948
    78  H    0.073878
    79  H    0.038976
    80  H    0.050881
    81  H    0.058650
    82  H    0.067301
    83  H    0.065004
    84  H    0.064940
    85  H    0.042976
    86  H    0.034934
    87  H    0.041323
    88  H    0.058927
    89  H    0.041428
    90  H    0.049739
    91  H    0.040387
    92  H    0.038941
    93  H    0.032601
    94  H    0.056787
    95  H    0.080973
    96  H    0.059889
    97  H    0.027474
    98  H    0.081113
    99  H    0.058220
   100  H    0.055538
   101  H    0.058123
   102  H    0.046952
   103  H    0.048143
   104  H    0.026923
   105  H    0.060814
   106  H    0.036769
   107  H    0.047672
   108  H    0.037796
   109  H    0.053232
   110  H    0.034713
   111  H    0.027846
   112  H    0.031546
   113  H    0.026832
   114  H    0.037481
   115  H    0.026209
   116  H    0.035624
   117  H    0.032001
   118  H    0.023540
   119  H    0.018655
   120  H    0.032804
   121  H    0.027173
   122  H    0.021617
   123  H    0.023341
   124  H    0.036755
   125  H    0.041797
   126  H    0.030570
   127  H    0.024452
   128  H    0.021521
   129  H    0.019886
   130  H    0.036862
   131  H    0.023634
   132  H    0.028672
   133  H    0.030840
   134  H    0.040444
   135  H    0.031778
   136  H    0.026670
   137  H    0.032653
   138  H    0.032836
   139  H    0.035432
   140  H    0.040770
 Sum of Mulliken charges =  -0.00000

 Dipole moment (field-independent basis, Debye):
    X=              1.7151    Y=              3.6829    Z=              1.7227  Tot=              4.4128
 Quadrupole moment (field-independent basis, Debye-Ang):
   XX=           -345.8634   YY=           -447.1706   ZZ=           -399.2791
   XY=             26.2656   XZ=              8.0974   YZ=             28.9340

 Normal termination of Gaussian 16 at Sat Apr 30 01:33:56 2022.
