 Gaussian 16, Revision A.03,
 Gaussian 16:  ES64L-G16RevA.03 25-Dec-2016

 --------------------------------
 #p wB97XD/Def2SVP td=(nstates=5)
 --------------------------------

 --------------------------------------------------
 step_51_chromophore_5 TDDFT with wB97XD functional
 --------------------------------------------------
 Symbolic Z-matrix:
 Charge =  0 Multiplicity = 1

                         Standard orientation:
 ---------------------------------------------------------------------
 Center     Atomic      Atomic             Coordinates (Angstroms)
 Number     Number       Type             X           Y           Z
 ---------------------------------------------------------------------
      1         12           0        5.037085    0.670124   -0.221161
      2          6           0        3.704316   -2.674578    0.251861
      3          6           0        2.478695    1.446343   -2.174536
      4          6           0        6.071546    3.848282    0.047429
      5          6           0        7.183907   -0.206048    2.412354
      6          7           0        3.221039   -0.493693   -0.835112
      7          6           0        2.946058   -1.849502   -0.661696
      8          6           0        1.684695   -2.205430   -1.405155
      9          6           0        1.527461   -0.911401   -2.350625
     10          6           0        2.483921    0.098955   -1.780651
     11          6           0        1.804256   -1.149013   -3.848174
     12          6           0        0.456248   -2.490190   -0.488238
     13          6           0       -0.185217   -3.828376   -0.849937
     14          6           0       -1.247599   -3.781269   -1.978907
     15          8           0       -1.083168   -3.612520   -3.152885
     16          8           0       -2.463508   -3.971153   -1.406884
     17          7           0        4.354912    2.473227   -0.992331
     18          6           0        3.331053    2.556680   -1.818311
     19          6           0        3.223521    3.889787   -2.330866
     20          6           0        4.243659    4.619938   -1.705395
     21          6           0        4.912536    3.681600   -0.779311
     22          6           0        2.290008    4.158838   -3.451609
     23          6           0        4.654879    6.079605   -2.039949
     24          8           0        4.081971    6.572533   -2.969135
     25          6           0        5.798491    6.874576   -1.428143
     26          7           0        6.312602    1.696169    1.116425
     27          6           0        6.687152    3.007468    0.895146
     28          6           0        7.837908    3.488172    1.758179
     29          6           0        7.989511    2.218370    2.670659
     30          6           0        7.139929    1.159264    2.026091
     31          6           0        9.021947    3.811286    0.837027
     32          6           0        7.556357    2.491324    4.130883
     33          6           0        8.598647    1.927646    5.206113
     34          7           0        5.555558   -1.060046    0.870309
     35          6           0        6.418802   -1.266947    1.940805
     36          6           0        6.504817   -2.603950    2.401670
     37          6           0        5.415105   -3.169078    1.774767
     38          6           0        4.849782   -2.187866    0.921149
     39          6           0        7.359179   -3.126441    3.662472
     40          6           0        4.634167   -4.388232    1.666391
     41          8           0        4.843764   -5.498495    2.200837
     42          6           0        3.477167   -4.063240    0.750580
     43          6           0        3.580619   -5.039096   -0.368838
     44          8           0        2.889520   -6.050716   -0.506403
     45          8           0        4.437174   -4.654311   -1.357524
     46          6           0        4.585458   -5.575906   -2.493640
     47          6           0       -3.654331   -3.919713   -2.206779
     48          6           0       -4.003358   -2.503808   -2.314735
     49          6           0       -4.309992   -1.572491   -1.360002
     50          6           0       -4.220674   -1.830353    0.182700
     51          6           0       -4.532883   -0.143163   -1.762472
     52          6           0       -5.901445    0.444058   -1.213712
     53          6           0       -5.814656    1.899883   -0.834667
     54          6           0       -7.143198    2.425133   -0.355101
     55          6           0       -7.328211    3.901180   -0.716055
     56          6           0       -7.325351    2.227927    1.123313
     57          6           0       -8.844071    2.160857    1.448731
     58          6           0       -9.335474    0.645909    1.612937
     59          6           0      -10.704296    0.340134    1.057750
     60          6           0      -10.595810   -0.139861   -0.377310
     61          6           0      -11.395359   -0.734684    1.929815
     62          6           0      -12.672484   -0.182074    2.621668
     63          6           0      -13.977111   -0.141634    1.744516
     64          6           0      -14.584743    1.313575    1.770035
     65          6           0      -15.879809    1.375730    2.586887
     66          6           0      -14.828530    1.767298    0.305869
     67          1           0        1.545312    1.656732   -2.701916
     68          1           0        6.500712    4.848527    0.130773
     69          1           0        7.903674   -0.501611    3.178239
     70          1           0        1.924828   -3.080309   -2.009121
     71          1           0        0.491608   -0.578697   -2.279603
     72          1           0        2.076672   -2.188524   -4.028113
     73          1           0        2.693115   -0.595172   -4.151111
     74          1           0        0.998124   -0.855871   -4.520950
     75          1           0       -0.273210   -1.692964   -0.632651
     76          1           0        0.836131   -2.543085    0.531599
     77          1           0       -0.572148   -4.168513    0.111085
     78          1           0        0.550249   -4.513947   -1.269627
     79          1           0        1.297879    3.743257   -3.273583
     80          1           0        2.630261    3.687009   -4.374339
     81          1           0        2.177050    5.215157   -3.697181
     82          1           0        6.741508    6.333876   -1.508393
     83          1           0        5.494397    6.933647   -0.383332
     84          1           0        5.828208    7.772335   -2.044912
     85          1           0        7.550768    4.391106    2.296622
     86          1           0        9.053882    1.985349    2.684585
     87          1           0        8.714151    4.674455    0.246763
     88          1           0        9.301492    2.887327    0.330666
     89          1           0        9.744909    4.206198    1.550265
     90          1           0        6.570962    2.039117    4.235757
     91          1           0        7.385925    3.544552    4.355050
     92          1           0        8.928695    2.726353    5.871797
     93          1           0        9.573034    1.682904    4.783141
     94          1           0        8.241938    1.070689    5.777011
     95          1           0        7.728471   -4.138575    3.496227
     96          1           0        6.770265   -2.978561    4.566646
     97          1           0        8.147530   -2.421036    3.924580
     98          1           0        2.629252   -4.253263    1.408101
     99          1           0        3.642955   -5.708210   -3.024297
    100          1           0        4.877336   -6.589799   -2.222108
    101          1           0        5.401682   -5.288936   -3.155976
    102          1           0       -4.410571   -4.412135   -1.594436
    103          1           0       -3.435248   -4.404184   -3.158094
    104          1           0       -3.968515   -2.207623   -3.363005
    105          1           0       -3.205403   -2.104411    0.469899
    106          1           0       -4.769912   -2.752699    0.371055
    107          1           0       -4.691640   -1.042111    0.768413
    108          1           0       -4.784497   -0.173035   -2.822578
    109          1           0       -3.671590    0.453129   -1.459783
    110          1           0       -6.339850   -0.152987   -0.413657
    111          1           0       -6.659503    0.474707   -1.996192
    112          1           0       -5.468779    2.465649   -1.699129
    113          1           0       -5.133242    1.816788    0.012498
    114          1           0       -7.983983    1.843530   -0.732921
    115          1           0       -7.931715    3.891162   -1.623436
    116          1           0       -6.385347    4.393666   -0.953717
    117          1           0       -7.882301    4.591913   -0.080670
    118          1           0       -6.962374    3.060789    1.724949
    119          1           0       -6.867822    1.282791    1.413973
    120          1           0       -9.497772    2.687907    0.754087
    121          1           0       -8.915709    2.614272    2.436948
    122          1           0       -9.280919    0.635082    2.701553
    123          1           0       -8.545076   -0.065556    1.373493
    124          1           0      -11.220186    1.285664    0.889556
    125          1           0       -9.729731    0.222895   -0.930148
    126          1           0      -11.531723    0.106264   -0.879439
    127          1           0      -10.589361   -1.228929   -0.320453
    128          1           0      -10.781256   -1.078716    2.762105
    129          1           0      -11.671811   -1.686713    1.476943
    130          1           0      -12.398452    0.804735    2.993432
    131          1           0      -12.846473   -0.886793    3.435016
    132          1           0      -14.621299   -0.867526    2.240331
    133          1           0      -13.850863   -0.493637    0.720544
    134          1           0      -13.924352    2.064231    2.203279
    135          1           0      -16.667902    1.584881    1.862748
    136          1           0      -15.829820    2.191369    3.308986
    137          1           0      -16.047197    0.515530    3.234608
    138          1           0      -15.716680    2.390585    0.204121
    139          1           0      -14.975739    0.898924   -0.337001
    140          1           0      -13.915979    2.292439    0.021369
 ---------------------------------------------------------------------

 SCF Done:  E(RwB97XD) =  -3007.85959070     A.U. after   19 cycles

 Excitation energies and oscillator strengths:

 Excited State   1:      Singlet-A      1.6454 eV  753.52 nm  f=0.3751  <S**2>=0.000
     245 -> 248       -0.18791
     246 -> 247        0.68354
     245 <- 248       -0.11771
 This state for optimization and/or second-order correction.
 Total Energy, E(TD-HF/TD-DFT) =  -3007.79912355
 Copying the excited state density for this state as the 1-particle RhoCI density.

 Excited State   2:      Singlet-A      2.1974 eV  564.23 nm  f=0.0940  <S**2>=0.000
     245 -> 247        0.62998
     246 -> 248        0.30860

 Excited State   3:      Singlet-A      3.4305 eV  361.41 nm  f=0.0419  <S**2>=0.000
     240 -> 247        0.46434
     240 -> 249       -0.32206
     241 -> 247        0.25247
     241 -> 249       -0.10539
     246 -> 248        0.19565

 Excited State   4:      Singlet-A      3.4747 eV  356.82 nm  f=0.4345  <S**2>=0.000
     240 -> 247       -0.23144
     240 -> 249        0.12848
     241 -> 247        0.10725
     243 -> 247       -0.24629
     245 -> 247       -0.23291
     246 -> 248        0.53155

 Excited State   5:      Singlet-A      3.5187 eV  352.36 nm  f=0.0704  <S**2>=0.000
     241 -> 247        0.25481
     242 -> 247        0.11824
     243 -> 247        0.58940
     246 -> 248        0.15594

 The electronic state is 1-A.
 Alpha  occ. eigenvalues --  -46.95694 -19.30832 -19.29121 -19.24800 -19.24429
 Alpha  occ. eigenvalues --  -19.24250 -19.23409 -14.46686 -14.46676 -14.44225
 Alpha  occ. eigenvalues --  -14.43919 -10.43474 -10.42787 -10.39311 -10.38644
 Alpha  occ. eigenvalues --  -10.35813 -10.35722 -10.35184 -10.35172 -10.34478
 Alpha  occ. eigenvalues --  -10.34155 -10.33888 -10.33732 -10.33131 -10.33105
 Alpha  occ. eigenvalues --  -10.33089 -10.32774 -10.32505 -10.31815 -10.31736
 Alpha  occ. eigenvalues --  -10.31724 -10.31682 -10.31463 -10.31417 -10.31370
 Alpha  occ. eigenvalues --  -10.31081 -10.31069 -10.31039 -10.30813 -10.30786
 Alpha  occ. eigenvalues --  -10.30696 -10.30655 -10.30490 -10.30344 -10.30076
 Alpha  occ. eigenvalues --  -10.29911 -10.29844 -10.29637 -10.29335 -10.29216
 Alpha  occ. eigenvalues --  -10.29087 -10.29083 -10.28997 -10.28903 -10.28739
 Alpha  occ. eigenvalues --  -10.28734 -10.28656 -10.28465 -10.28446 -10.28408
 Alpha  occ. eigenvalues --  -10.28364 -10.28208 -10.28090 -10.28072 -10.27788
 Alpha  occ. eigenvalues --  -10.27729  -3.21639  -1.95211  -1.94750  -1.94621
 Alpha  occ. eigenvalues --   -1.19304  -1.18844  -1.13514  -1.11164  -1.10964
 Alpha  occ. eigenvalues --   -1.09004  -1.07335  -1.06714  -1.06017  -1.05188
 Alpha  occ. eigenvalues --   -0.96123  -0.92973  -0.91689  -0.91500  -0.91300
 Alpha  occ. eigenvalues --   -0.90992  -0.90646  -0.89539  -0.89277  -0.88841
 Alpha  occ. eigenvalues --   -0.87845  -0.87365  -0.86576  -0.86081  -0.85408
 Alpha  occ. eigenvalues --   -0.84353  -0.83925  -0.83225  -0.82710  -0.82563
 Alpha  occ. eigenvalues --   -0.81581  -0.80014  -0.79916  -0.79013  -0.78850
 Alpha  occ. eigenvalues --   -0.78139  -0.77353  -0.77003  -0.76759  -0.75963
 Alpha  occ. eigenvalues --   -0.75688  -0.74872  -0.73690  -0.72084  -0.71697
 Alpha  occ. eigenvalues --   -0.71011  -0.70101  -0.68918  -0.68077  -0.67971
 Alpha  occ. eigenvalues --   -0.67445  -0.67063  -0.66754  -0.66595  -0.65740
 Alpha  occ. eigenvalues --   -0.65659  -0.65595  -0.64948  -0.64728  -0.62528
 Alpha  occ. eigenvalues --   -0.61998  -0.61405  -0.61158  -0.60358  -0.60222
 Alpha  occ. eigenvalues --   -0.59877  -0.59529  -0.58485  -0.57732  -0.57705
 Alpha  occ. eigenvalues --   -0.57503  -0.57108  -0.56782  -0.56244  -0.55965
 Alpha  occ. eigenvalues --   -0.55760  -0.55394  -0.55140  -0.55076  -0.54612
 Alpha  occ. eigenvalues --   -0.54442  -0.54326  -0.54109  -0.54025  -0.53860
 Alpha  occ. eigenvalues --   -0.53721  -0.53346  -0.53031  -0.52932  -0.52596
 Alpha  occ. eigenvalues --   -0.52514  -0.52363  -0.52284  -0.52073  -0.51996
 Alpha  occ. eigenvalues --   -0.51657  -0.51188  -0.51048  -0.50904  -0.50810
 Alpha  occ. eigenvalues --   -0.50612  -0.50223  -0.50063  -0.49823  -0.49611
 Alpha  occ. eigenvalues --   -0.49273  -0.48972  -0.48936  -0.48553  -0.48456
 Alpha  occ. eigenvalues --   -0.48180  -0.48148  -0.48016  -0.47858  -0.47769
 Alpha  occ. eigenvalues --   -0.47715  -0.47276  -0.47163  -0.47052  -0.46932
 Alpha  occ. eigenvalues --   -0.46648  -0.46535  -0.46404  -0.46365  -0.45961
 Alpha  occ. eigenvalues --   -0.45838  -0.45710  -0.45507  -0.45318  -0.45199
 Alpha  occ. eigenvalues --   -0.44855  -0.44659  -0.44591  -0.44296  -0.43944
 Alpha  occ. eigenvalues --   -0.43875  -0.43771  -0.43715  -0.43580  -0.43390
 Alpha  occ. eigenvalues --   -0.43155  -0.42562  -0.42502  -0.42059  -0.41923
 Alpha  occ. eigenvalues --   -0.41527  -0.40990  -0.40555  -0.40447  -0.40380
 Alpha  occ. eigenvalues --   -0.40309  -0.40132  -0.40045  -0.39788  -0.39245
 Alpha  occ. eigenvalues --   -0.39161  -0.38784  -0.38758  -0.38705  -0.38195
 Alpha  occ. eigenvalues --   -0.38023  -0.37534  -0.36898  -0.36799  -0.36316
 Alpha  occ. eigenvalues --   -0.36041  -0.35367  -0.35241  -0.33715  -0.33215
 Alpha  occ. eigenvalues --   -0.32926  -0.32397  -0.31864  -0.31788  -0.26149
 Alpha  occ. eigenvalues --   -0.22845
 Alpha virt. eigenvalues --   -0.07031   0.00094   0.02276   0.04720   0.04982
 Alpha virt. eigenvalues --    0.06699   0.07408   0.07852   0.08510   0.09951
 Alpha virt. eigenvalues --    0.10878   0.11129   0.11533   0.11919   0.11985

 Mulliken charges:
               1
     1  Mg   0.962035
     2  C   -0.042190
     3  C   -0.067592
     4  C   -0.081247
     5  C   -0.107873
     6  N   -0.350934
     7  C    0.004205
     8  C   -0.057106
     9  C   -0.140893
    10  C    0.064885
    11  C    0.040093
    12  C    0.044333
    13  C   -0.011639
    14  C    0.186566
    15  O   -0.239641
    16  O   -0.358441
    17  N   -0.426078
    18  C    0.135431
    19  C   -0.146075
    20  C   -0.085855
    21  C    0.156434
    22  C    0.073467
    23  C    0.011799
    24  O   -0.215329
    25  C    0.008201
    26  N   -0.364053
    27  C    0.039750
    28  C   -0.120483
    29  C   -0.058920
    30  C    0.086552
    31  C    0.050275
    32  C    0.002638
    33  C   -0.069709
    34  N   -0.400501
    35  C    0.134835
    36  C   -0.188174
    37  C   -0.006541
    38  C    0.144540
    39  C    0.073285
    40  C    0.068372
    41  O   -0.222705
    42  C   -0.020858
    43  C    0.260105
    44  O   -0.256775
    45  O   -0.356209
    46  C    0.148016
    47  C    0.297830
    48  C   -0.194502
    49  C   -0.205139
    50  C    0.043730
    51  C    0.087730
    52  C   -0.116540
    53  C    0.052107
    54  C   -0.177246
    55  C    0.005698
    56  C    0.012132
    57  C   -0.060043
    58  C   -0.009396
    59  C   -0.143531
    60  C    0.002408
    61  C    0.015978
    62  C   -0.061144
    63  C    0.025159
    64  C   -0.240366
    65  C    0.012754
    66  C   -0.011083
    67  H    0.004933
    68  H   -0.039236
    69  H   -0.018698
    70  H    0.036844
    71  H    0.035766
    72  H    0.033075
    73  H    0.025626
    74  H    0.047879
    75  H    0.046769
    76  H    0.040619
    77  H    0.051958
    78  H    0.064111
    79  H    0.032161
    80  H    0.044853
    81  H    0.054684
    82  H    0.060954
    83  H    0.059564
    84  H    0.063656
    85  H    0.034182
    86  H    0.022420
    87  H    0.034270
    88  H    0.052990
    89  H    0.035091
    90  H    0.041315
    91  H    0.033542
    92  H    0.033554
    93  H    0.025549
    94  H    0.051391
    95  H    0.078548
    96  H    0.055095
    97  H    0.022054
    98  H    0.076992
    99  H    0.054353
   100  H    0.051155
   101  H    0.055453
   102  H    0.042962
   103  H    0.045877
   104  H    0.023763
   105  H    0.054258
   106  H    0.030162
   107  H    0.041464
   108  H    0.029823
   109  H    0.046728
   110  H    0.018569
   111  H    0.018111
   112  H    0.023725
   113  H    0.014032
   114  H    0.009461
   115  H    0.020522
   116  H    0.030098
   117  H    0.027089
   118  H    0.015991
   119  H    0.004599
   120  H    0.022177
   121  H    0.019936
   122  H    0.011816
   123  H    0.012683
   124  H    0.021401
   125  H    0.034706
   126  H    0.024107
   127  H    0.016832
   128  H    0.013556
   129  H    0.011693
   130  H    0.024951
   131  H    0.016745
   132  H    0.020875
   133  H    0.020319
   134  H    0.029108
   135  H    0.024897
   136  H    0.021198
   137  H    0.026400
   138  H    0.026776
   139  H    0.028301
   140  H    0.034287
 Sum of Mulliken charges =  -0.00000

 Dipole moment (field-independent basis, Debye):
    X=              1.8393    Y=              3.3912    Z=              1.8566  Tot=              4.2814
 Quadrupole moment (field-independent basis, Debye-Ang):
   XX=           -344.8085   YY=           -446.2234   ZZ=           -399.1103
   XY=             24.7699   XZ=              8.5164   YZ=             28.7394

 Normal termination of Gaussian 16 at Sat Apr 30 02:03:26 2022.
