 Gaussian 16, Revision A.03,
 Gaussian 16:  ES64L-G16RevA.03 25-Dec-2016

 --------------------
 #p ZINDO=(nstates=5)
 --------------------

 ---------------------------
 step_51_chromophore_5 ZINDO
 ---------------------------
 Symbolic Z-matrix:
 Charge =  0 Multiplicity = 1

                         Standard orientation:
 ---------------------------------------------------------------------
 Center     Atomic      Atomic             Coordinates (Angstroms)
 Number     Number       Type             X           Y           Z
 ---------------------------------------------------------------------
      1         12           0        5.037085    0.670124   -0.221161
      2          6           0        3.704316   -2.674578    0.251861
      3          6           0        2.478695    1.446343   -2.174536
      4          6           0        6.071546    3.848282    0.047429
      5          6           0        7.183907   -0.206048    2.412354
      6          7           0        3.221039   -0.493693   -0.835112
      7          6           0        2.946058   -1.849502   -0.661696
      8          6           0        1.684695   -2.205430   -1.405155
      9          6           0        1.527461   -0.911401   -2.350625
     10          6           0        2.483921    0.098955   -1.780651
     11          6           0        1.804256   -1.149013   -3.848174
     12          6           0        0.456248   -2.490190   -0.488238
     13          6           0       -0.185217   -3.828376   -0.849937
     14          6           0       -1.247599   -3.781269   -1.978907
     15          8           0       -1.083168   -3.612520   -3.152885
     16          8           0       -2.463508   -3.971153   -1.406884
     17          7           0        4.354912    2.473227   -0.992331
     18          6           0        3.331053    2.556680   -1.818311
     19          6           0        3.223521    3.889787   -2.330866
     20          6           0        4.243659    4.619938   -1.705395
     21          6           0        4.912536    3.681600   -0.779311
     22          6           0        2.290008    4.158838   -3.451609
     23          6           0        4.654879    6.079605   -2.039949
     24          8           0        4.081971    6.572533   -2.969135
     25          6           0        5.798491    6.874576   -1.428143
     26          7           0        6.312602    1.696169    1.116425
     27          6           0        6.687152    3.007468    0.895146
     28          6           0        7.837908    3.488172    1.758179
     29          6           0        7.989511    2.218370    2.670659
     30          6           0        7.139929    1.159264    2.026091
     31          6           0        9.021947    3.811286    0.837027
     32          6           0        7.556357    2.491324    4.130883
     33          6           0        8.598647    1.927646    5.206113
     34          7           0        5.555558   -1.060046    0.870309
     35          6           0        6.418802   -1.266947    1.940805
     36          6           0        6.504817   -2.603950    2.401670
     37          6           0        5.415105   -3.169078    1.774767
     38          6           0        4.849782   -2.187866    0.921149
     39          6           0        7.359179   -3.126441    3.662472
     40          6           0        4.634167   -4.388232    1.666391
     41          8           0        4.843764   -5.498495    2.200837
     42          6           0        3.477167   -4.063240    0.750580
     43          6           0        3.580619   -5.039096   -0.368838
     44          8           0        2.889520   -6.050716   -0.506403
     45          8           0        4.437174   -4.654311   -1.357524
     46          6           0        4.585458   -5.575906   -2.493640
     47          6           0       -3.654331   -3.919713   -2.206779
     48          6           0       -4.003358   -2.503808   -2.314735
     49          6           0       -4.309992   -1.572491   -1.360002
     50          6           0       -4.220674   -1.830353    0.182700
     51          6           0       -4.532883   -0.143163   -1.762472
     52          6           0       -5.901445    0.444058   -1.213712
     53          6           0       -5.814656    1.899883   -0.834667
     54          6           0       -7.143198    2.425133   -0.355101
     55          6           0       -7.328211    3.901180   -0.716055
     56          6           0       -7.325351    2.227927    1.123313
     57          6           0       -8.844071    2.160857    1.448731
     58          6           0       -9.335474    0.645909    1.612937
     59          6           0      -10.704296    0.340134    1.057750
     60          6           0      -10.595810   -0.139861   -0.377310
     61          6           0      -11.395359   -0.734684    1.929815
     62          6           0      -12.672484   -0.182074    2.621668
     63          6           0      -13.977111   -0.141634    1.744516
     64          6           0      -14.584743    1.313575    1.770035
     65          6           0      -15.879809    1.375730    2.586887
     66          6           0      -14.828530    1.767298    0.305869
     67          1           0        1.545312    1.656732   -2.701916
     68          1           0        6.500712    4.848527    0.130773
     69          1           0        7.903674   -0.501611    3.178239
     70          1           0        1.924828   -3.080309   -2.009121
     71          1           0        0.491608   -0.578697   -2.279603
     72          1           0        2.076672   -2.188524   -4.028113
     73          1           0        2.693115   -0.595172   -4.151111
     74          1           0        0.998124   -0.855871   -4.520950
     75          1           0       -0.273210   -1.692964   -0.632651
     76          1           0        0.836131   -2.543085    0.531599
     77          1           0       -0.572148   -4.168513    0.111085
     78          1           0        0.550249   -4.513947   -1.269627
     79          1           0        1.297879    3.743257   -3.273583
     80          1           0        2.630261    3.687009   -4.374339
     81          1           0        2.177050    5.215157   -3.697181
     82          1           0        6.741508    6.333876   -1.508393
     83          1           0        5.494397    6.933647   -0.383332
     84          1           0        5.828208    7.772335   -2.044912
     85          1           0        7.550768    4.391106    2.296622
     86          1           0        9.053882    1.985349    2.684585
     87          1           0        8.714151    4.674455    0.246763
     88          1           0        9.301492    2.887327    0.330666
     89          1           0        9.744909    4.206198    1.550265
     90          1           0        6.570962    2.039117    4.235757
     91          1           0        7.385925    3.544552    4.355050
     92          1           0        8.928695    2.726353    5.871797
     93          1           0        9.573034    1.682904    4.783141
     94          1           0        8.241938    1.070689    5.777011
     95          1           0        7.728471   -4.138575    3.496227
     96          1           0        6.770265   -2.978561    4.566646
     97          1           0        8.147530   -2.421036    3.924580
     98          1           0        2.629252   -4.253263    1.408101
     99          1           0        3.642955   -5.708210   -3.024297
    100          1           0        4.877336   -6.589799   -2.222108
    101          1           0        5.401682   -5.288936   -3.155976
    102          1           0       -4.410571   -4.412135   -1.594436
    103          1           0       -3.435248   -4.404184   -3.158094
    104          1           0       -3.968515   -2.207623   -3.363005
    105          1           0       -3.205403   -2.104411    0.469899
    106          1           0       -4.769912   -2.752699    0.371055
    107          1           0       -4.691640   -1.042111    0.768413
    108          1           0       -4.784497   -0.173035   -2.822578
    109          1           0       -3.671590    0.453129   -1.459783
    110          1           0       -6.339850   -0.152987   -0.413657
    111          1           0       -6.659503    0.474707   -1.996192
    112          1           0       -5.468779    2.465649   -1.699129
    113          1           0       -5.133242    1.816788    0.012498
    114          1           0       -7.983983    1.843530   -0.732921
    115          1           0       -7.931715    3.891162   -1.623436
    116          1           0       -6.385347    4.393666   -0.953717
    117          1           0       -7.882301    4.591913   -0.080670
    118          1           0       -6.962374    3.060789    1.724949
    119          1           0       -6.867822    1.282791    1.413973
    120          1           0       -9.497772    2.687907    0.754087
    121          1           0       -8.915709    2.614272    2.436948
    122          1           0       -9.280919    0.635082    2.701553
    123          1           0       -8.545076   -0.065556    1.373493
    124          1           0      -11.220186    1.285664    0.889556
    125          1           0       -9.729731    0.222895   -0.930148
    126          1           0      -11.531723    0.106264   -0.879439
    127          1           0      -10.589361   -1.228929   -0.320453
    128          1           0      -10.781256   -1.078716    2.762105
    129          1           0      -11.671811   -1.686713    1.476943
    130          1           0      -12.398452    0.804735    2.993432
    131          1           0      -12.846473   -0.886793    3.435016
    132          1           0      -14.621299   -0.867526    2.240331
    133          1           0      -13.850863   -0.493637    0.720544
    134          1           0      -13.924352    2.064231    2.203279
    135          1           0      -16.667902    1.584881    1.862748
    136          1           0      -15.829820    2.191369    3.308986
    137          1           0      -16.047197    0.515530    3.234608
    138          1           0      -15.716680    2.390585    0.204121
    139          1           0      -14.975739    0.898924   -0.337001
    140          1           0      -13.915979    2.292439    0.021369
 ---------------------------------------------------------------------

 SCF Done:  E(RZINDO/S) =  -474.694558490     A.U. after   20 cycles

 Excitation energies and oscillator strengths:

 Excited State   1:      Singlet-A      1.2158 eV 1019.80 nm  f=0.6089  <S**2>=0.000
     175 ->178        -0.18969
     176 ->177         0.66201
 This state for optimization and/or second-order correction.
 Total Energy, E(CIS/TDA) =  -474.649879725
 Copying the excited state density for this state as the 1-particle RhoCI density.

 Excited State   2:      Singlet-A      1.8898 eV  656.05 nm  f=0.0190  <S**2>=0.000
     175 ->177         0.52385
     176 ->178         0.44072
     176 ->179        -0.10931

 Excited State   3:      Singlet-A      2.8244 eV  438.97 nm  f=0.4368  <S**2>=0.000
     175 ->177        -0.30400
     176 ->178         0.46057
     176 ->179         0.37307

 Excited State   4:      Singlet-A      2.8518 eV  434.76 nm  f=0.0192  <S**2>=0.000
     168 ->177         0.34724
     168 ->178        -0.20562
     168 ->179        -0.37076
     168 ->181         0.11425
     168 ->186        -0.14628
     169 ->177         0.15301
     169 ->179        -0.14553

 Excited State   5:      Singlet-A      2.9730 eV  417.03 nm  f=0.1896  <S**2>=0.000
     175 ->177         0.15323
     176 ->178        -0.14217
     176 ->179         0.27909
     176 ->180         0.58666

 The electronic state is 1-A.
 Alpha  occ. eigenvalues --   -1.86966  -1.84116  -1.81758  -1.76344  -1.73972
 Alpha  occ. eigenvalues --   -1.73155  -1.68334  -1.61919  -1.61222  -1.59599
 Alpha  occ. eigenvalues --   -1.54790  -1.52669  -1.48910  -1.47618  -1.46321
 Alpha  occ. eigenvalues --   -1.44690  -1.43651  -1.42800  -1.38539  -1.38445
 Alpha  occ. eigenvalues --   -1.36649  -1.32920  -1.32733  -1.31092  -1.28514
 Alpha  occ. eigenvalues --   -1.27803  -1.27089  -1.22848  -1.21197  -1.18251
 Alpha  occ. eigenvalues --   -1.16766  -1.15422  -1.15152  -1.14103  -1.13728
 Alpha  occ. eigenvalues --   -1.12702  -1.10486  -1.09373  -1.06887  -1.05574
 Alpha  occ. eigenvalues --   -1.02795  -1.02523  -0.98781  -0.97942  -0.97533
 Alpha  occ. eigenvalues --   -0.94873  -0.94483  -0.93381  -0.92893  -0.92450
 Alpha  occ. eigenvalues --   -0.91924  -0.90824  -0.89657  -0.88855  -0.86851
 Alpha  occ. eigenvalues --   -0.86014  -0.85406  -0.84925  -0.82963  -0.82138
 Alpha  occ. eigenvalues --   -0.80445  -0.79019  -0.78003  -0.77400  -0.76504
 Alpha  occ. eigenvalues --   -0.75769  -0.75420  -0.74281  -0.73400  -0.73083
 Alpha  occ. eigenvalues --   -0.72897  -0.72732  -0.72076  -0.71383  -0.71039
 Alpha  occ. eigenvalues --   -0.70089  -0.69979  -0.69269  -0.68769  -0.67826
 Alpha  occ. eigenvalues --   -0.67363  -0.66986  -0.66779  -0.66340  -0.65734
 Alpha  occ. eigenvalues --   -0.65142  -0.64775  -0.64608  -0.64315  -0.63957
 Alpha  occ. eigenvalues --   -0.63207  -0.62658  -0.62452  -0.62269  -0.61901
 Alpha  occ. eigenvalues --   -0.61406  -0.61265  -0.61142  -0.60254  -0.59966
 Alpha  occ. eigenvalues --   -0.59811  -0.58738  -0.58442  -0.58207  -0.58034
 Alpha  occ. eigenvalues --   -0.57617  -0.57149  -0.56934  -0.56590  -0.56369
 Alpha  occ. eigenvalues --   -0.56355  -0.56004  -0.55856  -0.55348  -0.55053
 Alpha  occ. eigenvalues --   -0.54206  -0.54064  -0.53955  -0.53645  -0.53206
 Alpha  occ. eigenvalues --   -0.53015  -0.52789  -0.52566  -0.52008  -0.51901
 Alpha  occ. eigenvalues --   -0.51753  -0.51165  -0.50602  -0.50338  -0.50265
 Alpha  occ. eigenvalues --   -0.49654  -0.49482  -0.49410  -0.49143  -0.48815
 Alpha  occ. eigenvalues --   -0.48590  -0.48226  -0.47880  -0.47853  -0.47725
 Alpha  occ. eigenvalues --   -0.47325  -0.46990  -0.46710  -0.46607  -0.46537
 Alpha  occ. eigenvalues --   -0.46309  -0.46020  -0.45572  -0.45545  -0.45256
 Alpha  occ. eigenvalues --   -0.44773  -0.44743  -0.44380  -0.44023  -0.43961
 Alpha  occ. eigenvalues --   -0.43451  -0.43409  -0.42978  -0.42969  -0.42356
 Alpha  occ. eigenvalues --   -0.41887  -0.41040  -0.40582  -0.39177  -0.38908
 Alpha  occ. eigenvalues --   -0.38315  -0.37682  -0.35640  -0.34931  -0.34511
 Alpha  occ. eigenvalues --   -0.34061  -0.32654  -0.32529  -0.31640  -0.26983
 Alpha  occ. eigenvalues --   -0.21676
 Alpha virt. eigenvalues --   -0.08686  -0.02549  -0.00856   0.00979   0.01511
 Alpha virt. eigenvalues --    0.02557   0.02701   0.02945   0.04646   0.04672
 Alpha virt. eigenvalues --    0.05969   0.06676   0.07502   0.07633   0.08251

 Mulliken charges:
               1
     1  Mg   0.434278
     2  C   -0.063404
     3  C   -0.091426
     4  C   -0.076441
     5  C   -0.085875
     6  N   -0.287674
     7  C    0.124561
     8  C   -0.000868
     9  C    0.005232
    10  C    0.138710
    11  C   -0.048206
    12  C   -0.014897
    13  C    0.001762
    14  C    0.474434
    15  O   -0.512458
    16  O   -0.276586
    17  N   -0.294982
    18  C    0.105470
    19  C    0.030709
    20  C   -0.051836
    21  C    0.095954
    22  C   -0.033544
    23  C    0.315344
    24  O   -0.514932
    25  C   -0.030578
    26  N   -0.277171
    27  C    0.115931
    28  C   -0.010438
    29  C    0.009790
    30  C    0.150334
    31  C   -0.051708
    32  C   -0.028876
    33  C   -0.065332
    34  N   -0.332257
    35  C    0.121984
    36  C    0.020514
    37  C   -0.037845
    38  C    0.127301
    39  C   -0.043413
    40  C    0.331267
    41  O   -0.525795
    42  C    0.073277
    43  C    0.490361
    44  O   -0.531915
    45  O   -0.265806
    46  C    0.075733
    47  C    0.112294
    48  C   -0.070576
    49  C   -0.022888
    50  C   -0.049093
    51  C   -0.026658
    52  C   -0.043019
    53  C   -0.032093
    54  C   -0.004358
    55  C   -0.059776
    56  C   -0.033480
    57  C   -0.050783
    58  C   -0.043021
    59  C    0.001566
    60  C   -0.060089
    61  C   -0.034577
    62  C   -0.045482
    63  C   -0.036492
    64  C   -0.015557
    65  C   -0.061227
    66  C   -0.060862
    67  H    0.027420
    68  H    0.016501
    69  H    0.022719
    70  H    0.040109
    71  H    0.028452
    72  H    0.022075
    73  H    0.016610
    74  H    0.028729
    75  H    0.034552
    76  H    0.026618
    77  H    0.035763
    78  H    0.050497
    79  H    0.022155
    80  H    0.030063
    81  H    0.033074
    82  H    0.036741
    83  H    0.041440
    84  H    0.049056
    85  H    0.032446
    86  H    0.026371
    87  H    0.027342
    88  H    0.039787
    89  H    0.014515
    90  H    0.024022
    91  H    0.023155
    92  H    0.016425
    93  H    0.017921
    94  H    0.028003
    95  H    0.047726
    96  H    0.034474
    97  H    0.021474
    98  H    0.070200
    99  H    0.045354
   100  H    0.042074
   101  H    0.032593
   102  H    0.037054
   103  H    0.054354
   104  H    0.024898
   105  H    0.032356
   106  H    0.018800
   107  H    0.029610
   108  H    0.024687
   109  H    0.039130
   110  H    0.023200
   111  H    0.011290
   112  H    0.024828
   113  H    0.020840
   114  H    0.023923
   115  H    0.006138
   116  H    0.017735
   117  H    0.021052
   118  H    0.017489
   119  H    0.017882
   120  H    0.026804
   121  H    0.010033
   122  H    0.005315
   123  H    0.024045
   124  H    0.029373
   125  H    0.023427
   126  H    0.012251
   127  H    0.014067
   128  H    0.011928
   129  H    0.020800
   130  H    0.023981
   131  H    0.012088
   132  H    0.018371
   133  H    0.026768
   134  H    0.024662
   135  H    0.024938
   136  H    0.010400
   137  H    0.021317
   138  H    0.019613
   139  H    0.019263
   140  H    0.016320
 Sum of Mulliken charges =  -0.00000

 Dipole moment (field-independent basis, Debye):
    X=              2.5756    Y=              4.0779    Z=              3.8720  Tot=              6.1851
 N-N= 4.386938129450D+03 E-N= 0.000000000000D+00  KE=-9.448162939638D+03
 Leave Link  601 at Sat Apr 30 02:16:27 2022, MaxMem=  6710886400 cpu:               0.8 elap:               0.0
 (Enter /sw/apps/gaussian-16.0/g16/l9999.exe)
 1\1\GINC-BP1-COMPUTE070\SP\RZINDO CIS\STO-3G\C55H74Mg1N4O6\OF15641\30-
 Apr-2022\0\\#p ZINDO=(nstates=5)\\step_51_chromophore_5 ZINDO\\0,1\Mg,
 0,24.643,-6.258,45.52\C,0,27.137,-3.85,44.439\C,0,22.465,-5.02,43.355\
 C,0,22.777,-8.966,46.174\C,0,27.349,-7.781,47.154\N,0,24.823,-4.632,43
 .986\C,0,25.844,-3.699,43.81\C,0,25.431,-2.693,42.767\C,0,23.85,-2.988
 ,42.686\C,0,23.666,-4.295,43.406\C,0,22.942,-1.896,43.285\C,0,26.185,-
 2.828,41.409\C,0,26.771,-1.483,40.984\C,0,25.821,-0.561,40.176\O,0,24.

 Normal termination of Gaussian 16 at Sat Apr 30 02:16:27 2022.
