 Gaussian 16, Revision A.03,
 Gaussian 16:  ES64L-G16RevA.03 25-Dec-2016

 ------------------------------
 #p blyp/Def2SVP td=(nstates=5)
 ------------------------------

 --------------------------------------------------
 step_1601_chromophore_7 TDDFT with blyp functional
 --------------------------------------------------
 Symbolic Z-matrix:
 Charge =  0 Multiplicity = 1

                         Standard orientation:
 ---------------------------------------------------------------------
 Center     Atomic      Atomic             Coordinates (Angstroms)
 Number     Number       Type             X           Y           Z
 ---------------------------------------------------------------------
      1         12           0        5.978144    0.567625    0.181919
      2          6           0        3.924955   -2.293582    0.236232
      3          6           0        3.369139    2.374904   -0.974105
      4          6           0        7.980191    3.273195    0.083023
      5          6           0        8.630605   -1.424006    1.292554
      6          7           0        3.954062    0.098150   -0.351150
      7          6           0        3.270591   -1.144439   -0.269860
      8          6           0        1.822562   -1.089386   -0.769633
      9          6           0        1.751196    0.466383   -1.270434
     10          6           0        3.118863    1.041923   -0.848121
     11          6           0        1.459117    0.751409   -2.793659
     12          6           0        0.695966   -1.484465    0.212645
     13          6           0       -0.747905   -1.077713   -0.224478
     14          6           0       -1.896540   -2.036450    0.073392
     15          8           0       -2.075560   -2.783392    1.001804
     16          8           0       -2.785461   -1.897460   -0.981774
     17          7           0        5.680748    2.592834   -0.313663
     18          6           0        4.534972    3.142175   -0.792001
     19          6           0        4.721517    4.541973   -1.048901
     20          6           0        6.073519    4.850013   -0.840825
     21          6           0        6.710847    3.570249   -0.353087
     22          6           0        3.603495    5.429237   -1.569291
     23          6           0        6.878686    6.224930   -1.045677
     24          8           0        8.048736    6.348542   -0.689350
     25          6           0        6.179026    7.384752   -1.650563
     26          7           0        8.041980    0.839975    0.530200
     27          6           0        8.578558    2.082259    0.560571
     28          6           0       10.040695    2.052955    1.091520
     29          6           0       10.189747    0.576544    1.577650
     30          6           0        8.834984   -0.037830    1.150203
     31          6           0       11.157796    2.325760    0.071825
     32          6           0       10.329272    0.524931    3.188117
     33          6           0       11.221672   -0.481225    3.903956
     34          7           0        6.271143   -1.457574    0.671046
     35          6           0        7.466883   -2.124495    1.033680
     36          6           0        7.118485   -3.509484    1.307580
     37          6           0        5.686519   -3.550710    1.038836
     38          6           0        5.299671   -2.305624    0.540782
     39          6           0        8.125096   -4.554003    1.805997
     40          6           0        4.557380   -4.454733    1.176970
     41          8           0        4.430380   -5.629930    1.552313
     42          6           0        3.357967   -3.658031    0.538674
     43          6           0        2.866471   -4.372348   -0.626678
     44          8           0        3.442802   -4.300597   -1.678229
     45          8           0        1.749530   -5.090835   -0.325680
     46          6           0        0.958398   -5.591040   -1.441676
     47          6           0       -4.053242   -2.609356   -0.872521
     48          6           0       -4.879750   -2.037300   -1.968866
     49          6           0       -5.877257   -2.538490   -2.765231
     50          6           0       -6.112704   -4.034327   -2.924426
     51          6           0       -6.841149   -1.624708   -3.589612
     52          6           0       -7.902716   -0.974494   -2.747198
     53          6           0       -7.601455    0.506263   -2.243094
     54          6           0       -8.825272    1.387707   -1.949413
     55          6           0       -8.434860    2.918206   -1.865651
     56          6           0       -9.511615    0.891002   -0.650286
     57          6           0      -10.770062    0.076013   -1.002223
     58          6           0      -12.023254    0.976174   -1.171675
     59          6           0      -13.243029    0.577881   -0.287670
     60          6           0      -14.336919   -0.100055   -1.100783
     61          6           0      -13.752017    1.696636    0.601920
     62          6           0      -13.827458    1.117071    2.096439
     63          6           0      -14.850007    1.890977    3.000006
     64          6           0      -14.712356    1.588852    4.534967
     65          6           0      -16.083179    1.676877    5.226140
     66          6           0      -13.619072    2.419317    5.262148
     67          1           0        2.471384    2.950939   -1.205691
     68          1           0        8.636151    4.146006    0.112966
     69          1           0        9.564711   -1.934576    1.534035
     70          1           0        1.726561   -1.742704   -1.636646
     71          1           0        1.011964    0.990253   -0.664644
     72          1           0        0.762466    0.053947   -3.257085
     73          1           0        2.397661    0.769636   -3.346864
     74          1           0        1.097893    1.776068   -2.894053
     75          1           0        0.937535   -0.973798    1.144955
     76          1           0        0.653016   -2.567269    0.323623
     77          1           0       -0.682232   -0.909017   -1.299711
     78          1           0       -0.942213   -0.207190    0.403296
     79          1           0        2.679243    4.851899   -1.551265
     80          1           0        3.700018    5.674336   -2.627767
     81          1           0        3.514151    6.380560   -1.044011
     82          1           0        5.902445    7.111023   -2.668008
     83          1           0        6.845590    8.233740   -1.805254
     84          1           0        5.349147    7.772379   -1.060716
     85          1           0       10.175952    2.773742    1.899222
     86          1           0       11.004349   -0.000214    1.138867
     87          1           0       10.791893    2.752769   -0.862727
     88          1           0       11.754549    1.463174   -0.223858
     89          1           0       11.868499    3.083804    0.402159
     90          1           0        9.308488    0.482157    3.568953
     91          1           0       10.678468    1.486210    3.564693
     92          1           0       10.577542   -1.037899    4.585417
     93          1           0       12.023973   -0.028722    4.486807
     94          1           0       11.686505   -1.082903    3.123979
     95          1           0        9.189787   -4.342116    1.714807
     96          1           0        7.998671   -5.492761    1.265652
     97          1           0        7.985342   -4.640333    2.883641
     98          1           0        2.480218   -3.566906    1.178919
     99          1           0        1.008842   -6.679324   -1.388737
    100          1           0        1.307131   -5.341899   -2.443732
    101          1           0       -0.050100   -5.220713   -1.260467
    102          1           0       -4.490866   -2.450788    0.113132
    103          1           0       -3.956011   -3.688924   -0.980009
    104          1           0       -4.846871   -0.958107   -2.116987
    105          1           0       -6.249009   -4.204850   -3.992470
    106          1           0       -7.026515   -4.406611   -2.461453
    107          1           0       -5.352106   -4.697368   -2.510960
    108          1           0       -7.359200   -2.309999   -4.260632
    109          1           0       -6.262068   -0.888468   -4.147936
    110          1           0       -8.009212   -1.536307   -1.819080
    111          1           0       -8.886000   -0.857700   -3.203224
    112          1           0       -6.938309    1.057595   -2.910560
    113          1           0       -6.927543    0.400104   -1.392934
    114          1           0       -9.423970    1.220137   -2.845206
    115          1           0       -7.430329    3.087877   -2.254418
    116          1           0       -8.417409    3.204041   -0.814530
    117          1           0       -9.162381    3.489829   -2.442918
    118          1           0       -9.826605    1.694634    0.014181
    119          1           0       -8.953042    0.071622   -0.199556
    120          1           0      -11.002183   -0.707584   -0.280608
    121          1           0      -10.699811   -0.408132   -1.976613
    122          1           0      -12.271886    0.997476   -2.232304
    123          1           0      -11.701150    1.983291   -0.903135
    124          1           0      -12.886010   -0.188078    0.401731
    125          1           0      -14.079236   -1.144318   -1.280624
    126          1           0      -14.535247    0.484860   -1.999252
    127          1           0      -15.279316   -0.125952   -0.555346
    128          1           0      -14.710182    2.092856    0.266806
    129          1           0      -13.148885    2.602238    0.666503
    130          1           0      -12.847427    1.218074    2.562781
    131          1           0      -14.184482    0.088016    2.114066
    132          1           0      -15.839130    1.607764    2.639166
    133          1           0      -14.629953    2.941404    2.808941
    134          1           0      -14.454386    0.538307    4.661026
    135          1           0      -16.121902    1.173435    6.192778
    136          1           0      -16.840638    1.236660    4.577759
    137          1           0      -16.332179    2.719766    5.420668
    138          1           0      -13.979192    2.964194    6.133682
    139          1           0      -13.041398    3.126295    4.665695
    140          1           0      -12.848372    1.722973    5.591223
 ---------------------------------------------------------------------

 SCF Done:  E(RB-LYP) =  -3007.41875408     A.U. after   21 cycles

 Excitation energies and oscillator strengths:

 Excited State   1:      Singlet-A      1.8263 eV  678.87 nm  f=0.2086  <S**2>=0.000
     244 -> 247        0.36393
     245 -> 248       -0.16504
     246 -> 247        0.57885
     246 <- 247       -0.11947
 This state for optimization and/or second-order correction.
 Total Energy, E(TD-HF/TD-DFT) =  -3007.35163738
 Copying the excited state density for this state as the 1-particle RhoCI density.

 Excited State   2:      Singlet-A      1.8454 eV  671.86 nm  f=0.1026  <S**2>=0.000
     244 -> 247        0.58799
     245 -> 247       -0.10169
     245 -> 248        0.10151
     246 -> 247       -0.36442

 Excited State   3:      Singlet-A      2.0297 eV  610.85 nm  f=0.0689  <S**2>=0.000
     244 -> 247        0.13730
     245 -> 247        0.62943
     246 -> 248        0.24616
     246 -> 249       -0.10389

 Excited State   4:      Singlet-A      2.2615 eV  548.25 nm  f=0.0011  <S**2>=0.000
     243 -> 247        0.70406

 Excited State   5:      Singlet-A      2.4484 eV  506.38 nm  f=0.0050  <S**2>=0.000
     241 -> 247        0.24034
     242 -> 247        0.64536

 The electronic state is 1-A.
 Alpha  occ. eigenvalues --  -46.26605 -18.81960 -18.81837 -18.77842 -18.76727
 Alpha  occ. eigenvalues --  -18.75841 -18.75062 -14.03461 -14.03425 -14.00965
 Alpha  occ. eigenvalues --  -14.00293 -10.04564 -10.02806 -10.01196  -9.99119
 Alpha  occ. eigenvalues --   -9.98432  -9.97501  -9.96884  -9.96645  -9.96231
 Alpha  occ. eigenvalues --   -9.96154  -9.95978  -9.95517  -9.95201  -9.94662
 Alpha  occ. eigenvalues --   -9.94587  -9.94169  -9.94011  -9.93958  -9.93918
 Alpha  occ. eigenvalues --   -9.93888  -9.93838  -9.93802  -9.93685  -9.93485
 Alpha  occ. eigenvalues --   -9.93331  -9.93246  -9.92963  -9.92776  -9.92736
 Alpha  occ. eigenvalues --   -9.92631  -9.92447  -9.92433  -9.92427  -9.92341
 Alpha  occ. eigenvalues --   -9.92330  -9.92233  -9.92184  -9.92083  -9.91976
 Alpha  occ. eigenvalues --   -9.91930  -9.91839  -9.91765  -9.91434  -9.91331
 Alpha  occ. eigenvalues --   -9.91315  -9.91293  -9.91114  -9.91110  -9.91012
 Alpha  occ. eigenvalues --   -9.90976  -9.90912  -9.90816  -9.90689  -9.90611
 Alpha  occ. eigenvalues --   -9.90431  -2.91251  -1.71698  -1.71111  -1.70971
 Alpha  occ. eigenvalues --   -0.98311  -0.97851  -0.92052  -0.90961  -0.90473
 Alpha  occ. eigenvalues --   -0.89599  -0.86879  -0.85942  -0.85055  -0.84102
 Alpha  occ. eigenvalues --   -0.75218  -0.73713  -0.73024  -0.72634  -0.71977
 Alpha  occ. eigenvalues --   -0.71753  -0.71624  -0.70726  -0.70634  -0.70244
 Alpha  occ. eigenvalues --   -0.69390  -0.69080  -0.67962  -0.67461  -0.67250
 Alpha  occ. eigenvalues --   -0.66519  -0.66300  -0.65712  -0.65166  -0.64692
 Alpha  occ. eigenvalues --   -0.64339  -0.62461  -0.62295  -0.61863  -0.60571
 Alpha  occ. eigenvalues --   -0.60340  -0.60163  -0.59972  -0.59447  -0.58922
 Alpha  occ. eigenvalues --   -0.58560  -0.57541  -0.57006  -0.55877  -0.53869
 Alpha  occ. eigenvalues --   -0.53633  -0.53289  -0.52610  -0.52228  -0.51690
 Alpha  occ. eigenvalues --   -0.51185  -0.50820  -0.50773  -0.50215  -0.50095
 Alpha  occ. eigenvalues --   -0.49604  -0.49411  -0.48416  -0.48322  -0.46500
 Alpha  occ. eigenvalues --   -0.46366  -0.45881  -0.45540  -0.45226  -0.44717
 Alpha  occ. eigenvalues --   -0.44489  -0.43721  -0.43130  -0.42964  -0.42653
 Alpha  occ. eigenvalues --   -0.42161  -0.41822  -0.41547  -0.41423  -0.40952
 Alpha  occ. eigenvalues --   -0.40925  -0.40609  -0.40413  -0.40255  -0.39997
 Alpha  occ. eigenvalues --   -0.39786  -0.39701  -0.39411  -0.39255  -0.39200
 Alpha  occ. eigenvalues --   -0.38933  -0.38650  -0.38449  -0.38205  -0.38130
 Alpha  occ. eigenvalues --   -0.38104  -0.37963  -0.37869  -0.37661  -0.37401
 Alpha  occ. eigenvalues --   -0.37293  -0.37097  -0.37003  -0.36677  -0.36557
 Alpha  occ. eigenvalues --   -0.36441  -0.36038  -0.35868  -0.35730  -0.35557
 Alpha  occ. eigenvalues --   -0.35415  -0.35099  -0.34918  -0.34800  -0.34661
 Alpha  occ. eigenvalues --   -0.34600  -0.34544  -0.34312  -0.34047  -0.33985
 Alpha  occ. eigenvalues --   -0.33708  -0.33620  -0.33329  -0.33272  -0.32968
 Alpha  occ. eigenvalues --   -0.32726  -0.32659  -0.32595  -0.32419  -0.32217
 Alpha  occ. eigenvalues --   -0.32030  -0.31824  -0.31700  -0.31565  -0.31410
 Alpha  occ. eigenvalues --   -0.31218  -0.31052  -0.31009  -0.30974  -0.30684
 Alpha  occ. eigenvalues --   -0.30485  -0.30382  -0.30295  -0.29893  -0.29699
 Alpha  occ. eigenvalues --   -0.29611  -0.29492  -0.29245  -0.29111  -0.29029
 Alpha  occ. eigenvalues --   -0.28928  -0.28704  -0.28531  -0.28298  -0.27780
 Alpha  occ. eigenvalues --   -0.27655  -0.27394  -0.27160  -0.26603  -0.26517
 Alpha  occ. eigenvalues --   -0.26427  -0.26003  -0.25925  -0.25850  -0.25757
 Alpha  occ. eigenvalues --   -0.25366  -0.24685  -0.24531  -0.24083  -0.23709
 Alpha  occ. eigenvalues --   -0.23247  -0.22930  -0.22222  -0.21268  -0.20794
 Alpha  occ. eigenvalues --   -0.20404  -0.19824  -0.19617  -0.18051  -0.17224
 Alpha  occ. eigenvalues --   -0.15815
 Alpha virt. eigenvalues --   -0.11400  -0.07266  -0.05879  -0.04670  -0.02992
 Alpha virt. eigenvalues --   -0.02533  -0.01772  -0.01523  -0.01013  -0.00024
 Alpha virt. eigenvalues --    0.01050   0.01137   0.02153   0.02751   0.02855

 Mulliken charges:
               1
     1  Mg   0.679868
     2  C   -0.029729
     3  C   -0.080080
     4  C   -0.035870
     5  C   -0.082215
     6  N   -0.247470
     7  C   -0.041263
     8  C    0.015798
     9  C   -0.012024
    10  C    0.039232
    11  C    0.118664
    12  C    0.083218
    13  C    0.113259
    14  C    0.067161
    15  O   -0.160273
    16  O   -0.283424
    17  N   -0.306775
    18  C    0.149963
    19  C   -0.128673
    20  C    0.015599
    21  C    0.092998
    22  C    0.170772
    23  C   -0.039451
    24  O   -0.154715
    25  C    0.134228
    26  N   -0.200364
    27  C    0.034094
    28  C    0.042252
    29  C    0.002487
    30  C    0.015946
    31  C    0.113061
    32  C    0.043444
    33  C    0.087830
    34  N   -0.258747
    35  C    0.163053
    36  C   -0.145302
    37  C    0.019878
    38  C    0.136362
    39  C    0.164045
    40  C   -0.016700
    41  O   -0.145060
    42  C    0.068843
    43  C    0.076577
    44  O   -0.161643
    45  O   -0.259806
    46  C    0.205192
    47  C    0.351202
    48  C   -0.078562
    49  C   -0.200511
    50  C    0.125141
    51  C    0.197613
    52  C    0.068191
    53  C    0.026288
    54  C   -0.062663
    55  C    0.113969
    56  C    0.151001
    57  C    0.019855
    58  C    0.101698
    59  C   -0.051643
    60  C    0.119248
    61  C    0.111346
    62  C    0.004548
    63  C    0.087183
    64  C   -0.052742
    65  C    0.087418
    66  C    0.103065
    67  H   -0.073254
    68  H   -0.047400
    69  H   -0.057554
    70  H   -0.016611
    71  H   -0.020186
    72  H    0.006150
    73  H   -0.002485
    74  H   -0.011888
    75  H   -0.022433
    76  H    0.009628
    77  H    0.007067
    78  H    0.013740
    79  H   -0.025945
    80  H   -0.001553
    81  H    0.000770
    82  H    0.008179
    83  H   -0.013654
    84  H    0.019537
    85  H   -0.013872
    86  H   -0.015920
    87  H   -0.012299
    88  H   -0.012706
    89  H   -0.013370
    90  H   -0.022958
    91  H   -0.026926
    92  H    0.000192
    93  H   -0.006912
    94  H   -0.013108
    95  H   -0.022887
    96  H    0.016441
    97  H    0.009165
    98  H   -0.008847
    99  H    0.018969
   100  H    0.018641
   101  H    0.020015
   102  H    0.006517
   103  H   -0.015260
   104  H   -0.041244
   105  H   -0.003483
   106  H   -0.006837
   107  H   -0.015103
   108  H   -0.046190
   109  H   -0.013444
   110  H   -0.019913
   111  H   -0.022543
   112  H   -0.048135
   113  H   -0.037194
   114  H   -0.031288
   115  H   -0.023621
   116  H   -0.015082
   117  H   -0.004627
   118  H   -0.020738
   119  H   -0.025725
   120  H   -0.038991
   121  H   -0.033298
   122  H   -0.042436
   123  H   -0.046437
   124  H   -0.029951
   125  H   -0.015767
   126  H   -0.014284
   127  H   -0.029123
   128  H   -0.040900
   129  H   -0.038138
   130  H   -0.022414
   131  H   -0.017337
   132  H   -0.033742
   133  H   -0.032317
   134  H   -0.038326
   135  H   -0.018110
   136  H   -0.019525
   137  H   -0.018606
   138  H   -0.016617
   139  H   -0.020816
   140  H   -0.020569
 Sum of Mulliken charges =  -0.00000

 Dipole moment (field-independent basis, Debye):
    X=             -2.7539    Y=              4.2150    Z=             -1.9775  Tot=              5.4093
 Quadrupole moment (field-independent basis, Debye-Ang):
   XX=           -383.0939   YY=           -427.4260   ZZ=           -402.5167
   XY=             13.1621   XZ=             19.5597   YZ=              7.3846

 Normal termination of Gaussian 16 at Wed May  4 11:05:23 2022.
