 Gaussian 16, Revision A.03,
 Gaussian 16:  ES64L-G16RevA.03 25-Dec-2016

 -----------------------------------
 #p cam-b3lyp/Def2SVP td=(nstates=5)
 -----------------------------------

 -------------------------------------------------------
 step_1601_chromophore_7 TDDFT with cam-b3lyp functional
 -------------------------------------------------------
 Symbolic Z-matrix:
 Charge =  0 Multiplicity = 1

                         Standard orientation:
 ---------------------------------------------------------------------
 Center     Atomic      Atomic             Coordinates (Angstroms)
 Number     Number       Type             X           Y           Z
 ---------------------------------------------------------------------
      1         12           0        5.978144    0.567625    0.181919
      2          6           0        3.924955   -2.293582    0.236232
      3          6           0        3.369139    2.374904   -0.974105
      4          6           0        7.980191    3.273195    0.083023
      5          6           0        8.630605   -1.424006    1.292554
      6          7           0        3.954062    0.098150   -0.351150
      7          6           0        3.270591   -1.144439   -0.269860
      8          6           0        1.822562   -1.089386   -0.769633
      9          6           0        1.751196    0.466383   -1.270434
     10          6           0        3.118863    1.041923   -0.848121
     11          6           0        1.459117    0.751409   -2.793659
     12          6           0        0.695966   -1.484465    0.212645
     13          6           0       -0.747905   -1.077713   -0.224478
     14          6           0       -1.896540   -2.036450    0.073392
     15          8           0       -2.075560   -2.783392    1.001804
     16          8           0       -2.785461   -1.897460   -0.981774
     17          7           0        5.680748    2.592834   -0.313663
     18          6           0        4.534972    3.142175   -0.792001
     19          6           0        4.721517    4.541973   -1.048901
     20          6           0        6.073519    4.850013   -0.840825
     21          6           0        6.710847    3.570249   -0.353087
     22          6           0        3.603495    5.429237   -1.569291
     23          6           0        6.878686    6.224930   -1.045677
     24          8           0        8.048736    6.348542   -0.689350
     25          6           0        6.179026    7.384752   -1.650563
     26          7           0        8.041980    0.839975    0.530200
     27          6           0        8.578558    2.082259    0.560571
     28          6           0       10.040695    2.052955    1.091520
     29          6           0       10.189747    0.576544    1.577650
     30          6           0        8.834984   -0.037830    1.150203
     31          6           0       11.157796    2.325760    0.071825
     32          6           0       10.329272    0.524931    3.188117
     33          6           0       11.221672   -0.481225    3.903956
     34          7           0        6.271143   -1.457574    0.671046
     35          6           0        7.466883   -2.124495    1.033680
     36          6           0        7.118485   -3.509484    1.307580
     37          6           0        5.686519   -3.550710    1.038836
     38          6           0        5.299671   -2.305624    0.540782
     39          6           0        8.125096   -4.554003    1.805997
     40          6           0        4.557380   -4.454733    1.176970
     41          8           0        4.430380   -5.629930    1.552313
     42          6           0        3.357967   -3.658031    0.538674
     43          6           0        2.866471   -4.372348   -0.626678
     44          8           0        3.442802   -4.300597   -1.678229
     45          8           0        1.749530   -5.090835   -0.325680
     46          6           0        0.958398   -5.591040   -1.441676
     47          6           0       -4.053242   -2.609356   -0.872521
     48          6           0       -4.879750   -2.037300   -1.968866
     49          6           0       -5.877257   -2.538490   -2.765231
     50          6           0       -6.112704   -4.034327   -2.924426
     51          6           0       -6.841149   -1.624708   -3.589612
     52          6           0       -7.902716   -0.974494   -2.747198
     53          6           0       -7.601455    0.506263   -2.243094
     54          6           0       -8.825272    1.387707   -1.949413
     55          6           0       -8.434860    2.918206   -1.865651
     56          6           0       -9.511615    0.891002   -0.650286
     57          6           0      -10.770062    0.076013   -1.002223
     58          6           0      -12.023254    0.976174   -1.171675
     59          6           0      -13.243029    0.577881   -0.287670
     60          6           0      -14.336919   -0.100055   -1.100783
     61          6           0      -13.752017    1.696636    0.601920
     62          6           0      -13.827458    1.117071    2.096439
     63          6           0      -14.850007    1.890977    3.000006
     64          6           0      -14.712356    1.588852    4.534967
     65          6           0      -16.083179    1.676877    5.226140
     66          6           0      -13.619072    2.419317    5.262148
     67          1           0        2.471384    2.950939   -1.205691
     68          1           0        8.636151    4.146006    0.112966
     69          1           0        9.564711   -1.934576    1.534035
     70          1           0        1.726561   -1.742704   -1.636646
     71          1           0        1.011964    0.990253   -0.664644
     72          1           0        0.762466    0.053947   -3.257085
     73          1           0        2.397661    0.769636   -3.346864
     74          1           0        1.097893    1.776068   -2.894053
     75          1           0        0.937535   -0.973798    1.144955
     76          1           0        0.653016   -2.567269    0.323623
     77          1           0       -0.682232   -0.909017   -1.299711
     78          1           0       -0.942213   -0.207190    0.403296
     79          1           0        2.679243    4.851899   -1.551265
     80          1           0        3.700018    5.674336   -2.627767
     81          1           0        3.514151    6.380560   -1.044011
     82          1           0        5.902445    7.111023   -2.668008
     83          1           0        6.845590    8.233740   -1.805254
     84          1           0        5.349147    7.772379   -1.060716
     85          1           0       10.175952    2.773742    1.899222
     86          1           0       11.004349   -0.000214    1.138867
     87          1           0       10.791893    2.752769   -0.862727
     88          1           0       11.754549    1.463174   -0.223858
     89          1           0       11.868499    3.083804    0.402159
     90          1           0        9.308488    0.482157    3.568953
     91          1           0       10.678468    1.486210    3.564693
     92          1           0       10.577542   -1.037899    4.585417
     93          1           0       12.023973   -0.028722    4.486807
     94          1           0       11.686505   -1.082903    3.123979
     95          1           0        9.189787   -4.342116    1.714807
     96          1           0        7.998671   -5.492761    1.265652
     97          1           0        7.985342   -4.640333    2.883641
     98          1           0        2.480218   -3.566906    1.178919
     99          1           0        1.008842   -6.679324   -1.388737
    100          1           0        1.307131   -5.341899   -2.443732
    101          1           0       -0.050100   -5.220713   -1.260467
    102          1           0       -4.490866   -2.450788    0.113132
    103          1           0       -3.956011   -3.688924   -0.980009
    104          1           0       -4.846871   -0.958107   -2.116987
    105          1           0       -6.249009   -4.204850   -3.992470
    106          1           0       -7.026515   -4.406611   -2.461453
    107          1           0       -5.352106   -4.697368   -2.510960
    108          1           0       -7.359200   -2.309999   -4.260632
    109          1           0       -6.262068   -0.888468   -4.147936
    110          1           0       -8.009212   -1.536307   -1.819080
    111          1           0       -8.886000   -0.857700   -3.203224
    112          1           0       -6.938309    1.057595   -2.910560
    113          1           0       -6.927543    0.400104   -1.392934
    114          1           0       -9.423970    1.220137   -2.845206
    115          1           0       -7.430329    3.087877   -2.254418
    116          1           0       -8.417409    3.204041   -0.814530
    117          1           0       -9.162381    3.489829   -2.442918
    118          1           0       -9.826605    1.694634    0.014181
    119          1           0       -8.953042    0.071622   -0.199556
    120          1           0      -11.002183   -0.707584   -0.280608
    121          1           0      -10.699811   -0.408132   -1.976613
    122          1           0      -12.271886    0.997476   -2.232304
    123          1           0      -11.701150    1.983291   -0.903135
    124          1           0      -12.886010   -0.188078    0.401731
    125          1           0      -14.079236   -1.144318   -1.280624
    126          1           0      -14.535247    0.484860   -1.999252
    127          1           0      -15.279316   -0.125952   -0.555346
    128          1           0      -14.710182    2.092856    0.266806
    129          1           0      -13.148885    2.602238    0.666503
    130          1           0      -12.847427    1.218074    2.562781
    131          1           0      -14.184482    0.088016    2.114066
    132          1           0      -15.839130    1.607764    2.639166
    133          1           0      -14.629953    2.941404    2.808941
    134          1           0      -14.454386    0.538307    4.661026
    135          1           0      -16.121902    1.173435    6.192778
    136          1           0      -16.840638    1.236660    4.577759
    137          1           0      -16.332179    2.719766    5.420668
    138          1           0      -13.979192    2.964194    6.133682
    139          1           0      -13.041398    3.126295    4.665695
    140          1           0      -12.848372    1.722973    5.591223
 ---------------------------------------------------------------------

 SCF Done:  E(RCAM-B3LYP) =  -3007.20925493     A.U. after   18 cycles

 Excitation energies and oscillator strengths:

 Excited State   1:      Singlet-A      1.7488 eV  708.98 nm  f=0.3883  <S**2>=0.000
     245 -> 248        0.17816
     246 -> 247        0.68380
     245 <- 248        0.10198
 This state for optimization and/or second-order correction.
 Total Energy, E(TD-HF/TD-DFT) =  -3007.14498865
 Copying the excited state density for this state as the 1-particle RhoCI density.

 Excited State   2:      Singlet-A      2.2622 eV  548.06 nm  f=0.0913  <S**2>=0.000
     245 -> 247        0.62788
     246 -> 248       -0.30669

 Excited State   3:      Singlet-A      3.3223 eV  373.19 nm  f=0.0030  <S**2>=0.000
     241 -> 247       -0.13705
     244 -> 247        0.65965

 Excited State   4:      Singlet-A      3.4657 eV  357.75 nm  f=0.5509  <S**2>=0.000
     240 -> 247        0.10636
     241 -> 247        0.24122
     245 -> 247        0.26616
     246 -> 248        0.58939

 Excited State   5:      Singlet-A      3.4772 eV  356.56 nm  f=0.0130  <S**2>=0.000
     243 -> 247        0.58257
     243 -> 249        0.24281
     243 -> 250       -0.18931
     244 -> 247       -0.11490

 The electronic state is 1-A.
 Alpha  occ. eigenvalues --  -46.88084 -19.24816 -19.24700 -19.20845 -19.20262
 Alpha  occ. eigenvalues --  -19.18855 -19.17960 -14.42522 -14.42069 -14.39596
 Alpha  occ. eigenvalues --  -14.38524 -10.39874 -10.38062 -10.36730 -10.34287
 Alpha  occ. eigenvalues --  -10.32459 -10.31414 -10.31331 -10.31216 -10.30827
 Alpha  occ. eigenvalues --  -10.30593 -10.30250 -10.30171 -10.29089 -10.28779
 Alpha  occ. eigenvalues --  -10.28720 -10.28701 -10.28595 -10.28385 -10.28169
 Alpha  occ. eigenvalues --  -10.28012 -10.27988 -10.27804 -10.27795 -10.27435
 Alpha  occ. eigenvalues --  -10.27415 -10.27208 -10.26964 -10.26854 -10.26727
 Alpha  occ. eigenvalues --  -10.26578 -10.26543 -10.26516 -10.26088 -10.26080
 Alpha  occ. eigenvalues --  -10.26050 -10.26034 -10.25987 -10.25883 -10.25805
 Alpha  occ. eigenvalues --  -10.25680 -10.25437 -10.25385 -10.25152 -10.25003
 Alpha  occ. eigenvalues --  -10.24960 -10.24940 -10.24832 -10.24806 -10.24777
 Alpha  occ. eigenvalues --  -10.24683 -10.24496 -10.24394 -10.24355 -10.24211
 Alpha  occ. eigenvalues --  -10.24101  -3.16639  -1.91563  -1.91084  -1.90949
 Alpha  occ. eigenvalues --   -1.16801  -1.16350  -1.10739  -1.08828  -1.08404
 Alpha  occ. eigenvalues --   -1.07685  -1.04604  -1.03417  -1.02714  -1.01655
 Alpha  occ. eigenvalues --   -0.92186  -0.90584  -0.89811  -0.89401  -0.88750
 Alpha  occ. eigenvalues --   -0.88438  -0.88240  -0.87257  -0.87209  -0.87062
 Alpha  occ. eigenvalues --   -0.85799  -0.85350  -0.84212  -0.83564  -0.83417
 Alpha  occ. eigenvalues --   -0.82745  -0.82525  -0.81606  -0.81003  -0.80570
 Alpha  occ. eigenvalues --   -0.80145  -0.78114  -0.78004  -0.77362  -0.75924
 Alpha  occ. eigenvalues --   -0.75671  -0.75517  -0.75267  -0.74722  -0.74121
 Alpha  occ. eigenvalues --   -0.73655  -0.72490  -0.71923  -0.70694  -0.68364
 Alpha  occ. eigenvalues --   -0.68216  -0.67795  -0.67071  -0.66633  -0.65804
 Alpha  occ. eigenvalues --   -0.65312  -0.64976  -0.64881  -0.64166  -0.64145
 Alpha  occ. eigenvalues --   -0.63433  -0.63369  -0.62287  -0.61932  -0.60285
 Alpha  occ. eigenvalues --   -0.60002  -0.59288  -0.58982  -0.58533  -0.58159
 Alpha  occ. eigenvalues --   -0.57876  -0.57290  -0.56356  -0.56312  -0.55889
 Alpha  occ. eigenvalues --   -0.55147  -0.54751  -0.54575  -0.54312  -0.53938
 Alpha  occ. eigenvalues --   -0.53822  -0.53538  -0.53252  -0.53093  -0.52888
 Alpha  occ. eigenvalues --   -0.52648  -0.52550  -0.52028  -0.51844  -0.51695
 Alpha  occ. eigenvalues --   -0.51274  -0.51023  -0.50984  -0.50648  -0.50495
 Alpha  occ. eigenvalues --   -0.50422  -0.50360  -0.50254  -0.50185  -0.50074
 Alpha  occ. eigenvalues --   -0.49583  -0.49485  -0.49157  -0.49072  -0.48908
 Alpha  occ. eigenvalues --   -0.48684  -0.48505  -0.48153  -0.47808  -0.47652
 Alpha  occ. eigenvalues --   -0.47519  -0.47122  -0.46948  -0.46743  -0.46566
 Alpha  occ. eigenvalues --   -0.46466  -0.46369  -0.46313  -0.45798  -0.45726
 Alpha  occ. eigenvalues --   -0.45515  -0.45260  -0.45014  -0.44916  -0.44729
 Alpha  occ. eigenvalues --   -0.44525  -0.44404  -0.44219  -0.43982  -0.43833
 Alpha  occ. eigenvalues --   -0.43681  -0.43503  -0.43483  -0.43201  -0.43128
 Alpha  occ. eigenvalues --   -0.42936  -0.42793  -0.42663  -0.42335  -0.42135
 Alpha  occ. eigenvalues --   -0.41947  -0.41593  -0.41538  -0.41501  -0.41194
 Alpha  occ. eigenvalues --   -0.41039  -0.40638  -0.40340  -0.40245  -0.40061
 Alpha  occ. eigenvalues --   -0.39959  -0.39674  -0.39489  -0.39239  -0.38951
 Alpha  occ. eigenvalues --   -0.38511  -0.38309  -0.37948  -0.37420  -0.37357
 Alpha  occ. eigenvalues --   -0.37243  -0.37132  -0.37044  -0.36547  -0.36428
 Alpha  occ. eigenvalues --   -0.36210  -0.36066  -0.35036  -0.35011  -0.34092
 Alpha  occ. eigenvalues --   -0.34060  -0.33646  -0.33338  -0.32128  -0.31519
 Alpha  occ. eigenvalues --   -0.30291  -0.29998  -0.29917  -0.28762  -0.24021
 Alpha  occ. eigenvalues --   -0.21086
 Alpha virt. eigenvalues --   -0.08391  -0.02035   0.00614   0.02327   0.03741
 Alpha virt. eigenvalues --    0.04719   0.05008   0.05157   0.06380   0.06734
 Alpha virt. eigenvalues --    0.07771   0.08354   0.08420   0.08966   0.09113

 Mulliken charges:
               1
     1  Mg   0.814901
     2  C   -0.058139
     3  C   -0.103691
     4  C   -0.051620
     5  C   -0.076627
     6  N   -0.325665
     7  C    0.001833
     8  C   -0.026303
     9  C   -0.071325
    10  C    0.067446
    11  C    0.063889
    12  C    0.037361
    13  C    0.039867
    14  C    0.152772
    15  O   -0.200910
    16  O   -0.348912
    17  N   -0.392540
    18  C    0.164802
    19  C   -0.141070
    20  C   -0.040345
    21  C    0.110369
    22  C    0.118622
    23  C    0.042448
    24  O   -0.193209
    25  C    0.048366
    26  N   -0.268042
    27  C    0.049120
    28  C   -0.011728
    29  C   -0.053810
    30  C    0.024407
    31  C    0.054021
    32  C   -0.005190
    33  C    0.024557
    34  N   -0.346870
    35  C    0.155905
    36  C   -0.138283
    37  C   -0.061721
    38  C    0.172614
    39  C    0.116030
    40  C    0.080308
    41  O   -0.186549
    42  C   -0.008574
    43  C    0.165319
    44  O   -0.198046
    45  O   -0.323341
    46  C    0.167937
    47  C    0.319158
    48  C   -0.100842
    49  C   -0.219792
    50  C    0.063317
    51  C    0.133406
    52  C    0.017577
    53  C   -0.016128
    54  C   -0.122963
    55  C    0.058240
    56  C    0.090198
    57  C   -0.029613
    58  C    0.052683
    59  C   -0.113858
    60  C    0.063740
    61  C    0.058608
    62  C   -0.042462
    63  C    0.035811
    64  C   -0.114961
    65  C    0.031192
    66  C    0.039990
    67  H   -0.041465
    68  H   -0.006243
    69  H   -0.022185
    70  H    0.016734
    71  H    0.013285
    72  H    0.029029
    73  H    0.023889
    74  H    0.011562
    75  H    0.008900
    76  H    0.034563
    77  H    0.039103
    78  H    0.044568
    79  H    0.003113
    80  H    0.026083
    81  H    0.026201
    82  H    0.035987
    83  H    0.023427
    84  H    0.046593
    85  H    0.020827
    86  H    0.016207
    87  H    0.013296
    88  H    0.012697
    89  H    0.012017
    90  H    0.006423
    91  H    0.000253
    92  H    0.023689
    93  H    0.017296
    94  H    0.007050
    95  H    0.002351
    96  H    0.041555
    97  H    0.034561
    98  H    0.035909
    99  H    0.041537
   100  H    0.044549
   101  H    0.038911
   102  H    0.035997
   103  H    0.011688
   104  H   -0.009532
   105  H    0.019567
   106  H    0.017357
   107  H    0.009820
   108  H   -0.012891
   109  H    0.017207
   110  H    0.006310
   111  H    0.003833
   112  H   -0.020269
   113  H   -0.010018
   114  H   -0.000974
   115  H    0.001134
   116  H    0.008417
   117  H    0.018702
   118  H    0.006524
   119  H    0.003434
   120  H   -0.009453
   121  H   -0.007090
   122  H   -0.013715
   123  H   -0.018961
   124  H    0.001479
   125  H    0.008449
   126  H    0.008684
   127  H   -0.004514
   128  H   -0.011191
   129  H   -0.008558
   130  H    0.002668
   131  H    0.007293
   132  H   -0.006426
   133  H   -0.005904
   134  H   -0.006433
   135  H    0.006992
   136  H    0.004351
   137  H    0.004308
   138  H    0.008482
   139  H    0.003559
   140  H    0.003717
 Sum of Mulliken charges =  -0.00000

 Dipole moment (field-independent basis, Debye):
    X=             -2.8349    Y=              5.2891    Z=             -2.3182  Tot=              6.4331
 Quadrupole moment (field-independent basis, Debye-Ang):
   XX=           -380.3730   YY=           -422.7084   ZZ=           -402.2557
   XY=             18.6507   XZ=             18.9274   YZ=              6.5734

 Normal termination of Gaussian 16 at Wed May  4 10:08:48 2022.
