 Gaussian 16, Revision A.03,
 Gaussian 16:  ES64L-G16RevA.03 25-Dec-2016

 ---------------------------------
 #p PBE1PBE/Def2SVP td=(nstates=5)
 ---------------------------------

 -----------------------------------------------------
 step_1601_chromophore_7 TDDFT with PBE1PBE functional
 -----------------------------------------------------
 Symbolic Z-matrix:
 Charge =  0 Multiplicity = 1

                         Standard orientation:
 ---------------------------------------------------------------------
 Center     Atomic      Atomic             Coordinates (Angstroms)
 Number     Number       Type             X           Y           Z
 ---------------------------------------------------------------------
      1         12           0        5.978144    0.567625    0.181919
      2          6           0        3.924955   -2.293582    0.236232
      3          6           0        3.369139    2.374904   -0.974105
      4          6           0        7.980191    3.273195    0.083023
      5          6           0        8.630605   -1.424006    1.292554
      6          7           0        3.954062    0.098150   -0.351150
      7          6           0        3.270591   -1.144439   -0.269860
      8          6           0        1.822562   -1.089386   -0.769633
      9          6           0        1.751196    0.466383   -1.270434
     10          6           0        3.118863    1.041923   -0.848121
     11          6           0        1.459117    0.751409   -2.793659
     12          6           0        0.695966   -1.484465    0.212645
     13          6           0       -0.747905   -1.077713   -0.224478
     14          6           0       -1.896540   -2.036450    0.073392
     15          8           0       -2.075560   -2.783392    1.001804
     16          8           0       -2.785461   -1.897460   -0.981774
     17          7           0        5.680748    2.592834   -0.313663
     18          6           0        4.534972    3.142175   -0.792001
     19          6           0        4.721517    4.541973   -1.048901
     20          6           0        6.073519    4.850013   -0.840825
     21          6           0        6.710847    3.570249   -0.353087
     22          6           0        3.603495    5.429237   -1.569291
     23          6           0        6.878686    6.224930   -1.045677
     24          8           0        8.048736    6.348542   -0.689350
     25          6           0        6.179026    7.384752   -1.650563
     26          7           0        8.041980    0.839975    0.530200
     27          6           0        8.578558    2.082259    0.560571
     28          6           0       10.040695    2.052955    1.091520
     29          6           0       10.189747    0.576544    1.577650
     30          6           0        8.834984   -0.037830    1.150203
     31          6           0       11.157796    2.325760    0.071825
     32          6           0       10.329272    0.524931    3.188117
     33          6           0       11.221672   -0.481225    3.903956
     34          7           0        6.271143   -1.457574    0.671046
     35          6           0        7.466883   -2.124495    1.033680
     36          6           0        7.118485   -3.509484    1.307580
     37          6           0        5.686519   -3.550710    1.038836
     38          6           0        5.299671   -2.305624    0.540782
     39          6           0        8.125096   -4.554003    1.805997
     40          6           0        4.557380   -4.454733    1.176970
     41          8           0        4.430380   -5.629930    1.552313
     42          6           0        3.357967   -3.658031    0.538674
     43          6           0        2.866471   -4.372348   -0.626678
     44          8           0        3.442802   -4.300597   -1.678229
     45          8           0        1.749530   -5.090835   -0.325680
     46          6           0        0.958398   -5.591040   -1.441676
     47          6           0       -4.053242   -2.609356   -0.872521
     48          6           0       -4.879750   -2.037300   -1.968866
     49          6           0       -5.877257   -2.538490   -2.765231
     50          6           0       -6.112704   -4.034327   -2.924426
     51          6           0       -6.841149   -1.624708   -3.589612
     52          6           0       -7.902716   -0.974494   -2.747198
     53          6           0       -7.601455    0.506263   -2.243094
     54          6           0       -8.825272    1.387707   -1.949413
     55          6           0       -8.434860    2.918206   -1.865651
     56          6           0       -9.511615    0.891002   -0.650286
     57          6           0      -10.770062    0.076013   -1.002223
     58          6           0      -12.023254    0.976174   -1.171675
     59          6           0      -13.243029    0.577881   -0.287670
     60          6           0      -14.336919   -0.100055   -1.100783
     61          6           0      -13.752017    1.696636    0.601920
     62          6           0      -13.827458    1.117071    2.096439
     63          6           0      -14.850007    1.890977    3.000006
     64          6           0      -14.712356    1.588852    4.534967
     65          6           0      -16.083179    1.676877    5.226140
     66          6           0      -13.619072    2.419317    5.262148
     67          1           0        2.471384    2.950939   -1.205691
     68          1           0        8.636151    4.146006    0.112966
     69          1           0        9.564711   -1.934576    1.534035
     70          1           0        1.726561   -1.742704   -1.636646
     71          1           0        1.011964    0.990253   -0.664644
     72          1           0        0.762466    0.053947   -3.257085
     73          1           0        2.397661    0.769636   -3.346864
     74          1           0        1.097893    1.776068   -2.894053
     75          1           0        0.937535   -0.973798    1.144955
     76          1           0        0.653016   -2.567269    0.323623
     77          1           0       -0.682232   -0.909017   -1.299711
     78          1           0       -0.942213   -0.207190    0.403296
     79          1           0        2.679243    4.851899   -1.551265
     80          1           0        3.700018    5.674336   -2.627767
     81          1           0        3.514151    6.380560   -1.044011
     82          1           0        5.902445    7.111023   -2.668008
     83          1           0        6.845590    8.233740   -1.805254
     84          1           0        5.349147    7.772379   -1.060716
     85          1           0       10.175952    2.773742    1.899222
     86          1           0       11.004349   -0.000214    1.138867
     87          1           0       10.791893    2.752769   -0.862727
     88          1           0       11.754549    1.463174   -0.223858
     89          1           0       11.868499    3.083804    0.402159
     90          1           0        9.308488    0.482157    3.568953
     91          1           0       10.678468    1.486210    3.564693
     92          1           0       10.577542   -1.037899    4.585417
     93          1           0       12.023973   -0.028722    4.486807
     94          1           0       11.686505   -1.082903    3.123979
     95          1           0        9.189787   -4.342116    1.714807
     96          1           0        7.998671   -5.492761    1.265652
     97          1           0        7.985342   -4.640333    2.883641
     98          1           0        2.480218   -3.566906    1.178919
     99          1           0        1.008842   -6.679324   -1.388737
    100          1           0        1.307131   -5.341899   -2.443732
    101          1           0       -0.050100   -5.220713   -1.260467
    102          1           0       -4.490866   -2.450788    0.113132
    103          1           0       -3.956011   -3.688924   -0.980009
    104          1           0       -4.846871   -0.958107   -2.116987
    105          1           0       -6.249009   -4.204850   -3.992470
    106          1           0       -7.026515   -4.406611   -2.461453
    107          1           0       -5.352106   -4.697368   -2.510960
    108          1           0       -7.359200   -2.309999   -4.260632
    109          1           0       -6.262068   -0.888468   -4.147936
    110          1           0       -8.009212   -1.536307   -1.819080
    111          1           0       -8.886000   -0.857700   -3.203224
    112          1           0       -6.938309    1.057595   -2.910560
    113          1           0       -6.927543    0.400104   -1.392934
    114          1           0       -9.423970    1.220137   -2.845206
    115          1           0       -7.430329    3.087877   -2.254418
    116          1           0       -8.417409    3.204041   -0.814530
    117          1           0       -9.162381    3.489829   -2.442918
    118          1           0       -9.826605    1.694634    0.014181
    119          1           0       -8.953042    0.071622   -0.199556
    120          1           0      -11.002183   -0.707584   -0.280608
    121          1           0      -10.699811   -0.408132   -1.976613
    122          1           0      -12.271886    0.997476   -2.232304
    123          1           0      -11.701150    1.983291   -0.903135
    124          1           0      -12.886010   -0.188078    0.401731
    125          1           0      -14.079236   -1.144318   -1.280624
    126          1           0      -14.535247    0.484860   -1.999252
    127          1           0      -15.279316   -0.125952   -0.555346
    128          1           0      -14.710182    2.092856    0.266806
    129          1           0      -13.148885    2.602238    0.666503
    130          1           0      -12.847427    1.218074    2.562781
    131          1           0      -14.184482    0.088016    2.114066
    132          1           0      -15.839130    1.607764    2.639166
    133          1           0      -14.629953    2.941404    2.808941
    134          1           0      -14.454386    0.538307    4.661026
    135          1           0      -16.121902    1.173435    6.192778
    136          1           0      -16.840638    1.236660    4.577759
    137          1           0      -16.332179    2.719766    5.420668
    138          1           0      -13.979192    2.964194    6.133682
    139          1           0      -13.041398    3.126295    4.665695
    140          1           0      -12.848372    1.722973    5.591223
 ---------------------------------------------------------------------

 SCF Done:  E(RPBE1PBE) =  -3005.39665090     A.U. after   15 cycles

 Excitation energies and oscillator strengths:

 Excited State   1:      Singlet-A      1.8908 eV  655.71 nm  f=0.3747  <S**2>=0.000
     245 -> 248       -0.17290
     246 -> 247        0.68995
     246 <- 247       -0.10187
 This state for optimization and/or second-order correction.
 Total Energy, E(TD-HF/TD-DFT) =  -3005.32716380
 Copying the excited state density for this state as the 1-particle RhoCI density.

 Excited State   2:      Singlet-A      2.2520 eV  550.54 nm  f=0.0936  <S**2>=0.000
     245 -> 247        0.64177
     246 -> 248        0.27572

 Excited State   3:      Singlet-A      2.8599 eV  433.52 nm  f=0.0025  <S**2>=0.000
     243 -> 247        0.26231
     243 -> 249       -0.10774
     244 -> 247        0.63000

 Excited State   4:      Singlet-A      3.0227 eV  410.18 nm  f=0.0017  <S**2>=0.000
     243 -> 247        0.62725
     244 -> 247       -0.28008

 Excited State   5:      Singlet-A      3.2442 eV  382.17 nm  f=0.1601  <S**2>=0.000
     239 -> 247       -0.13010
     241 -> 247       -0.45799
     245 -> 247       -0.15673
     246 -> 248        0.48010

 The electronic state is 1-A.
 Alpha  occ. eigenvalues --  -46.91491 -19.25572 -19.25396 -19.21135 -19.20295
 Alpha  occ. eigenvalues --  -19.19113 -19.18383 -14.41886 -14.41785 -14.39184
 Alpha  occ. eigenvalues --  -14.38272 -10.36937 -10.35096 -10.33724 -10.31584
 Alpha  occ. eigenvalues --  -10.29862 -10.29207 -10.28892 -10.28666 -10.28412
 Alpha  occ. eigenvalues --  -10.28196 -10.28191 -10.27600 -10.27054 -10.26572
 Alpha  occ. eigenvalues --  -10.26522 -10.26260 -10.26219 -10.26100 -10.25754
 Alpha  occ. eigenvalues --  -10.25730 -10.25716 -10.25710 -10.25606 -10.25206
 Alpha  occ. eigenvalues --  -10.25058 -10.24749 -10.24491 -10.24282 -10.24191
 Alpha  occ. eigenvalues --  -10.24083 -10.24035 -10.24009 -10.23820 -10.23802
 Alpha  occ. eigenvalues --  -10.23692 -10.23543 -10.23492 -10.23468 -10.23458
 Alpha  occ. eigenvalues --  -10.23246 -10.22906 -10.22834 -10.22757 -10.22709
 Alpha  occ. eigenvalues --  -10.22696 -10.22525 -10.22430 -10.22387 -10.22370
 Alpha  occ. eigenvalues --  -10.22238 -10.21921 -10.21875 -10.21767 -10.21673
 Alpha  occ. eigenvalues --  -10.21588  -3.13627  -1.86494  -1.85992  -1.85859
 Alpha  occ. eigenvalues --   -1.11647  -1.11164  -1.05304  -1.03747  -1.03272
 Alpha  occ. eigenvalues --   -1.02577  -0.99227  -0.98192  -0.97302  -0.96268
 Alpha  occ. eigenvalues --   -0.86661  -0.84701  -0.83975  -0.83568  -0.83030
 Alpha  occ. eigenvalues --   -0.82552  -0.82532  -0.81609  -0.81309  -0.81224
 Alpha  occ. eigenvalues --   -0.80128  -0.79669  -0.78458  -0.77877  -0.77656
 Alpha  occ. eigenvalues --   -0.76818  -0.76704  -0.75906  -0.75289  -0.74848
 Alpha  occ. eigenvalues --   -0.74330  -0.72351  -0.72324  -0.71709  -0.70294
 Alpha  occ. eigenvalues --   -0.69845  -0.69601  -0.69596  -0.68871  -0.68335
 Alpha  occ. eigenvalues --   -0.67960  -0.66972  -0.66338  -0.65059  -0.62754
 Alpha  occ. eigenvalues --   -0.62652  -0.62073  -0.61463  -0.60869  -0.60231
 Alpha  occ. eigenvalues --   -0.59761  -0.59461  -0.59207  -0.58742  -0.58281
 Alpha  occ. eigenvalues --   -0.57913  -0.57536  -0.56546  -0.56484  -0.54725
 Alpha  occ. eigenvalues --   -0.54437  -0.53862  -0.53595  -0.53143  -0.52802
 Alpha  occ. eigenvalues --   -0.52219  -0.51774  -0.50898  -0.50846  -0.50399
 Alpha  occ. eigenvalues --   -0.49709  -0.49294  -0.49188  -0.48616  -0.48557
 Alpha  occ. eigenvalues --   -0.48291  -0.48116  -0.47671  -0.47442  -0.47399
 Alpha  occ. eigenvalues --   -0.47252  -0.47111  -0.46629  -0.46431  -0.46193
 Alpha  occ. eigenvalues --   -0.45857  -0.45590  -0.45560  -0.45247  -0.45050
 Alpha  occ. eigenvalues --   -0.44917  -0.44882  -0.44836  -0.44763  -0.44554
 Alpha  occ. eigenvalues --   -0.44188  -0.44062  -0.43657  -0.43632  -0.43505
 Alpha  occ. eigenvalues --   -0.43315  -0.43150  -0.42804  -0.42505  -0.42341
 Alpha  occ. eigenvalues --   -0.42098  -0.41754  -0.41555  -0.41448  -0.41302
 Alpha  occ. eigenvalues --   -0.41135  -0.41070  -0.40939  -0.40586  -0.40387
 Alpha  occ. eigenvalues --   -0.40319  -0.39967  -0.39805  -0.39602  -0.39551
 Alpha  occ. eigenvalues --   -0.39311  -0.39217  -0.38852  -0.38809  -0.38531
 Alpha  occ. eigenvalues --   -0.38378  -0.38327  -0.38205  -0.38014  -0.37924
 Alpha  occ. eigenvalues --   -0.37645  -0.37626  -0.37509  -0.37097  -0.37044
 Alpha  occ. eigenvalues --   -0.36891  -0.36459  -0.36396  -0.36280  -0.36009
 Alpha  occ. eigenvalues --   -0.35802  -0.35514  -0.35146  -0.35108  -0.34863
 Alpha  occ. eigenvalues --   -0.34761  -0.34585  -0.34303  -0.34037  -0.33918
 Alpha  occ. eigenvalues --   -0.33363  -0.33234  -0.32835  -0.32408  -0.32261
 Alpha  occ. eigenvalues --   -0.32136  -0.32106  -0.31942  -0.31519  -0.31211
 Alpha  occ. eigenvalues --   -0.31208  -0.31118  -0.29947  -0.29876  -0.29371
 Alpha  occ. eigenvalues --   -0.29070  -0.29061  -0.28328  -0.27110  -0.26740
 Alpha  occ. eigenvalues --   -0.25802  -0.25337  -0.25082  -0.24423  -0.20932
 Alpha  occ. eigenvalues --   -0.18730
 Alpha virt. eigenvalues --   -0.10938  -0.05568  -0.03609  -0.02089   0.00174
 Alpha virt. eigenvalues --    0.00532   0.00996   0.01120   0.01687   0.02928
 Alpha virt. eigenvalues --    0.03735   0.04163   0.04987   0.05690   0.05817

 Mulliken charges:
               1
     1  Mg   0.967468
     2  C   -0.061373
     3  C   -0.094602
     4  C   -0.053569
     5  C   -0.070188
     6  N   -0.431826
     7  C    0.071984
     8  C   -0.087197
     9  C   -0.147810
    10  C    0.101814
    11  C    0.004531
    12  C   -0.016777
    13  C   -0.042906
    14  C    0.224753
    15  O   -0.236803
    16  O   -0.379351
    17  N   -0.503837
    18  C    0.190308
    19  C   -0.174286
    20  C   -0.083557
    21  C    0.140613
    22  C    0.062114
    23  C    0.091958
    24  O   -0.230929
    25  C   -0.023252
    26  N   -0.378441
    27  C    0.082241
    28  C   -0.085869
    29  C   -0.138165
    30  C    0.065111
    31  C    0.000619
    32  C   -0.054698
    33  C   -0.049289
    34  N   -0.474529
    35  C    0.176131
    36  C   -0.149241
    37  C   -0.105227
    38  C    0.222751
    39  C    0.066428
    40  C    0.163813
    41  O   -0.230903
    42  C   -0.121045
    43  C    0.264613
    44  O   -0.233643
    45  O   -0.358570
    46  C    0.114076
    47  C    0.278438
    48  C   -0.111620
    49  C   -0.265595
    50  C    0.002435
    51  C    0.067217
    52  C   -0.047296
    53  C   -0.063063
    54  C   -0.211080
    55  C   -0.000792
    56  C    0.029015
    57  C   -0.092526
    58  C    0.006298
    59  C   -0.205024
    60  C    0.003317
    61  C    0.011883
    62  C   -0.110694
    63  C   -0.020246
    64  C   -0.207556
    65  C   -0.031215
    66  C   -0.017820
    67  H   -0.006978
    68  H    0.025384
    69  H    0.009543
    70  H    0.055073
    71  H    0.051104
    72  H    0.055200
    73  H    0.052428
    74  H    0.038842
    75  H    0.042166
    76  H    0.070791
    77  H    0.073291
    78  H    0.077189
    79  H    0.030890
    80  H    0.053051
    81  H    0.053127
    82  H    0.062411
    83  H    0.050593
    84  H    0.071578
    85  H    0.056076
    86  H    0.051176
    87  H    0.041416
    88  H    0.038945
    89  H    0.039443
    90  H    0.039506
    91  H    0.033525
    92  H    0.051090
    93  H    0.045095
    94  H    0.034122
    95  H    0.029102
    96  H    0.068420
    97  H    0.062527
    98  H    0.073401
    99  H    0.063541
   100  H    0.064914
   101  H    0.060364
   102  H    0.062656
   103  H    0.038497
   104  H    0.022162
   105  H    0.047038
   106  H    0.045423
   107  H    0.036663
   108  H    0.020381
   109  H    0.048717
   110  H    0.040221
   111  H    0.035782
   112  H    0.011828
   113  H    0.023567
   114  H    0.036511
   115  H    0.028092
   116  H    0.035704
   117  H    0.045972
   118  H    0.038060
   119  H    0.036861
   120  H    0.022113
   121  H    0.027461
   122  H    0.017766
   123  H    0.014416
   124  H    0.040337
   125  H    0.036684
   126  H    0.036044
   127  H    0.023945
   128  H    0.020544
   129  H    0.022896
   130  H    0.036987
   131  H    0.039882
   132  H    0.025620
   133  H    0.027556
   134  H    0.031863
   135  H    0.034996
   136  H    0.032149
   137  H    0.032545
   138  H    0.035209
   139  H    0.029974
   140  H    0.031013
 Sum of Mulliken charges =  -0.00000

 Dipole moment (field-independent basis, Debye):
    X=             -2.8429    Y=              4.9306    Z=             -2.1985  Tot=              6.1013
 Quadrupole moment (field-independent basis, Debye-Ang):
   XX=           -374.5924   YY=           -420.6271   ZZ=           -399.4807
   XY=             16.4564   XZ=             20.5975   YZ=              6.4242

 Normal termination of Gaussian 16 at Wed May  4 10:28:04 2022.
