 Gaussian 16, Revision A.03,
 Gaussian 16:  ES64L-G16RevA.03 25-Dec-2016

 --------------------------------
 #p wB97XD/Def2SVP td=(nstates=5)
 --------------------------------

 ----------------------------------------------------
 step_1601_chromophore_7 TDDFT with wB97XD functional
 ----------------------------------------------------
 Symbolic Z-matrix:
 Charge =  0 Multiplicity = 1

                         Standard orientation:
 ---------------------------------------------------------------------
 Center     Atomic      Atomic             Coordinates (Angstroms)
 Number     Number       Type             X           Y           Z
 ---------------------------------------------------------------------
      1         12           0        5.978144    0.567625    0.181919
      2          6           0        3.924955   -2.293582    0.236232
      3          6           0        3.369139    2.374904   -0.974105
      4          6           0        7.980191    3.273195    0.083023
      5          6           0        8.630605   -1.424006    1.292554
      6          7           0        3.954062    0.098150   -0.351150
      7          6           0        3.270591   -1.144439   -0.269860
      8          6           0        1.822562   -1.089386   -0.769633
      9          6           0        1.751196    0.466383   -1.270434
     10          6           0        3.118863    1.041923   -0.848121
     11          6           0        1.459117    0.751409   -2.793659
     12          6           0        0.695966   -1.484465    0.212645
     13          6           0       -0.747905   -1.077713   -0.224478
     14          6           0       -1.896540   -2.036450    0.073392
     15          8           0       -2.075560   -2.783392    1.001804
     16          8           0       -2.785461   -1.897460   -0.981774
     17          7           0        5.680748    2.592834   -0.313663
     18          6           0        4.534972    3.142175   -0.792001
     19          6           0        4.721517    4.541973   -1.048901
     20          6           0        6.073519    4.850013   -0.840825
     21          6           0        6.710847    3.570249   -0.353087
     22          6           0        3.603495    5.429237   -1.569291
     23          6           0        6.878686    6.224930   -1.045677
     24          8           0        8.048736    6.348542   -0.689350
     25          6           0        6.179026    7.384752   -1.650563
     26          7           0        8.041980    0.839975    0.530200
     27          6           0        8.578558    2.082259    0.560571
     28          6           0       10.040695    2.052955    1.091520
     29          6           0       10.189747    0.576544    1.577650
     30          6           0        8.834984   -0.037830    1.150203
     31          6           0       11.157796    2.325760    0.071825
     32          6           0       10.329272    0.524931    3.188117
     33          6           0       11.221672   -0.481225    3.903956
     34          7           0        6.271143   -1.457574    0.671046
     35          6           0        7.466883   -2.124495    1.033680
     36          6           0        7.118485   -3.509484    1.307580
     37          6           0        5.686519   -3.550710    1.038836
     38          6           0        5.299671   -2.305624    0.540782
     39          6           0        8.125096   -4.554003    1.805997
     40          6           0        4.557380   -4.454733    1.176970
     41          8           0        4.430380   -5.629930    1.552313
     42          6           0        3.357967   -3.658031    0.538674
     43          6           0        2.866471   -4.372348   -0.626678
     44          8           0        3.442802   -4.300597   -1.678229
     45          8           0        1.749530   -5.090835   -0.325680
     46          6           0        0.958398   -5.591040   -1.441676
     47          6           0       -4.053242   -2.609356   -0.872521
     48          6           0       -4.879750   -2.037300   -1.968866
     49          6           0       -5.877257   -2.538490   -2.765231
     50          6           0       -6.112704   -4.034327   -2.924426
     51          6           0       -6.841149   -1.624708   -3.589612
     52          6           0       -7.902716   -0.974494   -2.747198
     53          6           0       -7.601455    0.506263   -2.243094
     54          6           0       -8.825272    1.387707   -1.949413
     55          6           0       -8.434860    2.918206   -1.865651
     56          6           0       -9.511615    0.891002   -0.650286
     57          6           0      -10.770062    0.076013   -1.002223
     58          6           0      -12.023254    0.976174   -1.171675
     59          6           0      -13.243029    0.577881   -0.287670
     60          6           0      -14.336919   -0.100055   -1.100783
     61          6           0      -13.752017    1.696636    0.601920
     62          6           0      -13.827458    1.117071    2.096439
     63          6           0      -14.850007    1.890977    3.000006
     64          6           0      -14.712356    1.588852    4.534967
     65          6           0      -16.083179    1.676877    5.226140
     66          6           0      -13.619072    2.419317    5.262148
     67          1           0        2.471384    2.950939   -1.205691
     68          1           0        8.636151    4.146006    0.112966
     69          1           0        9.564711   -1.934576    1.534035
     70          1           0        1.726561   -1.742704   -1.636646
     71          1           0        1.011964    0.990253   -0.664644
     72          1           0        0.762466    0.053947   -3.257085
     73          1           0        2.397661    0.769636   -3.346864
     74          1           0        1.097893    1.776068   -2.894053
     75          1           0        0.937535   -0.973798    1.144955
     76          1           0        0.653016   -2.567269    0.323623
     77          1           0       -0.682232   -0.909017   -1.299711
     78          1           0       -0.942213   -0.207190    0.403296
     79          1           0        2.679243    4.851899   -1.551265
     80          1           0        3.700018    5.674336   -2.627767
     81          1           0        3.514151    6.380560   -1.044011
     82          1           0        5.902445    7.111023   -2.668008
     83          1           0        6.845590    8.233740   -1.805254
     84          1           0        5.349147    7.772379   -1.060716
     85          1           0       10.175952    2.773742    1.899222
     86          1           0       11.004349   -0.000214    1.138867
     87          1           0       10.791893    2.752769   -0.862727
     88          1           0       11.754549    1.463174   -0.223858
     89          1           0       11.868499    3.083804    0.402159
     90          1           0        9.308488    0.482157    3.568953
     91          1           0       10.678468    1.486210    3.564693
     92          1           0       10.577542   -1.037899    4.585417
     93          1           0       12.023973   -0.028722    4.486807
     94          1           0       11.686505   -1.082903    3.123979
     95          1           0        9.189787   -4.342116    1.714807
     96          1           0        7.998671   -5.492761    1.265652
     97          1           0        7.985342   -4.640333    2.883641
     98          1           0        2.480218   -3.566906    1.178919
     99          1           0        1.008842   -6.679324   -1.388737
    100          1           0        1.307131   -5.341899   -2.443732
    101          1           0       -0.050100   -5.220713   -1.260467
    102          1           0       -4.490866   -2.450788    0.113132
    103          1           0       -3.956011   -3.688924   -0.980009
    104          1           0       -4.846871   -0.958107   -2.116987
    105          1           0       -6.249009   -4.204850   -3.992470
    106          1           0       -7.026515   -4.406611   -2.461453
    107          1           0       -5.352106   -4.697368   -2.510960
    108          1           0       -7.359200   -2.309999   -4.260632
    109          1           0       -6.262068   -0.888468   -4.147936
    110          1           0       -8.009212   -1.536307   -1.819080
    111          1           0       -8.886000   -0.857700   -3.203224
    112          1           0       -6.938309    1.057595   -2.910560
    113          1           0       -6.927543    0.400104   -1.392934
    114          1           0       -9.423970    1.220137   -2.845206
    115          1           0       -7.430329    3.087877   -2.254418
    116          1           0       -8.417409    3.204041   -0.814530
    117          1           0       -9.162381    3.489829   -2.442918
    118          1           0       -9.826605    1.694634    0.014181
    119          1           0       -8.953042    0.071622   -0.199556
    120          1           0      -11.002183   -0.707584   -0.280608
    121          1           0      -10.699811   -0.408132   -1.976613
    122          1           0      -12.271886    0.997476   -2.232304
    123          1           0      -11.701150    1.983291   -0.903135
    124          1           0      -12.886010   -0.188078    0.401731
    125          1           0      -14.079236   -1.144318   -1.280624
    126          1           0      -14.535247    0.484860   -1.999252
    127          1           0      -15.279316   -0.125952   -0.555346
    128          1           0      -14.710182    2.092856    0.266806
    129          1           0      -13.148885    2.602238    0.666503
    130          1           0      -12.847427    1.218074    2.562781
    131          1           0      -14.184482    0.088016    2.114066
    132          1           0      -15.839130    1.607764    2.639166
    133          1           0      -14.629953    2.941404    2.808941
    134          1           0      -14.454386    0.538307    4.661026
    135          1           0      -16.121902    1.173435    6.192778
    136          1           0      -16.840638    1.236660    4.577759
    137          1           0      -16.332179    2.719766    5.420668
    138          1           0      -13.979192    2.964194    6.133682
    139          1           0      -13.041398    3.126295    4.665695
    140          1           0      -12.848372    1.722973    5.591223
 ---------------------------------------------------------------------

 SCF Done:  E(RwB97XD) =  -3007.90537049     A.U. after   20 cycles

 Excitation energies and oscillator strengths:

 Excited State   1:      Singlet-A      1.6978 eV  730.24 nm  f=0.3863  <S**2>=0.000
     245 -> 248        0.18275
     246 -> 247        0.68164
     245 <- 248        0.11032
 This state for optimization and/or second-order correction.
 Total Energy, E(TD-HF/TD-DFT) =  -3007.84297570
 Copying the excited state density for this state as the 1-particle RhoCI density.

 Excited State   2:      Singlet-A      2.2141 eV  559.96 nm  f=0.0898  <S**2>=0.000
     245 -> 247        0.62621
     246 -> 248       -0.30696

 Excited State   3:      Singlet-A      3.3588 eV  369.14 nm  f=0.0011  <S**2>=0.000
     241 -> 247       -0.14370
     244 -> 247        0.65204
     244 -> 249        0.11291

 Excited State   4:      Singlet-A      3.4823 eV  356.04 nm  f=0.5523  <S**2>=0.000
     240 -> 247        0.10742
     241 -> 247        0.29001
     245 -> 247        0.25789
     246 -> 248        0.57662
     245 <- 247       -0.10387

 Excited State   5:      Singlet-A      3.5228 eV  351.95 nm  f=0.0047  <S**2>=0.000
     241 -> 247        0.10460
     243 -> 247        0.56057
     243 -> 249        0.27596
     243 -> 250        0.21693

 The electronic state is 1-A.
 Alpha  occ. eigenvalues --  -46.94446 -19.30097 -19.29899 -19.25789 -19.25327
 Alpha  occ. eigenvalues --  -19.23757 -19.23005 -14.47133 -14.46662 -14.44253
 Alpha  occ. eigenvalues --  -14.43109 -10.43696 -10.41862 -10.40753 -10.38297
 Alpha  occ. eigenvalues --  -10.36358 -10.35377 -10.35270 -10.35117 -10.34878
 Alpha  occ. eigenvalues --  -10.34701 -10.34255 -10.34205 -10.33069 -10.32964
 Alpha  occ. eigenvalues --  -10.32784 -10.32777 -10.32773 -10.32523 -10.32110
 Alpha  occ. eigenvalues --  -10.32034 -10.31957 -10.31865 -10.31851 -10.31411
 Alpha  occ. eigenvalues --  -10.31395 -10.31289 -10.31010 -10.30747 -10.30673
 Alpha  occ. eigenvalues --  -10.30611 -10.30557 -10.30474 -10.30090 -10.30079
 Alpha  occ. eigenvalues --  -10.29933 -10.29912 -10.29892 -10.29842 -10.29753
 Alpha  occ. eigenvalues --  -10.29634 -10.29296 -10.29181 -10.29073 -10.28980
 Alpha  occ. eigenvalues --  -10.28875 -10.28802 -10.28801 -10.28794 -10.28736
 Alpha  occ. eigenvalues --  -10.28605 -10.28296 -10.28277 -10.28214 -10.28031
 Alpha  occ. eigenvalues --  -10.28023  -3.20420  -1.94037  -1.93537  -1.93406
 Alpha  occ. eigenvalues --   -1.18992  -1.18493  -1.12997  -1.11056  -1.10569
 Alpha  occ. eigenvalues --   -1.09897  -1.06607  -1.05425  -1.04758  -1.03702
 Alpha  occ. eigenvalues --   -0.94142  -0.92379  -0.91622  -0.91217  -0.90702
 Alpha  occ. eigenvalues --   -0.90220  -0.90104  -0.89204  -0.89036  -0.88976
 Alpha  occ. eigenvalues --   -0.87728  -0.87257  -0.86095  -0.85445  -0.85305
 Alpha  occ. eigenvalues --   -0.84684  -0.84380  -0.83509  -0.82923  -0.82474
 Alpha  occ. eigenvalues --   -0.81992  -0.80089  -0.79923  -0.79283  -0.77859
 Alpha  occ. eigenvalues --   -0.77521  -0.77292  -0.77200  -0.76547  -0.75981
 Alpha  occ. eigenvalues --   -0.75568  -0.74471  -0.73894  -0.72652  -0.70282
 Alpha  occ. eigenvalues --   -0.70196  -0.69692  -0.69070  -0.68514  -0.67731
 Alpha  occ. eigenvalues --   -0.67286  -0.66892  -0.66839  -0.66153  -0.65968
 Alpha  occ. eigenvalues --   -0.65379  -0.65204  -0.64115  -0.63895  -0.62308
 Alpha  occ. eigenvalues --   -0.61943  -0.61250  -0.60969  -0.60509  -0.60148
 Alpha  occ. eigenvalues --   -0.59745  -0.59227  -0.58378  -0.58252  -0.57797
 Alpha  occ. eigenvalues --   -0.57068  -0.56703  -0.56540  -0.56126  -0.55878
 Alpha  occ. eigenvalues --   -0.55707  -0.55465  -0.55196  -0.55007  -0.54854
 Alpha  occ. eigenvalues --   -0.54585  -0.54457  -0.53951  -0.53750  -0.53575
 Alpha  occ. eigenvalues --   -0.53157  -0.52948  -0.52882  -0.52593  -0.52403
 Alpha  occ. eigenvalues --   -0.52328  -0.52245  -0.52188  -0.52108  -0.52015
 Alpha  occ. eigenvalues --   -0.51484  -0.51386  -0.51115  -0.50948  -0.50783
 Alpha  occ. eigenvalues --   -0.50584  -0.50434  -0.50048  -0.49768  -0.49567
 Alpha  occ. eigenvalues --   -0.49398  -0.49056  -0.48882  -0.48659  -0.48500
 Alpha  occ. eigenvalues --   -0.48377  -0.48271  -0.48234  -0.47717  -0.47609
 Alpha  occ. eigenvalues --   -0.47449  -0.47139  -0.46924  -0.46774  -0.46658
 Alpha  occ. eigenvalues --   -0.46474  -0.46337  -0.46046  -0.45933  -0.45781
 Alpha  occ. eigenvalues --   -0.45574  -0.45428  -0.45388  -0.45108  -0.45075
 Alpha  occ. eigenvalues --   -0.44961  -0.44748  -0.44575  -0.44213  -0.44111
 Alpha  occ. eigenvalues --   -0.43877  -0.43514  -0.43465  -0.43393  -0.43054
 Alpha  occ. eigenvalues --   -0.42891  -0.42549  -0.42204  -0.42125  -0.41917
 Alpha  occ. eigenvalues --   -0.41814  -0.41592  -0.41351  -0.41071  -0.40871
 Alpha  occ. eigenvalues --   -0.40328  -0.40266  -0.39833  -0.39436  -0.39212
 Alpha  occ. eigenvalues --   -0.39187  -0.39144  -0.38982  -0.38419  -0.38249
 Alpha  occ. eigenvalues --   -0.38183  -0.38007  -0.36957  -0.36861  -0.36113
 Alpha  occ. eigenvalues --   -0.35890  -0.35752  -0.35367  -0.34118  -0.33728
 Alpha  occ. eigenvalues --   -0.32507  -0.32054  -0.31906  -0.30894  -0.25962
 Alpha  occ. eigenvalues --   -0.22908
 Alpha virt. eigenvalues --   -0.06734  -0.00121   0.02650   0.04408   0.06811
 Alpha virt. eigenvalues --    0.06966   0.07371   0.07664   0.08537   0.09399
 Alpha virt. eigenvalues --    0.10187   0.11057   0.11700   0.12507   0.12574

 Mulliken charges:
               1
     1  Mg   0.956405
     2  C   -0.065541
     3  C   -0.115798
     4  C   -0.063533
     5  C   -0.080284
     6  N   -0.401609
     7  C    0.040940
     8  C   -0.066245
     9  C   -0.122528
    10  C    0.096008
    11  C    0.016190
    12  C   -0.000724
    13  C   -0.023353
    14  C    0.213971
    15  O   -0.233477
    16  O   -0.378408
    17  N   -0.472993
    18  C    0.185015
    19  C   -0.162424
    20  C   -0.077873
    21  C    0.132421
    22  C    0.073302
    23  C    0.090269
    24  O   -0.224306
    25  C   -0.015252
    26  N   -0.341045
    27  C    0.066535
    28  C   -0.062467
    29  C   -0.106398
    30  C    0.046508
    31  C    0.009288
    32  C   -0.044126
    33  C   -0.032248
    34  N   -0.434658
    35  C    0.163830
    36  C   -0.147597
    37  C   -0.105277
    38  C    0.204486
    39  C    0.076363
    40  C    0.149906
    41  O   -0.222833
    42  C   -0.078588
    43  C    0.235189
    44  O   -0.227998
    45  O   -0.355732
    46  C    0.129253
    47  C    0.291249
    48  C   -0.120696
    49  C   -0.248941
    50  C    0.014851
    51  C    0.084491
    52  C   -0.025361
    53  C   -0.047381
    54  C   -0.180405
    55  C    0.011863
    56  C    0.046285
    57  C   -0.071548
    58  C    0.018985
    59  C   -0.168552
    60  C    0.015243
    61  C    0.019431
    62  C   -0.088587
    63  C   -0.004474
    64  C   -0.178741
    65  C   -0.017486
    66  C   -0.009868
    67  H   -0.019191
    68  H    0.021261
    69  H    0.003270
    70  H    0.044258
    71  H    0.038865
    72  H    0.050783
    73  H    0.045950
    74  H    0.032860
    75  H    0.035010
    76  H    0.056003
    77  H    0.064038
    78  H    0.071216
    79  H    0.027718
    80  H    0.049063
    81  H    0.048220
    82  H    0.057750
    83  H    0.050206
    84  H    0.067794
    85  H    0.046938
    86  H    0.039187
    87  H    0.034530
    88  H    0.033723
    89  H    0.034434
    90  H    0.030366
    91  H    0.023922
    92  H    0.045533
    93  H    0.039903
    94  H    0.026478
    95  H    0.023558
    96  H    0.064024
    97  H    0.057252
    98  H    0.065916
    99  H    0.059488
   100  H    0.061159
   101  H    0.056648
   102  H    0.058524
   103  H    0.032648
   104  H    0.015957
   105  H    0.040539
   106  H    0.039608
   107  H    0.031356
   108  H    0.013550
   109  H    0.042135
   110  H    0.027620
   111  H    0.025502
   112  H    0.000961
   113  H    0.011269
   114  H    0.022306
   115  H    0.022391
   116  H    0.029303
   117  H    0.040857
   118  H    0.028471
   119  H    0.027140
   120  H    0.014634
   121  H    0.014076
   122  H    0.009958
   123  H    0.000739
   124  H    0.022217
   125  H    0.031345
   126  H    0.029451
   127  H    0.017241
   128  H    0.012456
   129  H    0.015312
   130  H    0.026766
   131  H    0.029384
   132  H    0.016430
   133  H    0.017283
   134  H    0.020671
   135  H    0.029883
   136  H    0.025593
   137  H    0.025311
   138  H    0.030291
   139  H    0.024361
   140  H    0.025408
 Sum of Mulliken charges =  -0.00000

 Dipole moment (field-independent basis, Debye):
    X=             -2.8909    Y=              5.4787    Z=             -2.3778  Tot=              6.6353
 Quadrupole moment (field-independent basis, Debye-Ang):
   XX=           -375.1399   YY=           -418.1522   ZZ=           -399.1602
   XY=             19.5524   XZ=             19.4663   YZ=              6.1116

 Normal termination of Gaussian 16 at Wed May  4 10:50:51 2022.
