 Gaussian 16, Revision A.03,
 Gaussian 16:  ES64L-G16RevA.03 25-Dec-2016

 --------------------
 #p ZINDO=(nstates=5)
 --------------------

 -----------------------------
 step_1601_chromophore_7 ZINDO
 -----------------------------
 Symbolic Z-matrix:
 Charge =  0 Multiplicity = 1

                         Standard orientation:
 ---------------------------------------------------------------------
 Center     Atomic      Atomic             Coordinates (Angstroms)
 Number     Number       Type             X           Y           Z
 ---------------------------------------------------------------------
      1         12           0        5.978144    0.567625    0.181919
      2          6           0        3.924955   -2.293582    0.236232
      3          6           0        3.369139    2.374904   -0.974105
      4          6           0        7.980191    3.273195    0.083023
      5          6           0        8.630605   -1.424006    1.292554
      6          7           0        3.954062    0.098150   -0.351150
      7          6           0        3.270591   -1.144439   -0.269860
      8          6           0        1.822562   -1.089386   -0.769633
      9          6           0        1.751196    0.466383   -1.270434
     10          6           0        3.118863    1.041923   -0.848121
     11          6           0        1.459117    0.751409   -2.793659
     12          6           0        0.695966   -1.484465    0.212645
     13          6           0       -0.747905   -1.077713   -0.224478
     14          6           0       -1.896540   -2.036450    0.073392
     15          8           0       -2.075560   -2.783392    1.001804
     16          8           0       -2.785461   -1.897460   -0.981774
     17          7           0        5.680748    2.592834   -0.313663
     18          6           0        4.534972    3.142175   -0.792001
     19          6           0        4.721517    4.541973   -1.048901
     20          6           0        6.073519    4.850013   -0.840825
     21          6           0        6.710847    3.570249   -0.353087
     22          6           0        3.603495    5.429237   -1.569291
     23          6           0        6.878686    6.224930   -1.045677
     24          8           0        8.048736    6.348542   -0.689350
     25          6           0        6.179026    7.384752   -1.650563
     26          7           0        8.041980    0.839975    0.530200
     27          6           0        8.578558    2.082259    0.560571
     28          6           0       10.040695    2.052955    1.091520
     29          6           0       10.189747    0.576544    1.577650
     30          6           0        8.834984   -0.037830    1.150203
     31          6           0       11.157796    2.325760    0.071825
     32          6           0       10.329272    0.524931    3.188117
     33          6           0       11.221672   -0.481225    3.903956
     34          7           0        6.271143   -1.457574    0.671046
     35          6           0        7.466883   -2.124495    1.033680
     36          6           0        7.118485   -3.509484    1.307580
     37          6           0        5.686519   -3.550710    1.038836
     38          6           0        5.299671   -2.305624    0.540782
     39          6           0        8.125096   -4.554003    1.805997
     40          6           0        4.557380   -4.454733    1.176970
     41          8           0        4.430380   -5.629930    1.552313
     42          6           0        3.357967   -3.658031    0.538674
     43          6           0        2.866471   -4.372348   -0.626678
     44          8           0        3.442802   -4.300597   -1.678229
     45          8           0        1.749530   -5.090835   -0.325680
     46          6           0        0.958398   -5.591040   -1.441676
     47          6           0       -4.053242   -2.609356   -0.872521
     48          6           0       -4.879750   -2.037300   -1.968866
     49          6           0       -5.877257   -2.538490   -2.765231
     50          6           0       -6.112704   -4.034327   -2.924426
     51          6           0       -6.841149   -1.624708   -3.589612
     52          6           0       -7.902716   -0.974494   -2.747198
     53          6           0       -7.601455    0.506263   -2.243094
     54          6           0       -8.825272    1.387707   -1.949413
     55          6           0       -8.434860    2.918206   -1.865651
     56          6           0       -9.511615    0.891002   -0.650286
     57          6           0      -10.770062    0.076013   -1.002223
     58          6           0      -12.023254    0.976174   -1.171675
     59          6           0      -13.243029    0.577881   -0.287670
     60          6           0      -14.336919   -0.100055   -1.100783
     61          6           0      -13.752017    1.696636    0.601920
     62          6           0      -13.827458    1.117071    2.096439
     63          6           0      -14.850007    1.890977    3.000006
     64          6           0      -14.712356    1.588852    4.534967
     65          6           0      -16.083179    1.676877    5.226140
     66          6           0      -13.619072    2.419317    5.262148
     67          1           0        2.471384    2.950939   -1.205691
     68          1           0        8.636151    4.146006    0.112966
     69          1           0        9.564711   -1.934576    1.534035
     70          1           0        1.726561   -1.742704   -1.636646
     71          1           0        1.011964    0.990253   -0.664644
     72          1           0        0.762466    0.053947   -3.257085
     73          1           0        2.397661    0.769636   -3.346864
     74          1           0        1.097893    1.776068   -2.894053
     75          1           0        0.937535   -0.973798    1.144955
     76          1           0        0.653016   -2.567269    0.323623
     77          1           0       -0.682232   -0.909017   -1.299711
     78          1           0       -0.942213   -0.207190    0.403296
     79          1           0        2.679243    4.851899   -1.551265
     80          1           0        3.700018    5.674336   -2.627767
     81          1           0        3.514151    6.380560   -1.044011
     82          1           0        5.902445    7.111023   -2.668008
     83          1           0        6.845590    8.233740   -1.805254
     84          1           0        5.349147    7.772379   -1.060716
     85          1           0       10.175952    2.773742    1.899222
     86          1           0       11.004349   -0.000214    1.138867
     87          1           0       10.791893    2.752769   -0.862727
     88          1           0       11.754549    1.463174   -0.223858
     89          1           0       11.868499    3.083804    0.402159
     90          1           0        9.308488    0.482157    3.568953
     91          1           0       10.678468    1.486210    3.564693
     92          1           0       10.577542   -1.037899    4.585417
     93          1           0       12.023973   -0.028722    4.486807
     94          1           0       11.686505   -1.082903    3.123979
     95          1           0        9.189787   -4.342116    1.714807
     96          1           0        7.998671   -5.492761    1.265652
     97          1           0        7.985342   -4.640333    2.883641
     98          1           0        2.480218   -3.566906    1.178919
     99          1           0        1.008842   -6.679324   -1.388737
    100          1           0        1.307131   -5.341899   -2.443732
    101          1           0       -0.050100   -5.220713   -1.260467
    102          1           0       -4.490866   -2.450788    0.113132
    103          1           0       -3.956011   -3.688924   -0.980009
    104          1           0       -4.846871   -0.958107   -2.116987
    105          1           0       -6.249009   -4.204850   -3.992470
    106          1           0       -7.026515   -4.406611   -2.461453
    107          1           0       -5.352106   -4.697368   -2.510960
    108          1           0       -7.359200   -2.309999   -4.260632
    109          1           0       -6.262068   -0.888468   -4.147936
    110          1           0       -8.009212   -1.536307   -1.819080
    111          1           0       -8.886000   -0.857700   -3.203224
    112          1           0       -6.938309    1.057595   -2.910560
    113          1           0       -6.927543    0.400104   -1.392934
    114          1           0       -9.423970    1.220137   -2.845206
    115          1           0       -7.430329    3.087877   -2.254418
    116          1           0       -8.417409    3.204041   -0.814530
    117          1           0       -9.162381    3.489829   -2.442918
    118          1           0       -9.826605    1.694634    0.014181
    119          1           0       -8.953042    0.071622   -0.199556
    120          1           0      -11.002183   -0.707584   -0.280608
    121          1           0      -10.699811   -0.408132   -1.976613
    122          1           0      -12.271886    0.997476   -2.232304
    123          1           0      -11.701150    1.983291   -0.903135
    124          1           0      -12.886010   -0.188078    0.401731
    125          1           0      -14.079236   -1.144318   -1.280624
    126          1           0      -14.535247    0.484860   -1.999252
    127          1           0      -15.279316   -0.125952   -0.555346
    128          1           0      -14.710182    2.092856    0.266806
    129          1           0      -13.148885    2.602238    0.666503
    130          1           0      -12.847427    1.218074    2.562781
    131          1           0      -14.184482    0.088016    2.114066
    132          1           0      -15.839130    1.607764    2.639166
    133          1           0      -14.629953    2.941404    2.808941
    134          1           0      -14.454386    0.538307    4.661026
    135          1           0      -16.121902    1.173435    6.192778
    136          1           0      -16.840638    1.236660    4.577759
    137          1           0      -16.332179    2.719766    5.420668
    138          1           0      -13.979192    2.964194    6.133682
    139          1           0      -13.041398    3.126295    4.665695
    140          1           0      -12.848372    1.722973    5.591223
 ---------------------------------------------------------------------

 SCF Done:  E(RZINDO/S) =  -474.240235327     A.U. after   19 cycles

 Excitation energies and oscillator strengths:

 Excited State   1:      Singlet-A      1.2954 eV  957.13 nm  f=0.5907  <S**2>=0.000
     175 ->178        -0.17826
     176 ->177         0.66389
 This state for optimization and/or second-order correction.
 Total Energy, E(CIS/TDA) =  -474.192631365
 Copying the excited state density for this state as the 1-particle RhoCI density.

 Excited State   2:      Singlet-A      2.0091 eV  617.11 nm  f=0.0183  <S**2>=0.000
     175 ->177         0.51610
     176 ->178         0.45292

 Excited State   3:      Singlet-A      2.9843 eV  415.45 nm  f=0.9187  <S**2>=0.000
     175 ->177        -0.36555
     176 ->178         0.46647
     176 ->179         0.31438

 Excited State   4:      Singlet-A      3.0251 eV  409.86 nm  f=0.0552  <S**2>=0.000
     170 ->177         0.20879
     170 ->179         0.29772
     170 ->180        -0.25036
     170 ->186         0.12432
     170 ->188         0.15835
     171 ->177         0.15447
     171 ->179         0.18162
     171 ->180        -0.15428
     174 ->177        -0.21903
     174 ->179        -0.11002
     176 ->178        -0.11989
     176 ->179         0.12684

 Excited State   5:      Singlet-A      3.0698 eV  403.89 nm  f=0.0065  <S**2>=0.000
     167 ->177        -0.18312
     167 ->178         0.15490
     167 ->179         0.24045
     167 ->180         0.25791
     167 ->186         0.15030
     168 ->177        -0.20908
     168 ->178         0.16738
     168 ->179         0.25282
     168 ->180         0.27587
     168 ->186         0.15596

 The electronic state is 1-A.
 Alpha  occ. eigenvalues --   -1.83989  -1.80465  -1.79255  -1.73304  -1.73142
 Alpha  occ. eigenvalues --   -1.69196  -1.65987  -1.60077  -1.58505  -1.57514
 Alpha  occ. eigenvalues --   -1.54364  -1.51531  -1.48773  -1.48676  -1.46282
 Alpha  occ. eigenvalues --   -1.44819  -1.43760  -1.39736  -1.38904  -1.37670
 Alpha  occ. eigenvalues --   -1.35866  -1.32311  -1.31698  -1.31193  -1.28964
 Alpha  occ. eigenvalues --   -1.28468  -1.24945  -1.23534  -1.22439  -1.18794
 Alpha  occ. eigenvalues --   -1.17357  -1.15931  -1.15472  -1.14599  -1.13088
 Alpha  occ. eigenvalues --   -1.12098  -1.10261  -1.09860  -1.05269  -1.03656
 Alpha  occ. eigenvalues --   -1.03202  -1.01296  -0.98741  -0.97075  -0.96632
 Alpha  occ. eigenvalues --   -0.96048  -0.94333  -0.93188  -0.92742  -0.91877
 Alpha  occ. eigenvalues --   -0.90773  -0.90122  -0.89017  -0.88134  -0.86276
 Alpha  occ. eigenvalues --   -0.85859  -0.84429  -0.83438  -0.82327  -0.80433
 Alpha  occ. eigenvalues --   -0.79890  -0.79362  -0.77393  -0.76826  -0.76617
 Alpha  occ. eigenvalues --   -0.75684  -0.74908  -0.74416  -0.74228  -0.73308
 Alpha  occ. eigenvalues --   -0.72605  -0.72188  -0.71940  -0.71264  -0.70923
 Alpha  occ. eigenvalues --   -0.69458  -0.69263  -0.68395  -0.68333  -0.67827
 Alpha  occ. eigenvalues --   -0.67611  -0.67041  -0.66855  -0.66666  -0.66178
 Alpha  occ. eigenvalues --   -0.65058  -0.64961  -0.64493  -0.64132  -0.63797
 Alpha  occ. eigenvalues --   -0.63449  -0.62722  -0.62403  -0.61923  -0.61887
 Alpha  occ. eigenvalues --   -0.61804  -0.61361  -0.60943  -0.60717  -0.60022
 Alpha  occ. eigenvalues --   -0.59917  -0.59621  -0.58706  -0.58533  -0.58071
 Alpha  occ. eigenvalues --   -0.57940  -0.57242  -0.57059  -0.56869  -0.56539
 Alpha  occ. eigenvalues --   -0.56019  -0.55664  -0.55526  -0.54867  -0.54788
 Alpha  occ. eigenvalues --   -0.54463  -0.54186  -0.53469  -0.53380  -0.52638
 Alpha  occ. eigenvalues --   -0.52330  -0.52177  -0.51845  -0.51534  -0.50945
 Alpha  occ. eigenvalues --   -0.50675  -0.50669  -0.50444  -0.50337  -0.50108
 Alpha  occ. eigenvalues --   -0.49909  -0.49775  -0.49589  -0.49358  -0.48838
 Alpha  occ. eigenvalues --   -0.48767  -0.48540  -0.48401  -0.48230  -0.48040
 Alpha  occ. eigenvalues --   -0.47986  -0.47640  -0.47327  -0.46930  -0.46698
 Alpha  occ. eigenvalues --   -0.46639  -0.46334  -0.46083  -0.45915  -0.45567
 Alpha  occ. eigenvalues --   -0.45234  -0.44847  -0.44663  -0.44508  -0.44399
 Alpha  occ. eigenvalues --   -0.44230  -0.44089  -0.42981  -0.42825  -0.42247
 Alpha  occ. eigenvalues --   -0.41828  -0.41792  -0.41109  -0.39555  -0.39120
 Alpha  occ. eigenvalues --   -0.37453  -0.36999  -0.36539  -0.35179  -0.34339
 Alpha  occ. eigenvalues --   -0.34173  -0.32573  -0.31950  -0.31285  -0.26817
 Alpha  occ. eigenvalues --   -0.21810
 Alpha virt. eigenvalues --   -0.08131  -0.02336  -0.00513   0.01140   0.01976
 Alpha virt. eigenvalues --    0.02835   0.03411   0.03677   0.04201   0.04666
 Alpha virt. eigenvalues --    0.05733   0.06289   0.06703   0.07653   0.08428

 Mulliken charges:
               1
     1  Mg   0.421286
     2  C   -0.042386
     3  C   -0.104511
     4  C   -0.033728
     5  C   -0.033531
     6  N   -0.304325
     7  C    0.102269
     8  C    0.001576
     9  C   -0.008896
    10  C    0.171107
    11  C   -0.048078
    12  C   -0.024788
    13  C   -0.001964
    14  C    0.466668
    15  O   -0.500853
    16  O   -0.280603
    17  N   -0.338471
    18  C    0.151945
    19  C    0.012049
    20  C   -0.031881
    21  C    0.109659
    22  C   -0.046894
    23  C    0.335742
    24  O   -0.504135
    25  C   -0.024526
    26  N   -0.224665
    27  C    0.130368
    28  C    0.010719
    29  C   -0.006325
    30  C    0.087325
    31  C   -0.051414
    32  C   -0.042111
    33  C   -0.054314
    34  N   -0.319317
    35  C    0.055496
    36  C    0.030214
    37  C   -0.069518
    38  C    0.150850
    39  C   -0.035783
    40  C    0.330320
    41  O   -0.532569
    42  C    0.056290
    43  C    0.501138
    44  O   -0.530257
    45  O   -0.264573
    46  C    0.074220
    47  C    0.120660
    48  C   -0.092825
    49  C   -0.014794
    50  C   -0.045935
    51  C   -0.010378
    52  C   -0.032166
    53  C   -0.043199
    54  C   -0.010656
    55  C   -0.062540
    56  C   -0.033736
    57  C   -0.046235
    58  C   -0.043681
    59  C   -0.006312
    60  C   -0.052675
    61  C   -0.034231
    62  C   -0.047023
    63  C   -0.040972
    64  C   -0.008010
    65  C   -0.055591
    66  C   -0.056705
    67  H    0.013314
    68  H    0.038994
    69  H    0.030993
    70  H    0.036982
    71  H    0.026122
    72  H    0.026740
    73  H    0.025670
    74  H    0.017453
    75  H    0.026633
    76  H    0.035223
    77  H    0.043659
    78  H    0.049421
    79  H    0.024233
    80  H    0.027386
    81  H    0.031408
    82  H    0.036739
    83  H    0.031911
    84  H    0.044038
    85  H    0.037121
    86  H    0.038948
    87  H    0.017643
    88  H    0.022506
    89  H    0.017096
    90  H    0.018582
    91  H    0.010949
    92  H    0.024115
    93  H    0.021576
    94  H    0.020457
    95  H    0.020663
    96  H    0.035886
    97  H    0.034873
    98  H    0.048967
    99  H    0.038561
   100  H    0.049027
   101  H    0.035608
   102  H    0.054378
   103  H    0.047876
   104  H    0.019747
   105  H    0.023286
   106  H    0.025075
   107  H    0.023265
   108  H    0.017020
   109  H    0.031329
   110  H    0.020552
   111  H    0.022665
   112  H    0.008641
   113  H    0.010950
   114  H    0.025246
   115  H    0.019343
   116  H    0.021230
   117  H    0.021999
   118  H    0.032886
   119  H    0.024390
   120  H    0.017080
   121  H    0.015724
   122  H    0.016383
   123  H    0.013905
   124  H    0.017403
   125  H    0.019415
   126  H    0.021152
   127  H    0.010800
   128  H    0.018179
   129  H    0.017444
   130  H    0.022866
   131  H    0.022458
   132  H    0.020803
   133  H    0.019100
   134  H    0.016716
   135  H    0.015859
   136  H    0.016042
   137  H    0.015498
   138  H    0.021377
   139  H    0.018948
   140  H    0.011653
 Sum of Mulliken charges =  -0.00000

 Dipole moment (field-independent basis, Debye):
    X=             -4.4979    Y=              8.7625    Z=             -3.1452  Tot=             10.3394
 N-N= 4.197270141968D+03 E-N= 0.000000000000D+00  KE=-9.068776459867D+03
 Leave Link  601 at Wed May  4 11:05:31 2022, MaxMem=  6710886400 cpu:               0.8 elap:               0.1
 (Enter /sw/apps/gaussian-16.0/g16/l9999.exe)
 1\1\GINC-BP1-COMPUTE065\SP\RZINDO CIS\STO-3G\C55H74Mg1N4O6\OF15641\04-
 May-2022\0\\#p ZINDO=(nstates=5)\\step_1601_chromophore_7 ZINDO\\0,1\M
 g,0,26.018,-0.665,29.648\C,0,28.091,-0.617,32.495\C,0,23.419,0.321,31.
 567\C,0,24.046,-0.778,26.921\C,0,28.76,-1.773,27.78\N,0,25.773,-0.264,
 31.741\C,0,26.741,-0.299,32.78\C,0,26.175,0.03,34.166\C,0,24.592,0.209
 ,33.794\C,0,24.568,0.078,32.257\C,0,23.549,-0.765,34.465\C,0,26.778,1.
 228,34.935\C,0,25.944,1.728,36.158\C,0,26.688,2.193,37.406\O,0,27.744,

 Normal termination of Gaussian 16 at Wed May  4 11:05:31 2022.
