 Gaussian 16, Revision A.03,
 Gaussian 16:  ES64L-G16RevA.03 25-Dec-2016

 ------------------------------
 #p blyp/Def2SVP td=(nstates=5)
 ------------------------------

 ------------------------------------------------
 step_1_chromophore_14 TDDFT with blyp functional
 ------------------------------------------------
 Symbolic Z-matrix:
 Charge =  0 Multiplicity = 1

                         Standard orientation:
 ---------------------------------------------------------------------
 Center     Atomic      Atomic             Coordinates (Angstroms)
 Number     Number       Type             X           Y           Z
 ---------------------------------------------------------------------
      1         12           0        5.477650    0.876986   -0.315511
      2          6           0        4.634418   -2.514720    0.174056
      3          6           0        3.644363    0.844857   -3.282952
      4          6           0        5.453075    4.282790   -0.196033
      5          6           0        6.845799    0.800782    2.993903
      6          7           0        4.338526   -0.651898   -1.399682
      7          6           0        4.111014   -1.924086   -1.009685
      8          6           0        3.120259   -2.641517   -1.983277
      9          6           0        3.168591   -1.639281   -3.226617
     10          6           0        3.805801   -0.345693   -2.623552
     11          6           0        3.982602   -1.986765   -4.493642
     12          6           0        1.710630   -2.749040   -1.287855
     13          6           0        0.939382   -4.056933   -1.618414
     14          6           0       -0.616389   -3.890514   -1.858275
     15          8           0       -1.158194   -3.815262   -2.948862
     16          8           0       -1.298426   -3.959292   -0.672375
     17          7           0        4.823804    2.408524   -1.696763
     18          6           0        4.145531    2.136387   -2.855165
     19          6           0        3.946321    3.374521   -3.507498
     20          6           0        4.379899    4.426806   -2.647360
     21          6           0        4.974462    3.742024   -1.450906
     22          6           0        3.286991    3.546693   -4.855493
     23          6           0        4.141373    5.886976   -2.829694
     24          8           0        3.465749    6.320783   -3.748980
     25          6           0        4.605114    6.914917   -1.934647
     26          7           0        5.987629    2.328139    1.285087
     27          6           0        6.029980    3.693207    0.965045
     28          6           0        6.696637    4.469379    2.057482
     29          6           0        7.096733    3.388438    3.128661
     30          6           0        6.633874    2.100519    2.469681
     31          6           0        7.881332    5.244927    1.467324
     32          6           0        6.632801    3.743092    4.591545
     33          6           0        7.699354    3.814247    5.641972
     34          7           0        5.756750   -0.564614    1.308887
     35          6           0        6.370153   -0.428776    2.530044
     36          6           0        6.501153   -1.745805    3.191111
     37          6           0        5.757435   -2.552564    2.289511
     38          6           0        5.421568   -1.823063    1.164461
     39          6           0        7.074049   -2.091047    4.556752
     40          6           0        5.171703   -3.860036    2.156827
     41          8           0        5.177923   -4.818918    2.944459
     42          6           0        4.443776   -3.943403    0.815433
     43          6           0        4.945334   -5.067899    0.003611
     44          8           0        4.248306   -5.941314   -0.367714
     45          8           0        6.226463   -4.897746   -0.435409
     46          6           0        6.573082   -5.919287   -1.447248
     47          6           0       -2.800659   -3.873842   -0.720904
     48          6           0       -3.242635   -2.454140   -0.332989
     49          6           0       -3.848426   -1.448319   -0.997199
     50          6           0       -4.112653   -1.340006   -2.482640
     51          6           0       -4.230440   -0.141272   -0.325628
     52          6           0       -5.833779    0.073224   -0.118974
     53          6           0       -6.327349   -0.150339    1.311346
     54          6           0       -7.879010    0.093596    1.400575
     55          6           0       -8.157591    0.593713    2.845106
     56          6           0       -8.723576   -1.105807    1.074842
     57          6           0       -9.941131   -0.819029    0.180938
     58          6           0      -11.222841   -1.413007    0.850138
     59          6           0      -12.166743   -0.253946    1.386004
     60          6           0      -12.598763   -0.609685    2.812710
     61          6           0      -13.368866    0.093088    0.456531
     62          6           0      -13.699531    1.681569    0.676928
     63          6           0      -15.211025    1.846711    0.955147
     64          6           0      -16.058943    2.185097   -0.322334
     65          6           0      -15.911259    3.670062   -0.611479
     66          6           0      -17.558257    1.650778   -0.116749
     67          1           0        3.144705    0.852333   -4.254375
     68          1           0        5.496374    5.370704   -0.267724
     69          1           0        7.183147    0.591093    4.011654
     70          1           0        3.522053   -3.630213   -2.205642
     71          1           0        2.216815   -1.177783   -3.489254
     72          1           0        4.796313   -2.669529   -4.246443
     73          1           0        4.391089   -1.145420   -5.053536
     74          1           0        3.296694   -2.531204   -5.141778
     75          1           0        1.099140   -1.875398   -1.515316
     76          1           0        1.930906   -2.714597   -0.220856
     77          1           0        1.124318   -4.683288   -0.745553
     78          1           0        1.502286   -4.458130   -2.461486
     79          1           0        3.518456    4.466280   -5.393124
     80          1           0        2.223406    3.500754   -4.623012
     81          1           0        3.318080    2.688718   -5.527098
     82          1           0        5.694411    6.858779   -1.930035
     83          1           0        4.169835    6.799104   -0.941649
     84          1           0        4.283810    7.881041   -2.323948
     85          1           0        5.973531    5.096343    2.578598
     86          1           0        8.141970    3.081341    3.170566
     87          1           0        7.860211    5.301213    0.378712
     88          1           0        8.834035    4.777402    1.716076
     89          1           0        7.773069    6.304119    1.698865
     90          1           0        5.903463    2.971777    4.839039
     91          1           0        6.221226    4.746540    4.693857
     92          1           0        7.403377    3.138783    6.444170
     93          1           0        7.767111    4.807896    6.085273
     94          1           0        8.702298    3.649626    5.248022
     95          1           0        6.361905   -1.927205    5.365777
     96          1           0        8.022404   -1.593673    4.763938
     97          1           0        7.166966   -3.173585    4.470578
     98          1           0        3.403340   -4.220377    0.980440
     99          1           0        7.600938   -5.736909   -1.761942
    100          1           0        5.893585   -5.865571   -2.297722
    101          1           0        6.633144   -6.934995   -1.057839
    102          1           0       -3.011798   -4.479644    0.159924
    103          1           0       -3.342257   -4.311188   -1.560222
    104          1           0       -3.114719   -2.364365    0.746093
    105          1           0       -5.188254   -1.415597   -2.642110
    106          1           0       -3.637629   -2.094630   -3.109455
    107          1           0       -3.921082   -0.396418   -2.993097
    108          1           0       -3.914995    0.724899   -0.907701
    109          1           0       -3.790176   -0.124426    0.670590
    110          1           0       -6.315634   -0.584930   -0.841306
    111          1           0       -6.120590    1.049411   -0.509690
    112          1           0       -5.727973    0.594094    1.836491
    113          1           0       -6.088021   -1.117792    1.751560
    114          1           0       -8.178758    0.941725    0.784579
    115          1           0       -7.352736    1.227764    3.216709
    116          1           0       -8.196617   -0.295023    3.475393
    117          1           0       -9.085413    1.161122    2.768261
    118          1           0       -8.935455   -1.651680    1.994206
    119          1           0       -8.116764   -1.867867    0.587100
    120          1           0       -9.807396   -1.321916   -0.776875
    121          1           0      -10.077987    0.239572   -0.041879
    122          1           0      -10.897969   -2.072853    1.654272
    123          1           0      -11.793793   -1.986297    0.119221
    124          1           0      -11.433553    0.552662    1.409789
    125          1           0      -13.496623   -0.072851    3.119296
    126          1           0      -11.734331   -0.239180    3.362907
    127          1           0      -12.739474   -1.683922    2.929353
    128          1           0      -14.172743   -0.642098    0.481208
    129          1           0      -13.021006    0.142129   -0.575474
    130          1           0      -13.421997    2.233296   -0.221577
    131          1           0      -13.148890    2.122089    1.507693
    132          1           0      -15.448500    2.539055    1.762712
    133          1           0      -15.577803    0.863054    1.249764
    134          1           0      -15.633957    1.596870   -1.136641
    135          1           0      -15.148705    4.044607    0.071959
    136          1           0      -16.873585    4.172316   -0.517229
    137          1           0      -15.507508    3.813131   -1.613087
    138          1           0      -17.749487    1.325310    0.905213
    139          1           0      -17.926807    0.969554   -0.883575
    140          1           0      -18.185101    2.541664   -0.149992
 ---------------------------------------------------------------------

 SCF Done:  E(RB-LYP) =  -3007.36710103     A.U. after   22 cycles

 Excitation energies and oscillator strengths:

 Excited State   1:      Singlet-A      1.5172 eV  817.17 nm  f=0.0000  <S**2>=0.000
     245 -> 247        0.70515
 This state for optimization and/or second-order correction.
 Total Energy, E(TD-HF/TD-DFT) =  -3007.31134331
 Copying the excited state density for this state as the 1-particle RhoCI density.

 Excited State   2:      Singlet-A      1.7899 eV  692.70 nm  f=0.0535  <S**2>=0.000
     243 -> 247        0.58088
     244 -> 247        0.26671
     246 -> 247        0.29074

 Excited State   3:      Singlet-A      1.8131 eV  683.83 nm  f=0.2663  <S**2>=0.000
     243 -> 247       -0.27251
     244 -> 247       -0.11557
     244 -> 248        0.17348
     246 -> 247        0.62691
     246 <- 247       -0.14110

 Excited State   4:      Singlet-A      2.0124 eV  616.11 nm  f=0.0703  <S**2>=0.000
     243 -> 247       -0.28766
     244 -> 247        0.58294
     246 -> 248       -0.23216

 Excited State   5:      Singlet-A      2.3032 eV  538.31 nm  f=0.0043  <S**2>=0.000
     241 -> 247        0.43403
     242 -> 247        0.55179

 The electronic state is 1-A.
 Alpha  occ. eigenvalues --  -46.29092 -18.82168 -18.81666 -18.76731 -18.76330
 Alpha  occ. eigenvalues --  -18.75439 -18.74285 -14.03965 -14.03898 -14.01461
 Alpha  occ. eigenvalues --  -14.00824 -10.03902 -10.03414  -9.99289  -9.98585
 Alpha  occ. eigenvalues --   -9.98090  -9.97796  -9.97569  -9.97395  -9.97386
 Alpha  occ. eigenvalues --   -9.96730  -9.96617  -9.95719  -9.95714  -9.95000
 Alpha  occ. eigenvalues --   -9.94637  -9.94601  -9.94558  -9.94451  -9.94428
 Alpha  occ. eigenvalues --   -9.94148  -9.94084  -9.93894  -9.93583  -9.93556
 Alpha  occ. eigenvalues --   -9.93437  -9.93395  -9.93278  -9.93207  -9.93159
 Alpha  occ. eigenvalues --   -9.93096  -9.92851  -9.92647  -9.92493  -9.92108
 Alpha  occ. eigenvalues --   -9.92107  -9.92031  -9.91859  -9.91817  -9.91658
 Alpha  occ. eigenvalues --   -9.91615  -9.91564  -9.91550  -9.91526  -9.91494
 Alpha  occ. eigenvalues --   -9.91440  -9.91416  -9.91184  -9.91137  -9.90823
 Alpha  occ. eigenvalues --   -9.90743  -9.90695  -9.90635  -9.90523  -9.90486
 Alpha  occ. eigenvalues --   -9.90481  -2.93357  -1.73789  -1.73226  -1.73079
 Alpha  occ. eigenvalues --   -0.99270  -0.96703  -0.91282  -0.91052  -0.90394
 Alpha  occ. eigenvalues --   -0.89004  -0.87275  -0.86137  -0.85740  -0.85073
 Alpha  occ. eigenvalues --   -0.75410  -0.73355  -0.72757  -0.72479  -0.72304
 Alpha  occ. eigenvalues --   -0.72016  -0.71658  -0.71553  -0.70414  -0.70309
 Alpha  occ. eigenvalues --   -0.69418  -0.68760  -0.68394  -0.67861  -0.67164
 Alpha  occ. eigenvalues --   -0.66462  -0.66106  -0.65174  -0.64933  -0.64631
 Alpha  occ. eigenvalues --   -0.63801  -0.63021  -0.62324  -0.61709  -0.61370
 Alpha  occ. eigenvalues --   -0.60309  -0.59977  -0.59962  -0.59199  -0.58501
 Alpha  occ. eigenvalues --   -0.58214  -0.57824  -0.57583  -0.55267  -0.54701
 Alpha  occ. eigenvalues --   -0.54259  -0.53224  -0.52909  -0.52204  -0.52185
 Alpha  occ. eigenvalues --   -0.51747  -0.51534  -0.51063  -0.50607  -0.50092
 Alpha  occ. eigenvalues --   -0.49513  -0.48875  -0.48608  -0.48389  -0.46457
 Alpha  occ. eigenvalues --   -0.46372  -0.46357  -0.45486  -0.45423  -0.44760
 Alpha  occ. eigenvalues --   -0.43704  -0.43619  -0.43204  -0.42883  -0.42211
 Alpha  occ. eigenvalues --   -0.42181  -0.41705  -0.41348  -0.41102  -0.40831
 Alpha  occ. eigenvalues --   -0.40782  -0.40634  -0.40481  -0.40345  -0.40112
 Alpha  occ. eigenvalues --   -0.40003  -0.39852  -0.39544  -0.39242  -0.39127
 Alpha  occ. eigenvalues --   -0.39009  -0.38913  -0.38711  -0.38561  -0.38349
 Alpha  occ. eigenvalues --   -0.37966  -0.37739  -0.37583  -0.37514  -0.37161
 Alpha  occ. eigenvalues --   -0.36998  -0.36815  -0.36495  -0.36355  -0.36183
 Alpha  occ. eigenvalues --   -0.36036  -0.35907  -0.35775  -0.35710  -0.35483
 Alpha  occ. eigenvalues --   -0.35254  -0.35200  -0.34918  -0.34830  -0.34736
 Alpha  occ. eigenvalues --   -0.34591  -0.34491  -0.34371  -0.34299  -0.34162
 Alpha  occ. eigenvalues --   -0.33957  -0.33882  -0.33725  -0.33282  -0.33269
 Alpha  occ. eigenvalues --   -0.33093  -0.33024  -0.32898  -0.32654  -0.32475
 Alpha  occ. eigenvalues --   -0.32329  -0.32327  -0.32000  -0.31845  -0.31592
 Alpha  occ. eigenvalues --   -0.31229  -0.31131  -0.30789  -0.30708  -0.30423
 Alpha  occ. eigenvalues --   -0.30291  -0.29965  -0.29879  -0.29872  -0.29811
 Alpha  occ. eigenvalues --   -0.29608  -0.29434  -0.29231  -0.29062  -0.29059
 Alpha  occ. eigenvalues --   -0.28543  -0.28507  -0.28314  -0.28226  -0.27752
 Alpha  occ. eigenvalues --   -0.27710  -0.27306  -0.27056  -0.26730  -0.26687
 Alpha  occ. eigenvalues --   -0.26258  -0.25996  -0.25728  -0.25669  -0.25373
 Alpha  occ. eigenvalues --   -0.25056  -0.24830  -0.24235  -0.24203  -0.23310
 Alpha  occ. eigenvalues --   -0.23005  -0.22712  -0.21954  -0.21474  -0.20937
 Alpha  occ. eigenvalues --   -0.20570  -0.20042  -0.18645  -0.17679  -0.17597
 Alpha  occ. eigenvalues --   -0.16299
 Alpha virt. eigenvalues --   -0.12084  -0.07376  -0.06137  -0.04564  -0.03773
 Alpha virt. eigenvalues --   -0.02864  -0.02354  -0.01963  -0.01439  -0.00345
 Alpha virt. eigenvalues --    0.01147   0.01488   0.02402   0.02432   0.02804

 Mulliken charges:
               1
     1  Mg   0.673466
     2  C    0.038368
     3  C   -0.061330
     4  C   -0.001794
     5  C   -0.043460
     6  N   -0.210707
     7  C   -0.104256
     8  C    0.008086
     9  C    0.005228
    10  C    0.040345
    11  C    0.135973
    12  C    0.097975
    13  C    0.144985
    14  C    0.088810
    15  O   -0.189095
    16  O   -0.284457
    17  N   -0.279577
    18  C    0.106067
    19  C   -0.144568
    20  C    0.051966
    21  C    0.058502
    22  C    0.202102
    23  C   -0.132979
    24  O   -0.172857
    25  C    0.173363
    26  N   -0.220612
    27  C    0.008974
    28  C    0.050746
    29  C    0.039138
    30  C    0.004545
    31  C    0.135737
    32  C    0.098445
    33  C    0.058547
    34  N   -0.192231
    35  C    0.017631
    36  C   -0.167643
    37  C    0.102688
    38  C    0.033487
    39  C    0.158662
    40  C   -0.079135
    41  O   -0.152453
    42  C    0.128511
    43  C    0.058443
    44  O   -0.141745
    45  O   -0.275780
    46  C    0.222938
    47  C    0.349501
    48  C   -0.134935
    49  C   -0.072655
    50  C    0.125447
    51  C    0.138185
    52  C    0.039909
    53  C    0.105236
    54  C   -0.086253
    55  C    0.106564
    56  C    0.132211
    57  C    0.076892
    58  C    0.092927
    59  C   -0.105979
    60  C    0.112907
    61  C    0.114329
    62  C    0.066509
    63  C    0.064149
    64  C   -0.126783
    65  C    0.140920
    66  C    0.108169
    67  H   -0.051610
    68  H   -0.089620
    69  H   -0.061614
    70  H   -0.016850
    71  H   -0.020995
    72  H   -0.013990
    73  H   -0.000819
    74  H   -0.002717
    75  H   -0.009727
    76  H   -0.013177
    77  H    0.005440
    78  H   -0.003883
    79  H    0.017574
    80  H   -0.011608
    81  H   -0.030512
    82  H    0.003589
    83  H    0.016519
    84  H   -0.013616
    85  H   -0.014057
    86  H   -0.017952
    87  H   -0.011153
    88  H   -0.006547
    89  H   -0.010220
    90  H   -0.012857
    91  H   -0.012813
    92  H   -0.002841
    93  H   -0.016183
    94  H   -0.010734
    95  H    0.013744
    96  H    0.005058
    97  H    0.013635
    98  H   -0.009562
    99  H    0.002365
   100  H    0.014769
   101  H    0.016557
   102  H   -0.027299
   103  H    0.008743
   104  H   -0.036368
   105  H   -0.014577
   106  H    0.002199
   107  H   -0.013915
   108  H   -0.023088
   109  H   -0.035014
   110  H   -0.040524
   111  H   -0.036231
   112  H   -0.035084
   113  H   -0.028164
   114  H   -0.042254
   115  H   -0.021833
   116  H   -0.018864
   117  H   -0.009666
   118  H   -0.040233
   119  H   -0.043370
   120  H   -0.035739
   121  H   -0.020149
   122  H   -0.035575
   123  H   -0.043069
   124  H   -0.032979
   125  H   -0.018262
   126  H   -0.014138
   127  H   -0.006085
   128  H   -0.013656
   129  H   -0.043536
   130  H   -0.028350
   131  H   -0.021842
   132  H   -0.032634
   133  H   -0.033363
   134  H   -0.038519
   135  H   -0.016473
   136  H   -0.011779
   137  H   -0.019438
   138  H   -0.016503
   139  H   -0.002290
   140  H   -0.039970
 Sum of Mulliken charges =  -0.00000

 Dipole moment (field-independent basis, Debye):
    X=              2.6350    Y=              3.4410    Z=              1.4026  Tot=              4.5553
 Quadrupole moment (field-independent basis, Debye-Ang):
   XX=           -357.7737   YY=           -437.0422   ZZ=           -409.5968
   XY=             20.5380   XZ=              5.1113   YZ=             36.3512

 Normal termination of Gaussian 16 at Fri Apr 29 05:34:39 2022.
