 Gaussian 16, Revision A.03,
 Gaussian 16:  ES64L-G16RevA.03 25-Dec-2016

 -----------------------------------
 #p cam-b3lyp/Def2SVP td=(nstates=5)
 -----------------------------------

 -----------------------------------------------------
 step_1_chromophore_14 TDDFT with cam-b3lyp functional
 -----------------------------------------------------
 Symbolic Z-matrix:
 Charge =  0 Multiplicity = 1

                         Standard orientation:
 ---------------------------------------------------------------------
 Center     Atomic      Atomic             Coordinates (Angstroms)
 Number     Number       Type             X           Y           Z
 ---------------------------------------------------------------------
      1         12           0        5.477650    0.876986   -0.315511
      2          6           0        4.634418   -2.514720    0.174056
      3          6           0        3.644363    0.844857   -3.282952
      4          6           0        5.453075    4.282790   -0.196033
      5          6           0        6.845799    0.800782    2.993903
      6          7           0        4.338526   -0.651898   -1.399682
      7          6           0        4.111014   -1.924086   -1.009685
      8          6           0        3.120259   -2.641517   -1.983277
      9          6           0        3.168591   -1.639281   -3.226617
     10          6           0        3.805801   -0.345693   -2.623552
     11          6           0        3.982602   -1.986765   -4.493642
     12          6           0        1.710630   -2.749040   -1.287855
     13          6           0        0.939382   -4.056933   -1.618414
     14          6           0       -0.616389   -3.890514   -1.858275
     15          8           0       -1.158194   -3.815262   -2.948862
     16          8           0       -1.298426   -3.959292   -0.672375
     17          7           0        4.823804    2.408524   -1.696763
     18          6           0        4.145531    2.136387   -2.855165
     19          6           0        3.946321    3.374521   -3.507498
     20          6           0        4.379899    4.426806   -2.647360
     21          6           0        4.974462    3.742024   -1.450906
     22          6           0        3.286991    3.546693   -4.855493
     23          6           0        4.141373    5.886976   -2.829694
     24          8           0        3.465749    6.320783   -3.748980
     25          6           0        4.605114    6.914917   -1.934647
     26          7           0        5.987629    2.328139    1.285087
     27          6           0        6.029980    3.693207    0.965045
     28          6           0        6.696637    4.469379    2.057482
     29          6           0        7.096733    3.388438    3.128661
     30          6           0        6.633874    2.100519    2.469681
     31          6           0        7.881332    5.244927    1.467324
     32          6           0        6.632801    3.743092    4.591545
     33          6           0        7.699354    3.814247    5.641972
     34          7           0        5.756750   -0.564614    1.308887
     35          6           0        6.370153   -0.428776    2.530044
     36          6           0        6.501153   -1.745805    3.191111
     37          6           0        5.757435   -2.552564    2.289511
     38          6           0        5.421568   -1.823063    1.164461
     39          6           0        7.074049   -2.091047    4.556752
     40          6           0        5.171703   -3.860036    2.156827
     41          8           0        5.177923   -4.818918    2.944459
     42          6           0        4.443776   -3.943403    0.815433
     43          6           0        4.945334   -5.067899    0.003611
     44          8           0        4.248306   -5.941314   -0.367714
     45          8           0        6.226463   -4.897746   -0.435409
     46          6           0        6.573082   -5.919287   -1.447248
     47          6           0       -2.800659   -3.873842   -0.720904
     48          6           0       -3.242635   -2.454140   -0.332989
     49          6           0       -3.848426   -1.448319   -0.997199
     50          6           0       -4.112653   -1.340006   -2.482640
     51          6           0       -4.230440   -0.141272   -0.325628
     52          6           0       -5.833779    0.073224   -0.118974
     53          6           0       -6.327349   -0.150339    1.311346
     54          6           0       -7.879010    0.093596    1.400575
     55          6           0       -8.157591    0.593713    2.845106
     56          6           0       -8.723576   -1.105807    1.074842
     57          6           0       -9.941131   -0.819029    0.180938
     58          6           0      -11.222841   -1.413007    0.850138
     59          6           0      -12.166743   -0.253946    1.386004
     60          6           0      -12.598763   -0.609685    2.812710
     61          6           0      -13.368866    0.093088    0.456531
     62          6           0      -13.699531    1.681569    0.676928
     63          6           0      -15.211025    1.846711    0.955147
     64          6           0      -16.058943    2.185097   -0.322334
     65          6           0      -15.911259    3.670062   -0.611479
     66          6           0      -17.558257    1.650778   -0.116749
     67          1           0        3.144705    0.852333   -4.254375
     68          1           0        5.496374    5.370704   -0.267724
     69          1           0        7.183147    0.591093    4.011654
     70          1           0        3.522053   -3.630213   -2.205642
     71          1           0        2.216815   -1.177783   -3.489254
     72          1           0        4.796313   -2.669529   -4.246443
     73          1           0        4.391089   -1.145420   -5.053536
     74          1           0        3.296694   -2.531204   -5.141778
     75          1           0        1.099140   -1.875398   -1.515316
     76          1           0        1.930906   -2.714597   -0.220856
     77          1           0        1.124318   -4.683288   -0.745553
     78          1           0        1.502286   -4.458130   -2.461486
     79          1           0        3.518456    4.466280   -5.393124
     80          1           0        2.223406    3.500754   -4.623012
     81          1           0        3.318080    2.688718   -5.527098
     82          1           0        5.694411    6.858779   -1.930035
     83          1           0        4.169835    6.799104   -0.941649
     84          1           0        4.283810    7.881041   -2.323948
     85          1           0        5.973531    5.096343    2.578598
     86          1           0        8.141970    3.081341    3.170566
     87          1           0        7.860211    5.301213    0.378712
     88          1           0        8.834035    4.777402    1.716076
     89          1           0        7.773069    6.304119    1.698865
     90          1           0        5.903463    2.971777    4.839039
     91          1           0        6.221226    4.746540    4.693857
     92          1           0        7.403377    3.138783    6.444170
     93          1           0        7.767111    4.807896    6.085273
     94          1           0        8.702298    3.649626    5.248022
     95          1           0        6.361905   -1.927205    5.365777
     96          1           0        8.022404   -1.593673    4.763938
     97          1           0        7.166966   -3.173585    4.470578
     98          1           0        3.403340   -4.220377    0.980440
     99          1           0        7.600938   -5.736909   -1.761942
    100          1           0        5.893585   -5.865571   -2.297722
    101          1           0        6.633144   -6.934995   -1.057839
    102          1           0       -3.011798   -4.479644    0.159924
    103          1           0       -3.342257   -4.311188   -1.560222
    104          1           0       -3.114719   -2.364365    0.746093
    105          1           0       -5.188254   -1.415597   -2.642110
    106          1           0       -3.637629   -2.094630   -3.109455
    107          1           0       -3.921082   -0.396418   -2.993097
    108          1           0       -3.914995    0.724899   -0.907701
    109          1           0       -3.790176   -0.124426    0.670590
    110          1           0       -6.315634   -0.584930   -0.841306
    111          1           0       -6.120590    1.049411   -0.509690
    112          1           0       -5.727973    0.594094    1.836491
    113          1           0       -6.088021   -1.117792    1.751560
    114          1           0       -8.178758    0.941725    0.784579
    115          1           0       -7.352736    1.227764    3.216709
    116          1           0       -8.196617   -0.295023    3.475393
    117          1           0       -9.085413    1.161122    2.768261
    118          1           0       -8.935455   -1.651680    1.994206
    119          1           0       -8.116764   -1.867867    0.587100
    120          1           0       -9.807396   -1.321916   -0.776875
    121          1           0      -10.077987    0.239572   -0.041879
    122          1           0      -10.897969   -2.072853    1.654272
    123          1           0      -11.793793   -1.986297    0.119221
    124          1           0      -11.433553    0.552662    1.409789
    125          1           0      -13.496623   -0.072851    3.119296
    126          1           0      -11.734331   -0.239180    3.362907
    127          1           0      -12.739474   -1.683922    2.929353
    128          1           0      -14.172743   -0.642098    0.481208
    129          1           0      -13.021006    0.142129   -0.575474
    130          1           0      -13.421997    2.233296   -0.221577
    131          1           0      -13.148890    2.122089    1.507693
    132          1           0      -15.448500    2.539055    1.762712
    133          1           0      -15.577803    0.863054    1.249764
    134          1           0      -15.633957    1.596870   -1.136641
    135          1           0      -15.148705    4.044607    0.071959
    136          1           0      -16.873585    4.172316   -0.517229
    137          1           0      -15.507508    3.813131   -1.613087
    138          1           0      -17.749487    1.325310    0.905213
    139          1           0      -17.926807    0.969554   -0.883575
    140          1           0      -18.185101    2.541664   -0.149992
 ---------------------------------------------------------------------

 SCF Done:  E(RCAM-B3LYP) =  -3007.15337799     A.U. after   19 cycles

 Excitation energies and oscillator strengths:

 Excited State   1:      Singlet-A      1.6803 eV  737.86 nm  f=0.3958  <S**2>=0.000
     245 -> 248       -0.17312
     246 -> 247        0.68696
     245 <- 248       -0.10663
 This state for optimization and/or second-order correction.
 Total Energy, E(TD-HF/TD-DFT) =  -3007.09162699
 Copying the excited state density for this state as the 1-particle RhoCI density.

 Excited State   2:      Singlet-A      2.2012 eV  563.26 nm  f=0.1128  <S**2>=0.000
     245 -> 247        0.64190
     246 -> 248        0.28143

 Excited State   3:      Singlet-A      3.1736 eV  390.67 nm  f=0.0039  <S**2>=0.000
     244 -> 247        0.67920

 Excited State   4:      Singlet-A      3.3631 eV  368.66 nm  f=0.0070  <S**2>=0.000
     239 -> 247        0.15858
     239 -> 249        0.10311
     240 -> 247        0.55851
     240 -> 249        0.31075
     240 -> 251       -0.11773

 Excited State   5:      Singlet-A      3.4027 eV  364.37 nm  f=0.0269  <S**2>=0.000
     241 -> 247        0.56136
     243 -> 247       -0.26496
     243 -> 251        0.10270
     246 -> 248       -0.25325

 The electronic state is 1-A.
 Alpha  occ. eigenvalues --  -46.90840 -19.25117 -19.24514 -19.19938 -19.19267
 Alpha  occ. eigenvalues --  -19.18844 -19.17332 -14.42979 -14.42710 -14.39910
 Alpha  occ. eigenvalues --  -14.39303 -10.39196 -10.38746 -10.34776 -10.33516
 Alpha  occ. eigenvalues --  -10.32258 -10.32249 -10.31984 -10.31873 -10.31809
 Alpha  occ. eigenvalues --  -10.31078 -10.30979 -10.30178 -10.29866 -10.29300
 Alpha  occ. eigenvalues --  -10.29141 -10.29082 -10.28926 -10.28521 -10.28473
 Alpha  occ. eigenvalues --  -10.28433 -10.28177 -10.28104 -10.27759 -10.27708
 Alpha  occ. eigenvalues --  -10.27529 -10.27480 -10.27319 -10.27286 -10.27042
 Alpha  occ. eigenvalues --  -10.26982 -10.26669 -10.26529 -10.26274 -10.25930
 Alpha  occ. eigenvalues --  -10.25831 -10.25765 -10.25553 -10.25551 -10.25447
 Alpha  occ. eigenvalues --  -10.25323 -10.25306 -10.25299 -10.25275 -10.25243
 Alpha  occ. eigenvalues --  -10.25238 -10.25084 -10.25076 -10.24799 -10.24405
 Alpha  occ. eigenvalues --  -10.24372 -10.24302 -10.24259 -10.24157 -10.24081
 Alpha  occ. eigenvalues --  -10.24032  -3.18987  -1.93901  -1.93423  -1.93283
 Alpha  occ. eigenvalues --   -1.17985  -1.15111  -1.09564  -1.09052  -1.08956
 Alpha  occ. eigenvalues --   -1.06808  -1.05115  -1.03759  -1.03442  -1.02544
 Alpha  occ. eigenvalues --   -0.92640  -0.90167  -0.89435  -0.89238  -0.89026
 Alpha  occ. eigenvalues --   -0.88734  -0.88339  -0.88144  -0.87016  -0.86963
 Alpha  occ. eigenvalues --   -0.85848  -0.85156  -0.84702  -0.84070  -0.83328
 Alpha  occ. eigenvalues --   -0.82624  -0.82098  -0.81167  -0.80721  -0.80452
 Alpha  occ. eigenvalues --   -0.79556  -0.78684  -0.77948  -0.77238  -0.76862
 Alpha  occ. eigenvalues --   -0.75606  -0.75336  -0.75228  -0.74451  -0.73681
 Alpha  occ. eigenvalues --   -0.73296  -0.72810  -0.72507  -0.70046  -0.69347
 Alpha  occ. eigenvalues --   -0.68929  -0.67743  -0.67354  -0.66534  -0.66361
 Alpha  occ. eigenvalues --   -0.65847  -0.65768  -0.65009  -0.64666  -0.64106
 Alpha  occ. eigenvalues --   -0.63314  -0.62583  -0.62465  -0.62272  -0.60089
 Alpha  occ. eigenvalues --   -0.60037  -0.59863  -0.59024  -0.58898  -0.58378
 Alpha  occ. eigenvalues --   -0.57087  -0.56973  -0.56510  -0.56074  -0.55443
 Alpha  occ. eigenvalues --   -0.55164  -0.54573  -0.54558  -0.54244  -0.53650
 Alpha  occ. eigenvalues --   -0.53419  -0.53325  -0.53227  -0.53160  -0.52811
 Alpha  occ. eigenvalues --   -0.52730  -0.52641  -0.52356  -0.51981  -0.51690
 Alpha  occ. eigenvalues --   -0.51521  -0.51460  -0.51410  -0.51065  -0.50869
 Alpha  occ. eigenvalues --   -0.50312  -0.50015  -0.49867  -0.49690  -0.49453
 Alpha  occ. eigenvalues --   -0.49239  -0.49118  -0.48854  -0.48629  -0.48481
 Alpha  occ. eigenvalues --   -0.48396  -0.48189  -0.48104  -0.47981  -0.47448
 Alpha  occ. eigenvalues --   -0.47281  -0.47171  -0.46962  -0.46787  -0.46681
 Alpha  occ. eigenvalues --   -0.46613  -0.46328  -0.46288  -0.46069  -0.46006
 Alpha  occ. eigenvalues --   -0.45755  -0.45627  -0.45363  -0.45091  -0.45066
 Alpha  occ. eigenvalues --   -0.44849  -0.44685  -0.44567  -0.44437  -0.44220
 Alpha  occ. eigenvalues --   -0.44012  -0.43752  -0.43620  -0.43376  -0.43025
 Alpha  occ. eigenvalues --   -0.42881  -0.42657  -0.42597  -0.42212  -0.41893
 Alpha  occ. eigenvalues --   -0.41716  -0.41424  -0.41257  -0.41128  -0.41059
 Alpha  occ. eigenvalues --   -0.40922  -0.40690  -0.40610  -0.40161  -0.40137
 Alpha  occ. eigenvalues --   -0.39564  -0.39538  -0.39353  -0.39174  -0.38702
 Alpha  occ. eigenvalues --   -0.38599  -0.38108  -0.37828  -0.37678  -0.37511
 Alpha  occ. eigenvalues --   -0.37292  -0.37125  -0.36988  -0.36436  -0.36315
 Alpha  occ. eigenvalues --   -0.36026  -0.35586  -0.34965  -0.34775  -0.34244
 Alpha  occ. eigenvalues --   -0.33506  -0.33396  -0.33234  -0.31503  -0.30980
 Alpha  occ. eigenvalues --   -0.30392  -0.30216  -0.30018  -0.29205  -0.24515
 Alpha  occ. eigenvalues --   -0.21581
 Alpha virt. eigenvalues --   -0.09387  -0.02268   0.00283   0.01212   0.02422
 Alpha virt. eigenvalues --    0.04569   0.05069   0.05498   0.06180   0.06638
 Alpha virt. eigenvalues --    0.07931   0.08265   0.08618   0.08756   0.08965

 Mulliken charges:
               1
     1  Mg   0.801536
     2  C    0.003385
     3  C   -0.070949
     4  C   -0.019987
     5  C   -0.048241
     6  N   -0.286448
     7  C   -0.053588
     8  C   -0.042414
     9  C   -0.050458
    10  C    0.056654
    11  C    0.079386
    12  C    0.052274
    13  C    0.076864
    14  C    0.168295
    15  O   -0.231400
    16  O   -0.349555
    17  N   -0.365352
    18  C    0.114219
    19  C   -0.149462
    20  C   -0.022548
    21  C    0.091215
    22  C    0.140350
    23  C   -0.050238
    24  O   -0.214531
    25  C    0.079060
    26  N   -0.287393
    27  C    0.025852
    28  C   -0.009816
    29  C   -0.012911
    30  C    0.028356
    31  C    0.074437
    32  C    0.039565
    33  C   -0.004057
    34  N   -0.281251
    35  C    0.026054
    36  C   -0.155163
    37  C    0.015137
    38  C    0.076167
    39  C    0.107444
    40  C    0.020317
    41  O   -0.190076
    42  C    0.051547
    43  C    0.149401
    44  O   -0.180285
    45  O   -0.336508
    46  C    0.181706
    47  C    0.311855
    48  C   -0.157041
    49  C   -0.094796
    50  C    0.062875
    51  C    0.076555
    52  C   -0.007190
    53  C    0.052414
    54  C   -0.147285
    55  C    0.054713
    56  C    0.074931
    57  C    0.020061
    58  C    0.041243
    59  C   -0.155516
    60  C    0.058139
    61  C    0.058133
    62  C    0.014629
    63  C    0.008485
    64  C   -0.181282
    65  C    0.078337
    66  C    0.048155
    67  H   -0.016355
    68  H   -0.053417
    69  H   -0.027343
    70  H    0.015044
    71  H    0.014250
    72  H    0.009490
    73  H    0.024778
    74  H    0.021604
    75  H    0.020994
    76  H    0.016902
    77  H    0.037091
    78  H    0.028299
    79  H    0.047097
    80  H    0.016160
    81  H   -0.004199
    82  H    0.030033
    83  H    0.043353
    84  H    0.024676
    85  H    0.021169
    86  H    0.015186
    87  H    0.014985
    88  H    0.018944
    89  H    0.014536
    90  H    0.016933
    91  H    0.015816
    92  H    0.020617
    93  H    0.008571
    94  H    0.012748
    95  H    0.041234
    96  H    0.029784
    97  H    0.041845
    98  H    0.032141
    99  H    0.027600
   100  H    0.036368
   101  H    0.039839
   102  H    0.005957
   103  H    0.039936
   104  H   -0.004916
   105  H    0.009776
   106  H    0.028874
   107  H    0.012723
   108  H    0.008172
   109  H   -0.004801
   110  H   -0.016481
   111  H   -0.006617
   112  H   -0.006481
   113  H   -0.001215
   114  H   -0.010488
   115  H    0.003685
   116  H    0.003332
   117  H    0.011220
   118  H   -0.012159
   119  H   -0.011796
   120  H   -0.004902
   121  H    0.005543
   122  H   -0.006152
   123  H   -0.012958
   124  H   -0.005717
   125  H    0.004734
   126  H    0.007601
   127  H    0.016803
   128  H    0.013235
   129  H   -0.013936
   130  H   -0.001007
   131  H    0.006139
   132  H   -0.003444
   133  H   -0.006449
   134  H   -0.007181
   135  H    0.007258
   136  H    0.011968
   137  H    0.005085
   138  H    0.008139
   139  H    0.021614
   140  H   -0.015874
 Sum of Mulliken charges =  -0.00000

 Dipole moment (field-independent basis, Debye):
    X=              2.9834    Y=              3.4929    Z=              1.6880  Tot=              4.8939
 Quadrupole moment (field-independent basis, Debye-Ang):
   XX=           -354.7913   YY=           -434.3899   ZZ=           -408.1651
   XY=             21.2798   XZ=              7.0531   YZ=             37.4732

 Normal termination of Gaussian 16 at Fri Apr 29 04:38:31 2022.
