 Gaussian 16, Revision A.03,
 Gaussian 16:  ES64L-G16RevA.03 25-Dec-2016

 ---------------------------------
 #p PBE1PBE/Def2SVP td=(nstates=5)
 ---------------------------------

 ---------------------------------------------------
 step_1_chromophore_14 TDDFT with PBE1PBE functional
 ---------------------------------------------------
 Symbolic Z-matrix:
 Charge =  0 Multiplicity = 1

                         Standard orientation:
 ---------------------------------------------------------------------
 Center     Atomic      Atomic             Coordinates (Angstroms)
 Number     Number       Type             X           Y           Z
 ---------------------------------------------------------------------
      1         12           0        5.477650    0.876986   -0.315511
      2          6           0        4.634418   -2.514720    0.174056
      3          6           0        3.644363    0.844857   -3.282952
      4          6           0        5.453075    4.282790   -0.196033
      5          6           0        6.845799    0.800782    2.993903
      6          7           0        4.338526   -0.651898   -1.399682
      7          6           0        4.111014   -1.924086   -1.009685
      8          6           0        3.120259   -2.641517   -1.983277
      9          6           0        3.168591   -1.639281   -3.226617
     10          6           0        3.805801   -0.345693   -2.623552
     11          6           0        3.982602   -1.986765   -4.493642
     12          6           0        1.710630   -2.749040   -1.287855
     13          6           0        0.939382   -4.056933   -1.618414
     14          6           0       -0.616389   -3.890514   -1.858275
     15          8           0       -1.158194   -3.815262   -2.948862
     16          8           0       -1.298426   -3.959292   -0.672375
     17          7           0        4.823804    2.408524   -1.696763
     18          6           0        4.145531    2.136387   -2.855165
     19          6           0        3.946321    3.374521   -3.507498
     20          6           0        4.379899    4.426806   -2.647360
     21          6           0        4.974462    3.742024   -1.450906
     22          6           0        3.286991    3.546693   -4.855493
     23          6           0        4.141373    5.886976   -2.829694
     24          8           0        3.465749    6.320783   -3.748980
     25          6           0        4.605114    6.914917   -1.934647
     26          7           0        5.987629    2.328139    1.285087
     27          6           0        6.029980    3.693207    0.965045
     28          6           0        6.696637    4.469379    2.057482
     29          6           0        7.096733    3.388438    3.128661
     30          6           0        6.633874    2.100519    2.469681
     31          6           0        7.881332    5.244927    1.467324
     32          6           0        6.632801    3.743092    4.591545
     33          6           0        7.699354    3.814247    5.641972
     34          7           0        5.756750   -0.564614    1.308887
     35          6           0        6.370153   -0.428776    2.530044
     36          6           0        6.501153   -1.745805    3.191111
     37          6           0        5.757435   -2.552564    2.289511
     38          6           0        5.421568   -1.823063    1.164461
     39          6           0        7.074049   -2.091047    4.556752
     40          6           0        5.171703   -3.860036    2.156827
     41          8           0        5.177923   -4.818918    2.944459
     42          6           0        4.443776   -3.943403    0.815433
     43          6           0        4.945334   -5.067899    0.003611
     44          8           0        4.248306   -5.941314   -0.367714
     45          8           0        6.226463   -4.897746   -0.435409
     46          6           0        6.573082   -5.919287   -1.447248
     47          6           0       -2.800659   -3.873842   -0.720904
     48          6           0       -3.242635   -2.454140   -0.332989
     49          6           0       -3.848426   -1.448319   -0.997199
     50          6           0       -4.112653   -1.340006   -2.482640
     51          6           0       -4.230440   -0.141272   -0.325628
     52          6           0       -5.833779    0.073224   -0.118974
     53          6           0       -6.327349   -0.150339    1.311346
     54          6           0       -7.879010    0.093596    1.400575
     55          6           0       -8.157591    0.593713    2.845106
     56          6           0       -8.723576   -1.105807    1.074842
     57          6           0       -9.941131   -0.819029    0.180938
     58          6           0      -11.222841   -1.413007    0.850138
     59          6           0      -12.166743   -0.253946    1.386004
     60          6           0      -12.598763   -0.609685    2.812710
     61          6           0      -13.368866    0.093088    0.456531
     62          6           0      -13.699531    1.681569    0.676928
     63          6           0      -15.211025    1.846711    0.955147
     64          6           0      -16.058943    2.185097   -0.322334
     65          6           0      -15.911259    3.670062   -0.611479
     66          6           0      -17.558257    1.650778   -0.116749
     67          1           0        3.144705    0.852333   -4.254375
     68          1           0        5.496374    5.370704   -0.267724
     69          1           0        7.183147    0.591093    4.011654
     70          1           0        3.522053   -3.630213   -2.205642
     71          1           0        2.216815   -1.177783   -3.489254
     72          1           0        4.796313   -2.669529   -4.246443
     73          1           0        4.391089   -1.145420   -5.053536
     74          1           0        3.296694   -2.531204   -5.141778
     75          1           0        1.099140   -1.875398   -1.515316
     76          1           0        1.930906   -2.714597   -0.220856
     77          1           0        1.124318   -4.683288   -0.745553
     78          1           0        1.502286   -4.458130   -2.461486
     79          1           0        3.518456    4.466280   -5.393124
     80          1           0        2.223406    3.500754   -4.623012
     81          1           0        3.318080    2.688718   -5.527098
     82          1           0        5.694411    6.858779   -1.930035
     83          1           0        4.169835    6.799104   -0.941649
     84          1           0        4.283810    7.881041   -2.323948
     85          1           0        5.973531    5.096343    2.578598
     86          1           0        8.141970    3.081341    3.170566
     87          1           0        7.860211    5.301213    0.378712
     88          1           0        8.834035    4.777402    1.716076
     89          1           0        7.773069    6.304119    1.698865
     90          1           0        5.903463    2.971777    4.839039
     91          1           0        6.221226    4.746540    4.693857
     92          1           0        7.403377    3.138783    6.444170
     93          1           0        7.767111    4.807896    6.085273
     94          1           0        8.702298    3.649626    5.248022
     95          1           0        6.361905   -1.927205    5.365777
     96          1           0        8.022404   -1.593673    4.763938
     97          1           0        7.166966   -3.173585    4.470578
     98          1           0        3.403340   -4.220377    0.980440
     99          1           0        7.600938   -5.736909   -1.761942
    100          1           0        5.893585   -5.865571   -2.297722
    101          1           0        6.633144   -6.934995   -1.057839
    102          1           0       -3.011798   -4.479644    0.159924
    103          1           0       -3.342257   -4.311188   -1.560222
    104          1           0       -3.114719   -2.364365    0.746093
    105          1           0       -5.188254   -1.415597   -2.642110
    106          1           0       -3.637629   -2.094630   -3.109455
    107          1           0       -3.921082   -0.396418   -2.993097
    108          1           0       -3.914995    0.724899   -0.907701
    109          1           0       -3.790176   -0.124426    0.670590
    110          1           0       -6.315634   -0.584930   -0.841306
    111          1           0       -6.120590    1.049411   -0.509690
    112          1           0       -5.727973    0.594094    1.836491
    113          1           0       -6.088021   -1.117792    1.751560
    114          1           0       -8.178758    0.941725    0.784579
    115          1           0       -7.352736    1.227764    3.216709
    116          1           0       -8.196617   -0.295023    3.475393
    117          1           0       -9.085413    1.161122    2.768261
    118          1           0       -8.935455   -1.651680    1.994206
    119          1           0       -8.116764   -1.867867    0.587100
    120          1           0       -9.807396   -1.321916   -0.776875
    121          1           0      -10.077987    0.239572   -0.041879
    122          1           0      -10.897969   -2.072853    1.654272
    123          1           0      -11.793793   -1.986297    0.119221
    124          1           0      -11.433553    0.552662    1.409789
    125          1           0      -13.496623   -0.072851    3.119296
    126          1           0      -11.734331   -0.239180    3.362907
    127          1           0      -12.739474   -1.683922    2.929353
    128          1           0      -14.172743   -0.642098    0.481208
    129          1           0      -13.021006    0.142129   -0.575474
    130          1           0      -13.421997    2.233296   -0.221577
    131          1           0      -13.148890    2.122089    1.507693
    132          1           0      -15.448500    2.539055    1.762712
    133          1           0      -15.577803    0.863054    1.249764
    134          1           0      -15.633957    1.596870   -1.136641
    135          1           0      -15.148705    4.044607    0.071959
    136          1           0      -16.873585    4.172316   -0.517229
    137          1           0      -15.507508    3.813131   -1.613087
    138          1           0      -17.749487    1.325310    0.905213
    139          1           0      -17.926807    0.969554   -0.883575
    140          1           0      -18.185101    2.541664   -0.149992
 ---------------------------------------------------------------------

 SCF Done:  E(RPBE1PBE) =  -3005.34286422     A.U. after   15 cycles

 Excitation energies and oscillator strengths:

 Excited State   1:      Singlet-A      1.8471 eV  671.25 nm  f=0.3806  <S**2>=0.000
     245 -> 248       -0.16879
     246 -> 247        0.69415
     246 <- 247       -0.11296
 This state for optimization and/or second-order correction.
 Total Energy, E(TD-HF/TD-DFT) =  -3005.27498559
 Copying the excited state density for this state as the 1-particle RhoCI density.

 Excited State   2:      Singlet-A      2.2116 eV  560.60 nm  f=0.1076  <S**2>=0.000
     245 -> 247        0.65190
     246 -> 248        0.25475

 Excited State   3:      Singlet-A      2.7157 eV  456.54 nm  f=0.0020  <S**2>=0.000
     244 -> 247        0.68713

 Excited State   4:      Singlet-A      2.8460 eV  435.64 nm  f=0.0042  <S**2>=0.000
     241 -> 247       -0.18268
     243 -> 247        0.66508

 Excited State   5:      Singlet-A      2.8619 eV  433.23 nm  f=0.0003  <S**2>=0.000
     241 -> 247        0.63620
     241 -> 249        0.16294
     243 -> 247        0.19527

 The electronic state is 1-A.
 Alpha  occ. eigenvalues --  -46.94181 -19.25697 -19.25222 -19.20113 -19.19542
 Alpha  occ. eigenvalues --  -19.18970 -19.17620 -14.42408 -14.42286 -14.39573
 Alpha  occ. eigenvalues --  -14.38869 -10.36243 -10.35706 -10.31818 -10.30685
 Alpha  occ. eigenvalues --  -10.29916 -10.29667 -10.29642 -10.29640 -10.28998
 Alpha  occ. eigenvalues --  -10.28892 -10.28769 -10.27780 -10.27660 -10.26948
 Alpha  occ. eigenvalues --  -10.26844 -10.26830 -10.26607 -10.26286 -10.26263
 Alpha  occ. eigenvalues --  -10.26101 -10.25953 -10.25810 -10.25554 -10.25352
 Alpha  occ. eigenvalues --  -10.25281 -10.24970 -10.24912 -10.24771 -10.24580
 Alpha  occ. eigenvalues --  -10.24504 -10.24368 -10.24031 -10.23773 -10.23480
 Alpha  occ. eigenvalues --  -10.23421 -10.23229 -10.23159 -10.23136 -10.23045
 Alpha  occ. eigenvalues --  -10.23030 -10.23014 -10.22858 -10.22843 -10.22783
 Alpha  occ. eigenvalues --  -10.22653 -10.22647 -10.22485 -10.22373 -10.21969
 Alpha  occ. eigenvalues --  -10.21901 -10.21789 -10.21733 -10.21678 -10.21451
 Alpha  occ. eigenvalues --  -10.21404  -3.15920  -1.88771  -1.88273  -1.88135
 Alpha  occ. eigenvalues --   -1.12714  -1.09920  -1.04359  -1.03858  -1.03578
 Alpha  occ. eigenvalues --   -1.01685  -0.99720  -0.98387  -0.98014  -0.97254
 Alpha  occ. eigenvalues --   -0.86927  -0.84264  -0.83700  -0.83370  -0.83334
 Alpha  occ. eigenvalues --   -0.82923  -0.82484  -0.82434  -0.81256  -0.81069
 Alpha  occ. eigenvalues --   -0.80214  -0.79420  -0.78962  -0.78273  -0.77531
 Alpha  occ. eigenvalues --   -0.76872  -0.76294  -0.75426  -0.75033  -0.74671
 Alpha  occ. eigenvalues --   -0.73706  -0.72996  -0.72194  -0.71536  -0.71142
 Alpha  occ. eigenvalues --   -0.69962  -0.69419  -0.69412  -0.68573  -0.67869
 Alpha  occ. eigenvalues --   -0.67704  -0.67127  -0.66950  -0.64363  -0.63676
 Alpha  occ. eigenvalues --   -0.63360  -0.61971  -0.61805  -0.60762  -0.60760
 Alpha  occ. eigenvalues --   -0.60330  -0.59979  -0.59597  -0.59219  -0.58234
 Alpha  occ. eigenvalues --   -0.57811  -0.57075  -0.56700  -0.56439  -0.54663
 Alpha  occ. eigenvalues --   -0.54544  -0.54198  -0.53593  -0.53484  -0.52904
 Alpha  occ. eigenvalues --   -0.51657  -0.51393  -0.50992  -0.50595  -0.50022
 Alpha  occ. eigenvalues --   -0.49635  -0.49101  -0.48996  -0.48680  -0.48282
 Alpha  occ. eigenvalues --   -0.48028  -0.47800  -0.47778  -0.47683  -0.47269
 Alpha  occ. eigenvalues --   -0.47211  -0.47060  -0.46867  -0.46572  -0.46144
 Alpha  occ. eigenvalues --   -0.46099  -0.45955  -0.45924  -0.45678  -0.45489
 Alpha  occ. eigenvalues --   -0.44850  -0.44659  -0.44504  -0.44215  -0.44076
 Alpha  occ. eigenvalues --   -0.43853  -0.43750  -0.43434  -0.43235  -0.43085
 Alpha  occ. eigenvalues --   -0.43041  -0.42723  -0.42666  -0.42535  -0.42050
 Alpha  occ. eigenvalues --   -0.41924  -0.41838  -0.41638  -0.41547  -0.41403
 Alpha  occ. eigenvalues --   -0.41283  -0.41020  -0.40888  -0.40770  -0.40725
 Alpha  occ. eigenvalues --   -0.40479  -0.40211  -0.40033  -0.39847  -0.39768
 Alpha  occ. eigenvalues --   -0.39499  -0.39466  -0.39267  -0.39157  -0.39036
 Alpha  occ. eigenvalues --   -0.38815  -0.38467  -0.38419  -0.38236  -0.37863
 Alpha  occ. eigenvalues --   -0.37654  -0.37491  -0.37388  -0.36985  -0.36662
 Alpha  occ. eigenvalues --   -0.36524  -0.36221  -0.36108  -0.35966  -0.35827
 Alpha  occ. eigenvalues --   -0.35737  -0.35477  -0.35319  -0.35012  -0.34908
 Alpha  occ. eigenvalues --   -0.34444  -0.34383  -0.34227  -0.33954  -0.33652
 Alpha  occ. eigenvalues --   -0.33400  -0.32906  -0.32698  -0.32590  -0.32311
 Alpha  occ. eigenvalues --   -0.32291  -0.32123  -0.31808  -0.31457  -0.31201
 Alpha  occ. eigenvalues --   -0.30964  -0.30441  -0.29827  -0.29751  -0.29423
 Alpha  occ. eigenvalues --   -0.29045  -0.28296  -0.28201  -0.27123  -0.25964
 Alpha  occ. eigenvalues --   -0.25701  -0.25569  -0.25043  -0.24596  -0.21438
 Alpha  occ. eigenvalues --   -0.19239
 Alpha virt. eigenvalues --   -0.11770  -0.05755  -0.03892  -0.01996  -0.01517
 Alpha virt. eigenvalues --    0.00130   0.00757   0.01143   0.01608   0.02591
 Alpha virt. eigenvalues --    0.04121   0.04302   0.05253   0.05364   0.05669

 Mulliken charges:
               1
     1  Mg   0.934252
     2  C   -0.003178
     3  C   -0.055122
     4  C   -0.022414
     5  C   -0.041553
     6  N   -0.392933
     7  C    0.013708
     8  C   -0.115899
     9  C   -0.123778
    10  C    0.088184
    11  C    0.022616
    12  C    0.010363
    13  C   -0.002701
    14  C    0.235204
    15  O   -0.265003
    16  O   -0.377595
    17  N   -0.481774
    18  C    0.144800
    19  C   -0.176085
    20  C   -0.080832
    21  C    0.140022
    22  C    0.082793
    23  C    0.002718
    24  O   -0.250065
    25  C   -0.002391
    26  N   -0.384374
    27  C    0.059043
    28  C   -0.098499
    29  C   -0.076362
    30  C    0.068311
    31  C    0.019664
    32  C   -0.023016
    33  C   -0.073810
    34  N   -0.405680
    35  C    0.042968
    36  C   -0.157788
    37  C   -0.046271
    38  C    0.137131
    39  C    0.050229
    40  C    0.113844
    41  O   -0.237403
    42  C   -0.061793
    43  C    0.246876
    44  O   -0.218014
    45  O   -0.366525
    46  C    0.123189
    47  C    0.262499
    48  C   -0.170739
    49  C   -0.137133
    50  C    0.007712
    51  C    0.011022
    52  C   -0.064910
    53  C   -0.005320
    54  C   -0.238483
    55  C   -0.006323
    56  C    0.030705
    57  C   -0.045957
    58  C   -0.009452
    59  C   -0.243897
    60  C   -0.003543
    61  C    0.001546
    62  C   -0.042288
    63  C   -0.055782
    64  C   -0.267262
    65  C    0.017295
    66  C   -0.013149
    67  H    0.013778
    68  H   -0.017979
    69  H    0.005372
    70  H    0.054221
    71  H    0.050025
    72  H    0.038264
    73  H    0.051570
    74  H    0.050319
    75  H    0.052388
    76  H    0.052076
    77  H    0.069689
    78  H    0.060621
    79  H    0.073860
    80  H    0.046453
    81  H    0.024024
    82  H    0.057564
    83  H    0.069503
    84  H    0.053412
    85  H    0.057740
    86  H    0.052248
    87  H    0.043322
    88  H    0.046346
    89  H    0.041961
    90  H    0.050139
    91  H    0.046891
    92  H    0.047745
    93  H    0.036136
    94  H    0.039398
    95  H    0.068098
    96  H    0.055203
    97  H    0.069798
    98  H    0.070140
    99  H    0.050065
   100  H    0.058307
   101  H    0.062099
   102  H    0.034511
   103  H    0.064899
   104  H    0.024337
   105  H    0.037624
   106  H    0.056549
   107  H    0.038847
   108  H    0.040979
   109  H    0.027451
   110  H    0.017961
   111  H    0.025260
   112  H    0.026457
   113  H    0.030857
   114  H    0.027207
   115  H    0.031908
   116  H    0.031042
   117  H    0.040558
   118  H    0.017528
   119  H    0.021171
   120  H    0.028650
   121  H    0.035406
   122  H    0.026152
   123  H    0.020356
   124  H    0.035161
   125  H    0.033657
   126  H    0.037014
   127  H    0.043912
   128  H    0.042352
   129  H    0.020752
   130  H    0.031173
   131  H    0.037232
   132  H    0.029193
   133  H    0.027973
   134  H    0.031651
   135  H    0.035202
   136  H    0.038541
   137  H    0.032752
   138  H    0.034760
   139  H    0.048385
   140  H    0.012188
 Sum of Mulliken charges =  -0.00000

 Dipole moment (field-independent basis, Debye):
    X=              2.8872    Y=              3.6969    Z=              1.5328  Tot=              4.9349
 Quadrupole moment (field-independent basis, Debye-Ang):
   XX=           -352.1958   YY=           -431.2188   ZZ=           -403.8329
   XY=             22.5814   XZ=              7.2334   YZ=             37.9600

 Normal termination of Gaussian 16 at Fri Apr 29 04:54:17 2022.
