 Gaussian 16, Revision A.03,
 Gaussian 16:  ES64L-G16RevA.03 25-Dec-2016

 --------------------------------
 #p wB97XD/Def2SVP td=(nstates=5)
 --------------------------------

 --------------------------------------------------
 step_1_chromophore_14 TDDFT with wB97XD functional
 --------------------------------------------------
 Symbolic Z-matrix:
 Charge =  0 Multiplicity = 1

                         Standard orientation:
 ---------------------------------------------------------------------
 Center     Atomic      Atomic             Coordinates (Angstroms)
 Number     Number       Type             X           Y           Z
 ---------------------------------------------------------------------
      1         12           0        5.477650    0.876986   -0.315511
      2          6           0        4.634418   -2.514720    0.174056
      3          6           0        3.644363    0.844857   -3.282952
      4          6           0        5.453075    4.282790   -0.196033
      5          6           0        6.845799    0.800782    2.993903
      6          7           0        4.338526   -0.651898   -1.399682
      7          6           0        4.111014   -1.924086   -1.009685
      8          6           0        3.120259   -2.641517   -1.983277
      9          6           0        3.168591   -1.639281   -3.226617
     10          6           0        3.805801   -0.345693   -2.623552
     11          6           0        3.982602   -1.986765   -4.493642
     12          6           0        1.710630   -2.749040   -1.287855
     13          6           0        0.939382   -4.056933   -1.618414
     14          6           0       -0.616389   -3.890514   -1.858275
     15          8           0       -1.158194   -3.815262   -2.948862
     16          8           0       -1.298426   -3.959292   -0.672375
     17          7           0        4.823804    2.408524   -1.696763
     18          6           0        4.145531    2.136387   -2.855165
     19          6           0        3.946321    3.374521   -3.507498
     20          6           0        4.379899    4.426806   -2.647360
     21          6           0        4.974462    3.742024   -1.450906
     22          6           0        3.286991    3.546693   -4.855493
     23          6           0        4.141373    5.886976   -2.829694
     24          8           0        3.465749    6.320783   -3.748980
     25          6           0        4.605114    6.914917   -1.934647
     26          7           0        5.987629    2.328139    1.285087
     27          6           0        6.029980    3.693207    0.965045
     28          6           0        6.696637    4.469379    2.057482
     29          6           0        7.096733    3.388438    3.128661
     30          6           0        6.633874    2.100519    2.469681
     31          6           0        7.881332    5.244927    1.467324
     32          6           0        6.632801    3.743092    4.591545
     33          6           0        7.699354    3.814247    5.641972
     34          7           0        5.756750   -0.564614    1.308887
     35          6           0        6.370153   -0.428776    2.530044
     36          6           0        6.501153   -1.745805    3.191111
     37          6           0        5.757435   -2.552564    2.289511
     38          6           0        5.421568   -1.823063    1.164461
     39          6           0        7.074049   -2.091047    4.556752
     40          6           0        5.171703   -3.860036    2.156827
     41          8           0        5.177923   -4.818918    2.944459
     42          6           0        4.443776   -3.943403    0.815433
     43          6           0        4.945334   -5.067899    0.003611
     44          8           0        4.248306   -5.941314   -0.367714
     45          8           0        6.226463   -4.897746   -0.435409
     46          6           0        6.573082   -5.919287   -1.447248
     47          6           0       -2.800659   -3.873842   -0.720904
     48          6           0       -3.242635   -2.454140   -0.332989
     49          6           0       -3.848426   -1.448319   -0.997199
     50          6           0       -4.112653   -1.340006   -2.482640
     51          6           0       -4.230440   -0.141272   -0.325628
     52          6           0       -5.833779    0.073224   -0.118974
     53          6           0       -6.327349   -0.150339    1.311346
     54          6           0       -7.879010    0.093596    1.400575
     55          6           0       -8.157591    0.593713    2.845106
     56          6           0       -8.723576   -1.105807    1.074842
     57          6           0       -9.941131   -0.819029    0.180938
     58          6           0      -11.222841   -1.413007    0.850138
     59          6           0      -12.166743   -0.253946    1.386004
     60          6           0      -12.598763   -0.609685    2.812710
     61          6           0      -13.368866    0.093088    0.456531
     62          6           0      -13.699531    1.681569    0.676928
     63          6           0      -15.211025    1.846711    0.955147
     64          6           0      -16.058943    2.185097   -0.322334
     65          6           0      -15.911259    3.670062   -0.611479
     66          6           0      -17.558257    1.650778   -0.116749
     67          1           0        3.144705    0.852333   -4.254375
     68          1           0        5.496374    5.370704   -0.267724
     69          1           0        7.183147    0.591093    4.011654
     70          1           0        3.522053   -3.630213   -2.205642
     71          1           0        2.216815   -1.177783   -3.489254
     72          1           0        4.796313   -2.669529   -4.246443
     73          1           0        4.391089   -1.145420   -5.053536
     74          1           0        3.296694   -2.531204   -5.141778
     75          1           0        1.099140   -1.875398   -1.515316
     76          1           0        1.930906   -2.714597   -0.220856
     77          1           0        1.124318   -4.683288   -0.745553
     78          1           0        1.502286   -4.458130   -2.461486
     79          1           0        3.518456    4.466280   -5.393124
     80          1           0        2.223406    3.500754   -4.623012
     81          1           0        3.318080    2.688718   -5.527098
     82          1           0        5.694411    6.858779   -1.930035
     83          1           0        4.169835    6.799104   -0.941649
     84          1           0        4.283810    7.881041   -2.323948
     85          1           0        5.973531    5.096343    2.578598
     86          1           0        8.141970    3.081341    3.170566
     87          1           0        7.860211    5.301213    0.378712
     88          1           0        8.834035    4.777402    1.716076
     89          1           0        7.773069    6.304119    1.698865
     90          1           0        5.903463    2.971777    4.839039
     91          1           0        6.221226    4.746540    4.693857
     92          1           0        7.403377    3.138783    6.444170
     93          1           0        7.767111    4.807896    6.085273
     94          1           0        8.702298    3.649626    5.248022
     95          1           0        6.361905   -1.927205    5.365777
     96          1           0        8.022404   -1.593673    4.763938
     97          1           0        7.166966   -3.173585    4.470578
     98          1           0        3.403340   -4.220377    0.980440
     99          1           0        7.600938   -5.736909   -1.761942
    100          1           0        5.893585   -5.865571   -2.297722
    101          1           0        6.633144   -6.934995   -1.057839
    102          1           0       -3.011798   -4.479644    0.159924
    103          1           0       -3.342257   -4.311188   -1.560222
    104          1           0       -3.114719   -2.364365    0.746093
    105          1           0       -5.188254   -1.415597   -2.642110
    106          1           0       -3.637629   -2.094630   -3.109455
    107          1           0       -3.921082   -0.396418   -2.993097
    108          1           0       -3.914995    0.724899   -0.907701
    109          1           0       -3.790176   -0.124426    0.670590
    110          1           0       -6.315634   -0.584930   -0.841306
    111          1           0       -6.120590    1.049411   -0.509690
    112          1           0       -5.727973    0.594094    1.836491
    113          1           0       -6.088021   -1.117792    1.751560
    114          1           0       -8.178758    0.941725    0.784579
    115          1           0       -7.352736    1.227764    3.216709
    116          1           0       -8.196617   -0.295023    3.475393
    117          1           0       -9.085413    1.161122    2.768261
    118          1           0       -8.935455   -1.651680    1.994206
    119          1           0       -8.116764   -1.867867    0.587100
    120          1           0       -9.807396   -1.321916   -0.776875
    121          1           0      -10.077987    0.239572   -0.041879
    122          1           0      -10.897969   -2.072853    1.654272
    123          1           0      -11.793793   -1.986297    0.119221
    124          1           0      -11.433553    0.552662    1.409789
    125          1           0      -13.496623   -0.072851    3.119296
    126          1           0      -11.734331   -0.239180    3.362907
    127          1           0      -12.739474   -1.683922    2.929353
    128          1           0      -14.172743   -0.642098    0.481208
    129          1           0      -13.021006    0.142129   -0.575474
    130          1           0      -13.421997    2.233296   -0.221577
    131          1           0      -13.148890    2.122089    1.507693
    132          1           0      -15.448500    2.539055    1.762712
    133          1           0      -15.577803    0.863054    1.249764
    134          1           0      -15.633957    1.596870   -1.136641
    135          1           0      -15.148705    4.044607    0.071959
    136          1           0      -16.873585    4.172316   -0.517229
    137          1           0      -15.507508    3.813131   -1.613087
    138          1           0      -17.749487    1.325310    0.905213
    139          1           0      -17.926807    0.969554   -0.883575
    140          1           0      -18.185101    2.541664   -0.149992
 ---------------------------------------------------------------------

 SCF Done:  E(RwB97XD) =  -3007.84960421     A.U. after   19 cycles

 Excitation energies and oscillator strengths:

 Excited State   1:      Singlet-A      1.6189 eV  765.83 nm  f=0.3948  <S**2>=0.000
     245 -> 248       -0.17909
     246 -> 247        0.68462
     245 <- 248       -0.11652
 This state for optimization and/or second-order correction.
 Total Energy, E(TD-HF/TD-DFT) =  -3007.79010900
 Copying the excited state density for this state as the 1-particle RhoCI density.

 Excited State   2:      Singlet-A      2.1446 eV  578.11 nm  f=0.1094  <S**2>=0.000
     245 -> 247        0.63980
     246 -> 248        0.28474

 Excited State   3:      Singlet-A      3.2184 eV  385.23 nm  f=0.0033  <S**2>=0.000
     241 -> 247       -0.13109
     243 -> 247        0.11472
     244 -> 247        0.65689
     244 -> 249       -0.10373

 Excited State   4:      Singlet-A      3.3832 eV  366.47 nm  f=0.0085  <S**2>=0.000
     239 -> 247        0.10707
     240 -> 247        0.55614
     240 -> 249        0.33952
     240 -> 251       -0.12254

 Excited State   5:      Singlet-A      3.4216 eV  362.36 nm  f=0.0492  <S**2>=0.000
     241 -> 247        0.57362
     243 -> 247       -0.16302
     244 -> 247        0.10340
     246 -> 248       -0.30139

 The electronic state is 1-A.
 Alpha  occ. eigenvalues --  -46.97155 -19.30340 -19.29768 -19.24862 -19.24208
 Alpha  occ. eigenvalues --  -19.23937 -19.22312 -14.47599 -14.47272 -14.44476
 Alpha  occ. eigenvalues --  -14.43888 -10.43021 -10.42574 -10.38819 -10.37410
 Alpha  occ. eigenvalues --  -10.36298 -10.36158 -10.36000 -10.35888 -10.35555
 Alpha  occ. eigenvalues --  -10.35102 -10.34983 -10.34225 -10.33864 -10.33503
 Alpha  occ. eigenvalues --  -10.33211 -10.33102 -10.33073 -10.32584 -10.32501
 Alpha  occ. eigenvalues --  -10.32491 -10.32276 -10.32138 -10.31845 -10.31708
 Alpha  occ. eigenvalues --  -10.31551 -10.31543 -10.31271 -10.31186 -10.30964
 Alpha  occ. eigenvalues --  -10.30909 -10.30736 -10.30391 -10.30122 -10.29859
 Alpha  occ. eigenvalues --  -10.29770 -10.29570 -10.29519 -10.29495 -10.29487
 Alpha  occ. eigenvalues --  -10.29298 -10.29278 -10.29209 -10.29189 -10.29139
 Alpha  occ. eigenvalues --  -10.29134 -10.29009 -10.28912 -10.28713 -10.28319
 Alpha  occ. eigenvalues --  -10.28231 -10.28193 -10.28084 -10.28079 -10.27876
 Alpha  occ. eigenvalues --  -10.27842  -3.22799  -1.96392  -1.95890  -1.95750
 Alpha  occ. eigenvalues --   -1.20146  -1.17292  -1.11729  -1.11264  -1.11213
 Alpha  occ. eigenvalues --   -1.09016  -1.07165  -1.05749  -1.05438  -1.04561
 Alpha  occ. eigenvalues --   -0.94635  -0.91923  -0.91291  -0.91029  -0.90948
 Alpha  occ. eigenvalues --   -0.90563  -0.90103  -0.90058  -0.88985  -0.88728
 Alpha  occ. eigenvalues --   -0.87768  -0.87050  -0.86619  -0.85934  -0.85175
 Alpha  occ. eigenvalues --   -0.84539  -0.83946  -0.83089  -0.82662  -0.82323
 Alpha  occ. eigenvalues --   -0.81370  -0.80630  -0.79861  -0.79148  -0.78790
 Alpha  occ. eigenvalues --   -0.77534  -0.77117  -0.77067  -0.76254  -0.75518
 Alpha  occ. eigenvalues --   -0.75278  -0.74730  -0.74476  -0.71959  -0.71275
 Alpha  occ. eigenvalues --   -0.70922  -0.69599  -0.69313  -0.68392  -0.68294
 Alpha  occ. eigenvalues --   -0.67800  -0.67613  -0.67017  -0.66661  -0.65901
 Alpha  occ. eigenvalues --   -0.65312  -0.64535  -0.64331  -0.64088  -0.62089
 Alpha  occ. eigenvalues --   -0.62029  -0.61736  -0.61008  -0.60872  -0.60339
 Alpha  occ. eigenvalues --   -0.59054  -0.58866  -0.58445  -0.58014  -0.57411
 Alpha  occ. eigenvalues --   -0.57095  -0.56514  -0.56443  -0.56115  -0.55624
 Alpha  occ. eigenvalues --   -0.55317  -0.55215  -0.55135  -0.55066  -0.54670
 Alpha  occ. eigenvalues --   -0.54639  -0.54550  -0.54246  -0.53911  -0.53544
 Alpha  occ. eigenvalues --   -0.53457  -0.53423  -0.53296  -0.52971  -0.52784
 Alpha  occ. eigenvalues --   -0.52193  -0.51932  -0.51787  -0.51549  -0.51409
 Alpha  occ. eigenvalues --   -0.51199  -0.51064  -0.50767  -0.50562  -0.50367
 Alpha  occ. eigenvalues --   -0.50313  -0.50042  -0.49986  -0.49854  -0.49323
 Alpha  occ. eigenvalues --   -0.49184  -0.49076  -0.48934  -0.48694  -0.48605
 Alpha  occ. eigenvalues --   -0.48500  -0.48240  -0.48148  -0.47951  -0.47917
 Alpha  occ. eigenvalues --   -0.47662  -0.47462  -0.47229  -0.47044  -0.46995
 Alpha  occ. eigenvalues --   -0.46704  -0.46630  -0.46449  -0.46352  -0.46135
 Alpha  occ. eigenvalues --   -0.45973  -0.45610  -0.45556  -0.45299  -0.44935
 Alpha  occ. eigenvalues --   -0.44808  -0.44555  -0.44532  -0.44225  -0.43751
 Alpha  occ. eigenvalues --   -0.43601  -0.43361  -0.43244  -0.42997  -0.42913
 Alpha  occ. eigenvalues --   -0.42795  -0.42538  -0.42445  -0.42059  -0.42004
 Alpha  occ. eigenvalues --   -0.41413  -0.41410  -0.41234  -0.41008  -0.40603
 Alpha  occ. eigenvalues --   -0.40444  -0.39940  -0.39742  -0.39679  -0.39350
 Alpha  occ. eigenvalues --   -0.39247  -0.39199  -0.38825  -0.38363  -0.38186
 Alpha  occ. eigenvalues --   -0.37962  -0.37424  -0.36938  -0.36636  -0.36233
 Alpha  occ. eigenvalues --   -0.35754  -0.35320  -0.35081  -0.33711  -0.32974
 Alpha  occ. eigenvalues --   -0.32598  -0.32218  -0.31913  -0.31329  -0.26423
 Alpha  occ. eigenvalues --   -0.23363
 Alpha virt. eigenvalues --   -0.07750  -0.00347   0.02337   0.04421   0.04551
 Alpha virt. eigenvalues --    0.06776   0.07491   0.07900   0.08386   0.09151
 Alpha virt. eigenvalues --    0.10579   0.11168   0.11952   0.12024   0.12466

 Mulliken charges:
               1
     1  Mg   0.930806
     2  C   -0.013099
     3  C   -0.078130
     4  C   -0.030064
     5  C   -0.055285
     6  N   -0.359064
     7  C   -0.009378
     8  C   -0.091193
     9  C   -0.098155
    10  C    0.078107
    11  C    0.031852
    12  C    0.017633
    13  C    0.015606
    14  C    0.224289
    15  O   -0.262291
    16  O   -0.377921
    17  N   -0.446593
    18  C    0.131728
    19  C   -0.166076
    20  C   -0.071450
    21  C    0.121915
    22  C    0.092223
    23  C   -0.000473
    24  O   -0.245858
    25  C    0.011367
    26  N   -0.354301
    27  C    0.049268
    28  C   -0.068750
    29  C   -0.054118
    30  C    0.053380
    31  C    0.028797
    32  C   -0.008393
    33  C   -0.059067
    34  N   -0.367927
    35  C    0.038625
    36  C   -0.158886
    37  C   -0.038238
    38  C    0.117405
    39  C    0.062086
    40  C    0.094608
    41  O   -0.225762
    42  C   -0.018748
    43  C    0.221830
    44  O   -0.212861
    45  O   -0.366541
    46  C    0.139791
    47  C    0.277593
    48  C   -0.179572
    49  C   -0.124209
    50  C    0.016342
    51  C    0.030419
    52  C   -0.048116
    53  C    0.011250
    54  C   -0.205910
    55  C    0.008905
    56  C    0.038942
    57  C   -0.026957
    58  C    0.003021
    59  C   -0.204483
    60  C    0.009979
    61  C    0.012877
    62  C   -0.030042
    63  C   -0.031107
    64  C   -0.242101
    65  C    0.028337
    66  C    0.000731
    67  H    0.007735
    68  H   -0.031151
    69  H   -0.001465
    70  H    0.040520
    71  H    0.040035
    72  H    0.031535
    73  H    0.045833
    74  H    0.044540
    75  H    0.046164
    76  H    0.040543
    77  H    0.064521
    78  H    0.054426
    79  H    0.070673
    80  H    0.040138
    81  H    0.018104
    82  H    0.051179
    83  H    0.064184
    84  H    0.052195
    85  H    0.047874
    86  H    0.037706
    87  H    0.035178
    88  H    0.041468
    89  H    0.037005
    90  H    0.041915
    91  H    0.039441
    92  H    0.042293
    93  H    0.030694
    94  H    0.033028
    95  H    0.064679
    96  H    0.051501
    97  H    0.065726
    98  H    0.062763
    99  H    0.046860
   100  H    0.053735
   101  H    0.057719
   102  H    0.031063
   103  H    0.062069
   104  H    0.020797
   105  H    0.030978
   106  H    0.052483
   107  H    0.034425
   108  H    0.034173
   109  H    0.018868
   110  H    0.003442
   111  H    0.018400
   112  H    0.016282
   113  H    0.022177
   114  H    0.013799
   115  H    0.025979
   116  H    0.023287
   117  H    0.033399
   118  H    0.006510
   119  H    0.013248
   120  H    0.022278
   121  H    0.025046
   122  H    0.015088
   123  H    0.012853
   124  H    0.013274
   125  H    0.027060
   126  H    0.029166
   127  H    0.037934
   128  H    0.035893
   129  H    0.011116
   130  H    0.022607
   131  H    0.029454
   132  H    0.021218
   133  H    0.013183
   134  H    0.019814
   135  H    0.027512
   136  H    0.032751
   137  H    0.027642
   138  H    0.028682
   139  H    0.043992
   140  H    0.004171
 Sum of Mulliken charges =  -0.00000

 Dipole moment (field-independent basis, Debye):
    X=              3.0416    Y=              3.5127    Z=              1.7507  Tot=              4.9654
 Quadrupole moment (field-independent basis, Debye-Ang):
   XX=           -350.2095   YY=           -430.5079   ZZ=           -403.8345
   XY=             21.4055   XZ=              7.8902   YZ=             37.7320

 Normal termination of Gaussian 16 at Fri Apr 29 05:21:20 2022.
