 Gaussian 16, Revision A.03,
 Gaussian 16:  ES64L-G16RevA.03 25-Dec-2016

 --------------------
 #p ZINDO=(nstates=5)
 --------------------

 ---------------------------
 step_1_chromophore_14 ZINDO
 ---------------------------
 Symbolic Z-matrix:
 Charge =  0 Multiplicity = 1

                         Standard orientation:
 ---------------------------------------------------------------------
 Center     Atomic      Atomic             Coordinates (Angstroms)
 Number     Number       Type             X           Y           Z
 ---------------------------------------------------------------------
      1         12           0        5.477650    0.876986   -0.315511
      2          6           0        4.634418   -2.514720    0.174056
      3          6           0        3.644363    0.844857   -3.282952
      4          6           0        5.453075    4.282790   -0.196033
      5          6           0        6.845799    0.800782    2.993903
      6          7           0        4.338526   -0.651898   -1.399682
      7          6           0        4.111014   -1.924086   -1.009685
      8          6           0        3.120259   -2.641517   -1.983277
      9          6           0        3.168591   -1.639281   -3.226617
     10          6           0        3.805801   -0.345693   -2.623552
     11          6           0        3.982602   -1.986765   -4.493642
     12          6           0        1.710630   -2.749040   -1.287855
     13          6           0        0.939382   -4.056933   -1.618414
     14          6           0       -0.616389   -3.890514   -1.858275
     15          8           0       -1.158194   -3.815262   -2.948862
     16          8           0       -1.298426   -3.959292   -0.672375
     17          7           0        4.823804    2.408524   -1.696763
     18          6           0        4.145531    2.136387   -2.855165
     19          6           0        3.946321    3.374521   -3.507498
     20          6           0        4.379899    4.426806   -2.647360
     21          6           0        4.974462    3.742024   -1.450906
     22          6           0        3.286991    3.546693   -4.855493
     23          6           0        4.141373    5.886976   -2.829694
     24          8           0        3.465749    6.320783   -3.748980
     25          6           0        4.605114    6.914917   -1.934647
     26          7           0        5.987629    2.328139    1.285087
     27          6           0        6.029980    3.693207    0.965045
     28          6           0        6.696637    4.469379    2.057482
     29          6           0        7.096733    3.388438    3.128661
     30          6           0        6.633874    2.100519    2.469681
     31          6           0        7.881332    5.244927    1.467324
     32          6           0        6.632801    3.743092    4.591545
     33          6           0        7.699354    3.814247    5.641972
     34          7           0        5.756750   -0.564614    1.308887
     35          6           0        6.370153   -0.428776    2.530044
     36          6           0        6.501153   -1.745805    3.191111
     37          6           0        5.757435   -2.552564    2.289511
     38          6           0        5.421568   -1.823063    1.164461
     39          6           0        7.074049   -2.091047    4.556752
     40          6           0        5.171703   -3.860036    2.156827
     41          8           0        5.177923   -4.818918    2.944459
     42          6           0        4.443776   -3.943403    0.815433
     43          6           0        4.945334   -5.067899    0.003611
     44          8           0        4.248306   -5.941314   -0.367714
     45          8           0        6.226463   -4.897746   -0.435409
     46          6           0        6.573082   -5.919287   -1.447248
     47          6           0       -2.800659   -3.873842   -0.720904
     48          6           0       -3.242635   -2.454140   -0.332989
     49          6           0       -3.848426   -1.448319   -0.997199
     50          6           0       -4.112653   -1.340006   -2.482640
     51          6           0       -4.230440   -0.141272   -0.325628
     52          6           0       -5.833779    0.073224   -0.118974
     53          6           0       -6.327349   -0.150339    1.311346
     54          6           0       -7.879010    0.093596    1.400575
     55          6           0       -8.157591    0.593713    2.845106
     56          6           0       -8.723576   -1.105807    1.074842
     57          6           0       -9.941131   -0.819029    0.180938
     58          6           0      -11.222841   -1.413007    0.850138
     59          6           0      -12.166743   -0.253946    1.386004
     60          6           0      -12.598763   -0.609685    2.812710
     61          6           0      -13.368866    0.093088    0.456531
     62          6           0      -13.699531    1.681569    0.676928
     63          6           0      -15.211025    1.846711    0.955147
     64          6           0      -16.058943    2.185097   -0.322334
     65          6           0      -15.911259    3.670062   -0.611479
     66          6           0      -17.558257    1.650778   -0.116749
     67          1           0        3.144705    0.852333   -4.254375
     68          1           0        5.496374    5.370704   -0.267724
     69          1           0        7.183147    0.591093    4.011654
     70          1           0        3.522053   -3.630213   -2.205642
     71          1           0        2.216815   -1.177783   -3.489254
     72          1           0        4.796313   -2.669529   -4.246443
     73          1           0        4.391089   -1.145420   -5.053536
     74          1           0        3.296694   -2.531204   -5.141778
     75          1           0        1.099140   -1.875398   -1.515316
     76          1           0        1.930906   -2.714597   -0.220856
     77          1           0        1.124318   -4.683288   -0.745553
     78          1           0        1.502286   -4.458130   -2.461486
     79          1           0        3.518456    4.466280   -5.393124
     80          1           0        2.223406    3.500754   -4.623012
     81          1           0        3.318080    2.688718   -5.527098
     82          1           0        5.694411    6.858779   -1.930035
     83          1           0        4.169835    6.799104   -0.941649
     84          1           0        4.283810    7.881041   -2.323948
     85          1           0        5.973531    5.096343    2.578598
     86          1           0        8.141970    3.081341    3.170566
     87          1           0        7.860211    5.301213    0.378712
     88          1           0        8.834035    4.777402    1.716076
     89          1           0        7.773069    6.304119    1.698865
     90          1           0        5.903463    2.971777    4.839039
     91          1           0        6.221226    4.746540    4.693857
     92          1           0        7.403377    3.138783    6.444170
     93          1           0        7.767111    4.807896    6.085273
     94          1           0        8.702298    3.649626    5.248022
     95          1           0        6.361905   -1.927205    5.365777
     96          1           0        8.022404   -1.593673    4.763938
     97          1           0        7.166966   -3.173585    4.470578
     98          1           0        3.403340   -4.220377    0.980440
     99          1           0        7.600938   -5.736909   -1.761942
    100          1           0        5.893585   -5.865571   -2.297722
    101          1           0        6.633144   -6.934995   -1.057839
    102          1           0       -3.011798   -4.479644    0.159924
    103          1           0       -3.342257   -4.311188   -1.560222
    104          1           0       -3.114719   -2.364365    0.746093
    105          1           0       -5.188254   -1.415597   -2.642110
    106          1           0       -3.637629   -2.094630   -3.109455
    107          1           0       -3.921082   -0.396418   -2.993097
    108          1           0       -3.914995    0.724899   -0.907701
    109          1           0       -3.790176   -0.124426    0.670590
    110          1           0       -6.315634   -0.584930   -0.841306
    111          1           0       -6.120590    1.049411   -0.509690
    112          1           0       -5.727973    0.594094    1.836491
    113          1           0       -6.088021   -1.117792    1.751560
    114          1           0       -8.178758    0.941725    0.784579
    115          1           0       -7.352736    1.227764    3.216709
    116          1           0       -8.196617   -0.295023    3.475393
    117          1           0       -9.085413    1.161122    2.768261
    118          1           0       -8.935455   -1.651680    1.994206
    119          1           0       -8.116764   -1.867867    0.587100
    120          1           0       -9.807396   -1.321916   -0.776875
    121          1           0      -10.077987    0.239572   -0.041879
    122          1           0      -10.897969   -2.072853    1.654272
    123          1           0      -11.793793   -1.986297    0.119221
    124          1           0      -11.433553    0.552662    1.409789
    125          1           0      -13.496623   -0.072851    3.119296
    126          1           0      -11.734331   -0.239180    3.362907
    127          1           0      -12.739474   -1.683922    2.929353
    128          1           0      -14.172743   -0.642098    0.481208
    129          1           0      -13.021006    0.142129   -0.575474
    130          1           0      -13.421997    2.233296   -0.221577
    131          1           0      -13.148890    2.122089    1.507693
    132          1           0      -15.448500    2.539055    1.762712
    133          1           0      -15.577803    0.863054    1.249764
    134          1           0      -15.633957    1.596870   -1.136641
    135          1           0      -15.148705    4.044607    0.071959
    136          1           0      -16.873585    4.172316   -0.517229
    137          1           0      -15.507508    3.813131   -1.613087
    138          1           0      -17.749487    1.325310    0.905213
    139          1           0      -17.926807    0.969554   -0.883575
    140          1           0      -18.185101    2.541664   -0.149992
 ---------------------------------------------------------------------

 SCF Done:  E(RZINDO/S) =  -474.125993627     A.U. after   20 cycles

 Excitation energies and oscillator strengths:

 Excited State   1:      Singlet-A      1.2159 eV 1019.66 nm  f=0.6480  <S**2>=0.000
     175 ->178         0.18614
     176 ->177         0.66353
 This state for optimization and/or second-order correction.
 Total Energy, E(CIS/TDA) =  -474.081308900
 Copying the excited state density for this state as the 1-particle RhoCI density.

 Excited State   2:      Singlet-A      1.9099 eV  649.15 nm  f=0.0453  <S**2>=0.000
     175 ->177         0.55158
     176 ->178        -0.41819

 Excited State   3:      Singlet-A      2.8326 eV  437.71 nm  f=0.0005  <S**2>=0.000
     170 ->177         0.29575
     170 ->178         0.19654
     170 ->179         0.21514
     170 ->181         0.38036
     170 ->184         0.13821
     170 ->185         0.25457
     170 ->187        -0.17133
     170 ->200        -0.10327

 Excited State   4:      Singlet-A      2.8884 eV  429.25 nm  f=0.0067  <S**2>=0.000
     168 ->177         0.30902
     168 ->179        -0.36749
     168 ->181         0.15569
     168 ->184         0.10450
     168 ->185        -0.14836
     169 ->177         0.19518
     169 ->179        -0.22953
     169 ->181         0.10060

 Excited State   5:      Singlet-A      2.9758 eV  416.65 nm  f=0.6340  <S**2>=0.000
     175 ->177         0.28496
     176 ->178         0.41034
     176 ->180         0.45387
     176 ->181         0.10032

 The electronic state is 1-A.
 Alpha  occ. eigenvalues --   -1.85159  -1.79660  -1.79297  -1.75454  -1.71610
 Alpha  occ. eigenvalues --   -1.69556  -1.65156  -1.61689  -1.59876  -1.58764
 Alpha  occ. eigenvalues --   -1.54392  -1.49956  -1.48323  -1.47660  -1.46604
 Alpha  occ. eigenvalues --   -1.45901  -1.43656  -1.40709  -1.38998  -1.37133
 Alpha  occ. eigenvalues --   -1.36186  -1.33920  -1.30795  -1.29707  -1.28146
 Alpha  occ. eigenvalues --   -1.27027  -1.26610  -1.22977  -1.21394  -1.18294
 Alpha  occ. eigenvalues --   -1.16122  -1.16016  -1.14280  -1.13291  -1.13123
 Alpha  occ. eigenvalues --   -1.11944  -1.09647  -1.08885  -1.06434  -1.05065
 Alpha  occ. eigenvalues --   -1.02827  -1.01733  -0.99457  -0.97465  -0.96846
 Alpha  occ. eigenvalues --   -0.96424  -0.94604  -0.94331  -0.93213  -0.91796
 Alpha  occ. eigenvalues --   -0.91035  -0.90752  -0.88072  -0.87991  -0.86933
 Alpha  occ. eigenvalues --   -0.86079  -0.83888  -0.82911  -0.82691  -0.81212
 Alpha  occ. eigenvalues --   -0.80440  -0.79529  -0.77479  -0.77167  -0.76490
 Alpha  occ. eigenvalues --   -0.75297  -0.74775  -0.74226  -0.73503  -0.73141
 Alpha  occ. eigenvalues --   -0.72795  -0.72721  -0.71836  -0.71417  -0.70751
 Alpha  occ. eigenvalues --   -0.70080  -0.69659  -0.68992  -0.68496  -0.68037
 Alpha  occ. eigenvalues --   -0.67930  -0.67610  -0.66007  -0.65716  -0.65703
 Alpha  occ. eigenvalues --   -0.65496  -0.64455  -0.64117  -0.63778  -0.63590
 Alpha  occ. eigenvalues --   -0.63471  -0.62997  -0.62940  -0.62747  -0.62216
 Alpha  occ. eigenvalues --   -0.61064  -0.61020  -0.60398  -0.60281  -0.60198
 Alpha  occ. eigenvalues --   -0.59851  -0.58705  -0.58652  -0.58377  -0.57966
 Alpha  occ. eigenvalues --   -0.57787  -0.57636  -0.57212  -0.57038  -0.56782
 Alpha  occ. eigenvalues --   -0.56309  -0.56163  -0.55819  -0.55639  -0.55133
 Alpha  occ. eigenvalues --   -0.54767  -0.54459  -0.53861  -0.53547  -0.53297
 Alpha  occ. eigenvalues --   -0.52678  -0.52315  -0.52268  -0.52084  -0.51209
 Alpha  occ. eigenvalues --   -0.51079  -0.50923  -0.50718  -0.50625  -0.50215
 Alpha  occ. eigenvalues --   -0.49781  -0.49724  -0.49553  -0.49180  -0.49049
 Alpha  occ. eigenvalues --   -0.48874  -0.48479  -0.48375  -0.47824  -0.47593
 Alpha  occ. eigenvalues --   -0.47554  -0.47030  -0.46913  -0.46698  -0.46645
 Alpha  occ. eigenvalues --   -0.46256  -0.46056  -0.45972  -0.45639  -0.45429
 Alpha  occ. eigenvalues --   -0.45376  -0.44679  -0.44630  -0.44244  -0.43929
 Alpha  occ. eigenvalues --   -0.43644  -0.43577  -0.43137  -0.42933  -0.42713
 Alpha  occ. eigenvalues --   -0.41677  -0.41667  -0.40816  -0.39233  -0.38874
 Alpha  occ. eigenvalues --   -0.38208  -0.37031  -0.35284  -0.35192  -0.33938
 Alpha  occ. eigenvalues --   -0.33448  -0.32807  -0.32682  -0.32152  -0.27122
 Alpha  occ. eigenvalues --   -0.22054
 Alpha virt. eigenvalues --   -0.09191  -0.02472  -0.00709   0.00492   0.01313
 Alpha virt. eigenvalues --    0.02150   0.02751   0.02981   0.04465   0.04906
 Alpha virt. eigenvalues --    0.05863   0.06306   0.07133   0.07295   0.07769

 Mulliken charges:
               1
     1  Mg   0.430906
     2  C   -0.082433
     3  C   -0.075241
     4  C   -0.080423
     5  C   -0.074800
     6  N   -0.283529
     7  C    0.144520
     8  C    0.006913
     9  C   -0.010786
    10  C    0.122221
    11  C   -0.043955
    12  C   -0.019443
    13  C    0.000272
    14  C    0.468279
    15  O   -0.511978
    16  O   -0.265450
    17  N   -0.313602
    18  C    0.097750
    19  C    0.041421
    20  C   -0.063454
    21  C    0.101963
    22  C   -0.043629
    23  C    0.331386
    24  O   -0.541423
    25  C   -0.021104
    26  N   -0.279819
    27  C    0.121743
    28  C    0.014062
    29  C   -0.005884
    30  C    0.139981
    31  C   -0.051116
    32  C   -0.029377
    33  C   -0.055753
    34  N   -0.325037
    35  C    0.102904
    36  C    0.029548
    37  C   -0.044768
    38  C    0.135799
    39  C   -0.034171
    40  C    0.329689
    41  O   -0.532213
    42  C    0.055003
    43  C    0.495154
    44  O   -0.508947
    45  O   -0.271370
    46  C    0.077337
    47  C    0.105934
    48  C   -0.085879
    49  C    0.017720
    50  C   -0.044374
    51  C   -0.030384
    52  C   -0.039692
    53  C   -0.029870
    54  C   -0.014497
    55  C   -0.064466
    56  C   -0.026352
    57  C   -0.035430
    58  C   -0.047743
    59  C   -0.020589
    60  C   -0.058210
    61  C   -0.038996
    62  C   -0.040416
    63  C   -0.038621
    64  C   -0.016157
    65  C   -0.053621
    66  C   -0.069534
    67  H    0.037119
    68  H    0.025166
    69  H    0.025650
    70  H    0.041013
    71  H    0.037374
    72  H    0.020932
    73  H    0.031122
    74  H    0.015191
    75  H    0.031865
    76  H    0.024124
    77  H    0.041419
    78  H    0.045193
    79  H    0.046214
    80  H    0.030340
    81  H    0.018601
    82  H    0.032677
    83  H    0.037569
    84  H    0.035507
    85  H    0.038006
    86  H    0.037683
    87  H    0.019158
    88  H    0.029120
    89  H    0.020649
    90  H    0.024975
    91  H    0.027044
    92  H    0.022088
    93  H    0.013831
    94  H    0.021671
    95  H    0.039968
    96  H    0.033282
    97  H    0.036314
    98  H    0.059993
    99  H    0.021672
   100  H    0.044906
   101  H    0.048063
   102  H    0.026696
   103  H    0.063180
   104  H    0.021445
   105  H    0.022724
   106  H    0.025148
   107  H    0.026447
   108  H    0.027012
   109  H    0.017365
   110  H    0.014008
   111  H    0.019969
   112  H    0.016323
   113  H    0.027115
   114  H    0.020159
   115  H    0.016356
   116  H    0.021590
   117  H    0.018643
   118  H    0.021175
   119  H    0.008143
   120  H    0.013940
   121  H    0.026472
   122  H    0.023664
   123  H    0.014441
   124  H    0.023869
   125  H    0.017440
   126  H    0.017433
   127  H    0.025134
   128  H    0.040276
   129  H    0.007945
   130  H    0.021946
   131  H    0.021520
   132  H    0.020992
   133  H    0.007971
   134  H    0.019038
   135  H    0.021072
   136  H    0.025915
   137  H    0.014946
   138  H    0.023753
   139  H    0.028513
   140  H    0.008755
 Sum of Mulliken charges =   0.00000

 Dipole moment (field-independent basis, Debye):
    X=              4.4945    Y=              4.3429    Z=              3.4218  Tot=              7.1253
 N-N= 4.251406422109D+03 E-N= 0.000000000000D+00  KE=-9.176764390432D+03
 Leave Link  601 at Fri Apr 29 05:34:46 2022, MaxMem=  6710886400 cpu:               0.8 elap:               0.1
 (Enter /sw/apps/gaussian-16.0/g16/l9999.exe)
 1\1\GINC-BP1-COMPUTE154\SP\RZINDO CIS\STO-3G\C55H74Mg1N4O6\OF15641\29-
 Apr-2022\0\\#p ZINDO=(nstates=5)\\step_1_chromophore_14 ZINDO\\0,1\Mg,
 0,46.693,44.583,44.387\C,0,43.255,44.724,43.603\C,0,46.826,41.397,42.9
 73\C,0,50.08,44.926,44.229\C,0,46.416,48.036,45.298\N,0,45.217,43.253,
 43.458\C,0,43.915,43.522,43.224\C,0,43.244,42.376,42.399\C,0,44.333,41
 .221,42.58\C,0,45.596,41.991,43.085\C,0,44.097,40.057,43.569\C,0,43.05
 2,42.863,40.913\C,0,41.752,42.343,40.239\C,0,41.896,41.904,38.725\O,0,

 Normal termination of Gaussian 16 at Fri Apr 29 05:34:46 2022.
