 Gaussian 16, Revision A.03,
 Gaussian 16:  ES64L-G16RevA.03 25-Dec-2016

 ------------------------------
 #p blyp/Def2SVP td=(nstates=5)
 ------------------------------

 ---------------------------------------------------
 step_1551_chromophore_15 TDDFT with blyp functional
 ---------------------------------------------------
 Symbolic Z-matrix:
 Charge =  0 Multiplicity = 1

                         Standard orientation:
 ---------------------------------------------------------------------
 Center     Atomic      Atomic             Coordinates (Angstroms)
 Number     Number       Type             X           Y           Z
 ---------------------------------------------------------------------
      1         12           0       -4.760978    0.681372    0.056879
      2          6           0       -3.693749   -2.594743    0.501103
      3          6           0       -1.523870    1.732010    0.006343
      4          6           0       -5.976962    3.835538    0.021237
      5          6           0       -8.084339   -0.445916    0.661340
      6          7           0       -2.831416   -0.365536    0.390712
      7          6           0       -2.612521   -1.668928    0.328037
      8          6           0       -1.062502   -1.899219    0.070891
      9          6           0       -0.436047   -0.519274    0.350139
     10          6           0       -1.709690    0.342031    0.250142
     11          6           0        0.231563   -0.311935    1.732208
     12          6           0       -0.739678   -2.452370   -1.362445
     13          6           0        0.343445   -3.366860   -1.520994
     14          6           0        1.703966   -2.888532   -1.171468
     15          8           0        1.975965   -1.866743   -0.524956
     16          8           0        2.624568   -3.802338   -1.622134
     17          7           0       -3.909818    2.528381   -0.067271
     18          6           0       -2.523706    2.712504   -0.186225
     19          6           0       -2.359802    4.135322   -0.463673
     20          6           0       -3.585081    4.803655   -0.278967
     21          6           0       -4.573915    3.724809   -0.085849
     22          6           0       -0.985665    4.729232   -0.592724
     23          6           0       -3.890924    6.300077   -0.351645
     24          8           0       -5.009017    6.724127   -0.098471
     25          6           0       -2.795085    7.232243   -0.842092
     26          7           0       -6.793565    1.526729    0.202321
     27          6           0       -6.946554    2.879342    0.213581
     28          6           0       -8.446833    3.171692    0.279186
     29          6           0       -9.098899    1.788778    0.342048
     30          6           0       -7.918214    0.915200    0.381430
     31          6           0       -8.751969    4.297594    1.395716
     32          6           0      -10.168853    1.502182   -0.740450
     33          6           0      -11.609945    1.333846   -0.400231
     34          7           0       -5.788837   -1.118694    0.408914
     35          6           0       -7.122683   -1.435224    0.614272
     36          6           0       -7.275584   -2.896645    0.785839
     37          6           0       -5.930008   -3.314754    0.888760
     38          6           0       -5.097860   -2.249903    0.562192
     39          6           0       -8.562153   -3.705850    0.837468
     40          6           0       -5.035613   -4.428773    1.099758
     41          8           0       -5.297027   -5.603516    1.377221
     42          6           0       -3.549533   -3.976998    1.016000
     43          6           0       -2.829602   -4.877926    0.157449
     44          8           0       -3.102964   -5.081865   -1.020367
     45          8           0       -1.920987   -5.518684    0.900509
     46          6           0       -1.082362   -6.570164    0.290839
     47          6           0        3.993132   -3.692226   -1.212040
     48          6           0        4.860042   -3.045045   -2.288027
     49          6           0        6.176433   -2.833893   -2.321107
     50          6           0        7.279303   -3.169003   -1.321473
     51          6           0        6.789542   -2.265567   -3.622209
     52          6           0        6.605967   -0.783971   -3.864922
     53          6           0        7.909878    0.091973   -3.729044
     54          6           0        7.578245    1.619135   -3.510077
     55          6           0        7.327266    2.372303   -4.852667
     56          6           0        8.715477    2.398142   -2.752827
     57          6           0        8.798562    2.126116   -1.226171
     58          6           0       10.216006    2.182648   -0.741151
     59          6           0       10.376168    2.288392    0.842123
     60          6           0       10.742236    3.664086    1.312644
     61          6           0       11.379093    1.291396    1.503833
     62          6           0       10.760167    0.281945    2.486048
     63          6           0       11.025118    0.530136    3.997703
     64          6           0        9.921887    0.069472    4.940801
     65          6           0        8.774361    1.179240    4.892278
     66          6           0       10.440119   -0.093358    6.332205
     67          1           0       -0.482556    2.053908   -0.055219
     68          1           0       -6.427831    4.830142    0.028784
     69          1           0       -9.123097   -0.722203    0.852617
     70          1           0       -0.772042   -2.610357    0.843810
     71          1           0        0.257990   -0.231560   -0.439709
     72          1           0       -0.126380    0.625887    2.156426
     73          1           0        1.273388   -0.076260    1.516389
     74          1           0        0.142427   -1.086263    2.494057
     75          1           0       -0.454919   -1.531910   -1.872065
     76          1           0       -1.613835   -2.893491   -1.840881
     77          1           0        0.324690   -3.433732   -2.608916
     78          1           0        0.093133   -4.344277   -1.108118
     79          1           0       -1.108688    5.349420   -1.480752
     80          1           0       -0.113719    4.116708   -0.822612
     81          1           0       -0.656847    5.322360    0.261342
     82          1           0       -2.422401    6.860653   -1.796476
     83          1           0       -1.925146    7.140362   -0.192110
     84          1           0       -3.142457    8.263908   -0.893781
     85          1           0       -8.729283    3.636470   -0.665375
     86          1           0       -9.495326    1.610608    1.341487
     87          1           0       -7.908240    4.443041    2.070244
     88          1           0       -9.676070    4.062877    1.923616
     89          1           0       -8.790731    5.305474    0.981352
     90          1           0       -9.745028    0.644242   -1.262343
     91          1           0      -10.109925    2.320419   -1.459387
     92          1           0      -12.242952    2.044929   -0.932056
     93          1           0      -11.603685    1.429048    0.685376
     94          1           0      -11.873071    0.321014   -0.706777
     95          1           0       -9.244548   -3.388864    1.627028
     96          1           0       -8.306443   -4.737491    1.079197
     97          1           0       -9.010301   -3.557638   -0.145103
     98          1           0       -3.089089   -3.960086    2.003860
     99          1           0       -1.073653   -6.443719   -0.792138
    100          1           0       -1.618243   -7.479029    0.562790
    101          1           0       -0.076721   -6.541355    0.710836
    102          1           0        4.331643   -4.716574   -1.053202
    103          1           0        4.106177   -3.217245   -0.237548
    104          1           0        4.407394   -2.836798   -3.258085
    105          1           0        8.145251   -3.663134   -1.763510
    106          1           0        6.877879   -3.746448   -0.489143
    107          1           0        7.747770   -2.275622   -0.908388
    108          1           0        6.397781   -2.844307   -4.459010
    109          1           0        7.866684   -2.418915   -3.698917
    110          1           0        5.802470   -0.459986   -3.204428
    111          1           0        6.402508   -0.614894   -4.921778
    112          1           0        8.424798    0.051001   -4.688104
    113          1           0        8.677369   -0.183671   -3.005605
    114          1           0        6.694882    1.817826   -2.903879
    115          1           0        7.176427    1.628796   -5.634903
    116          1           0        8.227310    2.829766   -5.264431
    117          1           0        6.548460    3.130708   -4.766607
    118          1           0        8.436993    3.450405   -2.701317
    119          1           0        9.698729    2.317541   -3.215822
    120          1           0        8.357485    1.182627   -0.905537
    121          1           0        8.374614    2.941456   -0.640035
    122          1           0       10.750812    3.030602   -1.168696
    123          1           0       10.793153    1.369474   -1.183258
    124          1           0        9.385249    2.217779    1.292141
    125          1           0       10.134342    4.441970    0.851111
    126          1           0       11.781622    3.875481    1.063395
    127          1           0       10.655402    3.705796    2.398125
    128          1           0       12.209906    1.721880    2.062706
    129          1           0       11.752664    0.722848    0.652801
    130          1           0       11.092292   -0.740438    2.306797
    131          1           0        9.674731    0.232889    2.396694
    132          1           0       11.451813    1.521390    4.151810
    133          1           0       11.883044   -0.047788    4.342132
    134          1           0        9.647200   -0.891377    4.504252
    135          1           0        9.101402    2.000344    5.529739
    136          1           0        7.780755    0.906575    5.248798
    137          1           0        8.803318    1.673200    3.920978
    138          1           0       10.701283   -1.149156    6.419048
    139          1           0        9.636672   -0.000168    7.062296
    140          1           0       11.359552    0.448665    6.553493
 ---------------------------------------------------------------------

 SCF Done:  E(RB-LYP) =  -3007.38088254     A.U. after   23 cycles

 Excitation energies and oscillator strengths:

 Excited State   1:      Singlet-A      1.8192 eV  681.54 nm  f=0.2971  <S**2>=0.000
     245 -> 248        0.20301
     246 -> 247        0.68414
     246 <- 247       -0.14516
 This state for optimization and/or second-order correction.
 Total Energy, E(TD-HF/TD-DFT) =  -3007.31402916
 Copying the excited state density for this state as the 1-particle RhoCI density.

 Excited State   2:      Singlet-A      1.9822 eV  625.48 nm  f=0.0248  <S**2>=0.000
     244 -> 247        0.52694
     245 -> 247       -0.43650
     246 -> 248        0.14683

 Excited State   3:      Singlet-A      2.0410 eV  607.46 nm  f=0.0360  <S**2>=0.000
     244 -> 247        0.46608
     245 -> 247        0.46964
     246 -> 248       -0.21683

 Excited State   4:      Singlet-A      2.1602 eV  573.96 nm  f=0.0009  <S**2>=0.000
     243 -> 247        0.70214

 Excited State   5:      Singlet-A      2.6579 eV  466.47 nm  f=0.0049  <S**2>=0.000
     242 -> 247        0.66898
     246 -> 248       -0.13155
     246 -> 249       -0.11665

 The electronic state is 1-A.
 Alpha  occ. eigenvalues --  -46.26945 -18.83172 -18.82475 -18.78173 -18.75978
 Alpha  occ. eigenvalues --  -18.75495 -18.74862 -14.03019 -14.01903 -14.00827
 Alpha  occ. eigenvalues --  -14.00299 -10.05327 -10.03192  -9.99878  -9.99108
 Alpha  occ. eigenvalues --   -9.98952  -9.98362  -9.96306  -9.95663  -9.95623
 Alpha  occ. eigenvalues --   -9.95264  -9.95174  -9.95127  -9.95112  -9.94154
 Alpha  occ. eigenvalues --   -9.93825  -9.93527  -9.93453  -9.93394  -9.93356
 Alpha  occ. eigenvalues --   -9.93353  -9.93064  -9.92902  -9.92860  -9.92597
 Alpha  occ. eigenvalues --   -9.92577  -9.92560  -9.92540  -9.92480  -9.92472
 Alpha  occ. eigenvalues --   -9.92424  -9.92351  -9.92267  -9.92142  -9.92053
 Alpha  occ. eigenvalues --   -9.91953  -9.91930  -9.91929  -9.91891  -9.91812
 Alpha  occ. eigenvalues --   -9.91766  -9.91707  -9.91648  -9.91353  -9.91336
 Alpha  occ. eigenvalues --   -9.91162  -9.91145  -9.91088  -9.91008  -9.90981
 Alpha  occ. eigenvalues --   -9.90973  -9.90877  -9.90766  -9.90696  -9.90678
 Alpha  occ. eigenvalues --   -9.90526  -2.91518  -1.71954  -1.71402  -1.71221
 Alpha  occ. eigenvalues --   -0.98943  -0.98389  -0.91388  -0.90960  -0.90276
 Alpha  occ. eigenvalues --   -0.89465  -0.87390  -0.87026  -0.85545  -0.84152
 Alpha  occ. eigenvalues --   -0.75498  -0.74406  -0.73645  -0.73142  -0.72568
 Alpha  occ. eigenvalues --   -0.72230  -0.71498  -0.71102  -0.70656  -0.70125
 Alpha  occ. eigenvalues --   -0.69500  -0.69331  -0.68563  -0.68019  -0.67249
 Alpha  occ. eigenvalues --   -0.66871  -0.66007  -0.65505  -0.65306  -0.64771
 Alpha  occ. eigenvalues --   -0.64369  -0.62464  -0.62174  -0.61930  -0.61186
 Alpha  occ. eigenvalues --   -0.60794  -0.60194  -0.59733  -0.59394  -0.59227
 Alpha  occ. eigenvalues --   -0.58974  -0.57463  -0.56394  -0.55539  -0.54145
 Alpha  occ. eigenvalues --   -0.53689  -0.53451  -0.52459  -0.52146  -0.51448
 Alpha  occ. eigenvalues --   -0.51390  -0.51138  -0.50516  -0.50101  -0.49897
 Alpha  occ. eigenvalues --   -0.49806  -0.49454  -0.48731  -0.48571  -0.47164
 Alpha  occ. eigenvalues --   -0.46593  -0.46150  -0.45731  -0.45138  -0.44820
 Alpha  occ. eigenvalues --   -0.44319  -0.43961  -0.43056  -0.42975  -0.42787
 Alpha  occ. eigenvalues --   -0.42531  -0.41975  -0.41871  -0.41712  -0.41137
 Alpha  occ. eigenvalues --   -0.40787  -0.40747  -0.40589  -0.40321  -0.40043
 Alpha  occ. eigenvalues --   -0.39960  -0.39850  -0.39615  -0.39467  -0.39390
 Alpha  occ. eigenvalues --   -0.39269  -0.38666  -0.38608  -0.38416  -0.38206
 Alpha  occ. eigenvalues --   -0.38043  -0.37969  -0.37651  -0.37331  -0.37110
 Alpha  occ. eigenvalues --   -0.37059  -0.36744  -0.36596  -0.36505  -0.36434
 Alpha  occ. eigenvalues --   -0.36126  -0.35990  -0.35800  -0.35576  -0.35441
 Alpha  occ. eigenvalues --   -0.35174  -0.35052  -0.35015  -0.34896  -0.34813
 Alpha  occ. eigenvalues --   -0.34767  -0.34468  -0.34349  -0.34211  -0.34044
 Alpha  occ. eigenvalues --   -0.33958  -0.33812  -0.33719  -0.33288  -0.33198
 Alpha  occ. eigenvalues --   -0.32989  -0.32836  -0.32581  -0.32504  -0.32369
 Alpha  occ. eigenvalues --   -0.31939  -0.31580  -0.31570  -0.31401  -0.31221
 Alpha  occ. eigenvalues --   -0.31011  -0.30814  -0.30589  -0.30466  -0.30131
 Alpha  occ. eigenvalues --   -0.30039  -0.29830  -0.29725  -0.29678  -0.29671
 Alpha  occ. eigenvalues --   -0.29232  -0.29160  -0.29000  -0.28931  -0.28773
 Alpha  occ. eigenvalues --   -0.28436  -0.28382  -0.28356  -0.27843  -0.27711
 Alpha  occ. eigenvalues --   -0.27496  -0.27384  -0.27293  -0.27093  -0.26415
 Alpha  occ. eigenvalues --   -0.26194  -0.25865  -0.25727  -0.25656  -0.25398
 Alpha  occ. eigenvalues --   -0.25190  -0.24955  -0.24838  -0.24232  -0.23588
 Alpha  occ. eigenvalues --   -0.22947  -0.22524  -0.21767  -0.21213  -0.20951
 Alpha  occ. eigenvalues --   -0.20471  -0.20064  -0.18681  -0.18065  -0.16722
 Alpha  occ. eigenvalues --   -0.15168
 Alpha virt. eigenvalues --   -0.10823  -0.06570  -0.05658  -0.04278  -0.04066
 Alpha virt. eigenvalues --   -0.02405  -0.02096  -0.01749  -0.00555   0.00441
 Alpha virt. eigenvalues --    0.01403   0.01739   0.01786   0.02700   0.02910

 Mulliken charges:
               1
     1  Mg   0.683676
     2  C   -0.039080
     3  C   -0.057586
     4  C   -0.040405
     5  C   -0.098479
     6  N   -0.163163
     7  C   -0.100397
     8  C    0.038464
     9  C   -0.008272
    10  C    0.005004
    11  C    0.147727
    12  C    0.131990
    13  C    0.139728
    14  C    0.090233
    15  O   -0.198044
    16  O   -0.258928
    17  N   -0.337176
    18  C    0.168633
    19  C   -0.137860
    20  C    0.027268
    21  C    0.119716
    22  C    0.146884
    23  C   -0.070653
    24  O   -0.156176
    25  C    0.132552
    26  N   -0.144252
    27  C   -0.007469
    28  C    0.015626
    29  C    0.071100
    30  C   -0.068348
    31  C    0.103850
    32  C    0.088867
    33  C    0.110209
    34  N   -0.245115
    35  C    0.134818
    36  C   -0.190433
    37  C    0.105087
    38  C    0.082502
    39  C    0.179043
    40  C   -0.076031
    41  O   -0.153854
    42  C    0.149708
    43  C    0.066591
    44  O   -0.195030
    45  O   -0.258154
    46  C    0.204529
    47  C    0.322846
    48  C   -0.075924
    49  C   -0.141766
    50  C    0.140560
    51  C    0.122282
    52  C    0.095893
    53  C    0.084926
    54  C   -0.065920
    55  C    0.111579
    56  C    0.089707
    57  C    0.074346
    58  C    0.068994
    59  C   -0.056411
    60  C    0.088064
    61  C    0.150922
    62  C    0.064149
    63  C    0.033760
    64  C   -0.073469
    65  C    0.105671
    66  C    0.142031
    67  H   -0.061321
    68  H   -0.053249
    69  H   -0.075468
    70  H   -0.047281
    71  H   -0.016724
    72  H   -0.025984
    73  H   -0.007306
    74  H   -0.005003
    75  H   -0.037354
    76  H   -0.001722
    77  H    0.004072
    78  H    0.004624
    79  H   -0.016632
    80  H   -0.017895
    81  H    0.016568
    82  H    0.010705
    83  H   -0.001815
    84  H   -0.004321
    85  H   -0.018904
    86  H   -0.035548
    87  H   -0.004015
    88  H   -0.007495
    89  H   -0.001922
    90  H   -0.028628
    91  H   -0.034527
    92  H    0.000024
    93  H   -0.011300
    94  H   -0.006129
    95  H   -0.000758
    96  H    0.009926
    97  H    0.009629
    98  H   -0.002633
    99  H    0.032977
   100  H    0.028412
   101  H    0.024214
   102  H   -0.000511
   103  H    0.002930
   104  H   -0.033441
   105  H   -0.001351
   106  H   -0.019566
   107  H   -0.002936
   108  H   -0.027538
   109  H   -0.048898
   110  H   -0.015228
   111  H   -0.027692
   112  H   -0.039748
   113  H   -0.029204
   114  H   -0.035986
   115  H   -0.033868
   116  H   -0.027867
   117  H   -0.005281
   118  H   -0.036192
   119  H   -0.026265
   120  H   -0.022615
   121  H   -0.030414
   122  H   -0.045753
   123  H   -0.043544
   124  H   -0.027958
   125  H   -0.024750
   126  H   -0.022712
   127  H   -0.014410
   128  H   -0.028210
   129  H   -0.047999
   130  H   -0.038167
   131  H   -0.030990
   132  H   -0.040681
   133  H   -0.053426
   134  H   -0.033100
   135  H   -0.033161
   136  H   -0.005406
   137  H   -0.022709
   138  H   -0.033557
   139  H   -0.021553
   140  H   -0.008596
 Sum of Mulliken charges =  -0.00000

 Dipole moment (field-independent basis, Debye):
    X=              4.7564    Y=              0.0589    Z=             -1.6015  Tot=              5.0192
 Quadrupole moment (field-independent basis, Debye-Ang):
   XX=           -379.5729   YY=           -429.4909   ZZ=           -403.5180
   XY=            -22.3975   XZ=             -1.1105   YZ=             -2.3980

 Normal termination of Gaussian 16 at Thu Apr 28 12:06:53 2022.
