 Gaussian 16, Revision A.03,
 Gaussian 16:  ES64L-G16RevA.03 25-Dec-2016

 -----------------------------------
 #p cam-b3lyp/Def2SVP td=(nstates=5)
 -----------------------------------

 --------------------------------------------------------
 step_1551_chromophore_15 TDDFT with cam-b3lyp functional
 --------------------------------------------------------
 Symbolic Z-matrix:
 Charge =  0 Multiplicity = 1

                         Standard orientation:
 ---------------------------------------------------------------------
 Center     Atomic      Atomic             Coordinates (Angstroms)
 Number     Number       Type             X           Y           Z
 ---------------------------------------------------------------------
      1         12           0       -4.760978    0.681372    0.056879
      2          6           0       -3.693749   -2.594743    0.501103
      3          6           0       -1.523870    1.732010    0.006343
      4          6           0       -5.976962    3.835538    0.021237
      5          6           0       -8.084339   -0.445916    0.661340
      6          7           0       -2.831416   -0.365536    0.390712
      7          6           0       -2.612521   -1.668928    0.328037
      8          6           0       -1.062502   -1.899219    0.070891
      9          6           0       -0.436047   -0.519274    0.350139
     10          6           0       -1.709690    0.342031    0.250142
     11          6           0        0.231563   -0.311935    1.732208
     12          6           0       -0.739678   -2.452370   -1.362445
     13          6           0        0.343445   -3.366860   -1.520994
     14          6           0        1.703966   -2.888532   -1.171468
     15          8           0        1.975965   -1.866743   -0.524956
     16          8           0        2.624568   -3.802338   -1.622134
     17          7           0       -3.909818    2.528381   -0.067271
     18          6           0       -2.523706    2.712504   -0.186225
     19          6           0       -2.359802    4.135322   -0.463673
     20          6           0       -3.585081    4.803655   -0.278967
     21          6           0       -4.573915    3.724809   -0.085849
     22          6           0       -0.985665    4.729232   -0.592724
     23          6           0       -3.890924    6.300077   -0.351645
     24          8           0       -5.009017    6.724127   -0.098471
     25          6           0       -2.795085    7.232243   -0.842092
     26          7           0       -6.793565    1.526729    0.202321
     27          6           0       -6.946554    2.879342    0.213581
     28          6           0       -8.446833    3.171692    0.279186
     29          6           0       -9.098899    1.788778    0.342048
     30          6           0       -7.918214    0.915200    0.381430
     31          6           0       -8.751969    4.297594    1.395716
     32          6           0      -10.168853    1.502182   -0.740450
     33          6           0      -11.609945    1.333846   -0.400231
     34          7           0       -5.788837   -1.118694    0.408914
     35          6           0       -7.122683   -1.435224    0.614272
     36          6           0       -7.275584   -2.896645    0.785839
     37          6           0       -5.930008   -3.314754    0.888760
     38          6           0       -5.097860   -2.249903    0.562192
     39          6           0       -8.562153   -3.705850    0.837468
     40          6           0       -5.035613   -4.428773    1.099758
     41          8           0       -5.297027   -5.603516    1.377221
     42          6           0       -3.549533   -3.976998    1.016000
     43          6           0       -2.829602   -4.877926    0.157449
     44          8           0       -3.102964   -5.081865   -1.020367
     45          8           0       -1.920987   -5.518684    0.900509
     46          6           0       -1.082362   -6.570164    0.290839
     47          6           0        3.993132   -3.692226   -1.212040
     48          6           0        4.860042   -3.045045   -2.288027
     49          6           0        6.176433   -2.833893   -2.321107
     50          6           0        7.279303   -3.169003   -1.321473
     51          6           0        6.789542   -2.265567   -3.622209
     52          6           0        6.605967   -0.783971   -3.864922
     53          6           0        7.909878    0.091973   -3.729044
     54          6           0        7.578245    1.619135   -3.510077
     55          6           0        7.327266    2.372303   -4.852667
     56          6           0        8.715477    2.398142   -2.752827
     57          6           0        8.798562    2.126116   -1.226171
     58          6           0       10.216006    2.182648   -0.741151
     59          6           0       10.376168    2.288392    0.842123
     60          6           0       10.742236    3.664086    1.312644
     61          6           0       11.379093    1.291396    1.503833
     62          6           0       10.760167    0.281945    2.486048
     63          6           0       11.025118    0.530136    3.997703
     64          6           0        9.921887    0.069472    4.940801
     65          6           0        8.774361    1.179240    4.892278
     66          6           0       10.440119   -0.093358    6.332205
     67          1           0       -0.482556    2.053908   -0.055219
     68          1           0       -6.427831    4.830142    0.028784
     69          1           0       -9.123097   -0.722203    0.852617
     70          1           0       -0.772042   -2.610357    0.843810
     71          1           0        0.257990   -0.231560   -0.439709
     72          1           0       -0.126380    0.625887    2.156426
     73          1           0        1.273388   -0.076260    1.516389
     74          1           0        0.142427   -1.086263    2.494057
     75          1           0       -0.454919   -1.531910   -1.872065
     76          1           0       -1.613835   -2.893491   -1.840881
     77          1           0        0.324690   -3.433732   -2.608916
     78          1           0        0.093133   -4.344277   -1.108118
     79          1           0       -1.108688    5.349420   -1.480752
     80          1           0       -0.113719    4.116708   -0.822612
     81          1           0       -0.656847    5.322360    0.261342
     82          1           0       -2.422401    6.860653   -1.796476
     83          1           0       -1.925146    7.140362   -0.192110
     84          1           0       -3.142457    8.263908   -0.893781
     85          1           0       -8.729283    3.636470   -0.665375
     86          1           0       -9.495326    1.610608    1.341487
     87          1           0       -7.908240    4.443041    2.070244
     88          1           0       -9.676070    4.062877    1.923616
     89          1           0       -8.790731    5.305474    0.981352
     90          1           0       -9.745028    0.644242   -1.262343
     91          1           0      -10.109925    2.320419   -1.459387
     92          1           0      -12.242952    2.044929   -0.932056
     93          1           0      -11.603685    1.429048    0.685376
     94          1           0      -11.873071    0.321014   -0.706777
     95          1           0       -9.244548   -3.388864    1.627028
     96          1           0       -8.306443   -4.737491    1.079197
     97          1           0       -9.010301   -3.557638   -0.145103
     98          1           0       -3.089089   -3.960086    2.003860
     99          1           0       -1.073653   -6.443719   -0.792138
    100          1           0       -1.618243   -7.479029    0.562790
    101          1           0       -0.076721   -6.541355    0.710836
    102          1           0        4.331643   -4.716574   -1.053202
    103          1           0        4.106177   -3.217245   -0.237548
    104          1           0        4.407394   -2.836798   -3.258085
    105          1           0        8.145251   -3.663134   -1.763510
    106          1           0        6.877879   -3.746448   -0.489143
    107          1           0        7.747770   -2.275622   -0.908388
    108          1           0        6.397781   -2.844307   -4.459010
    109          1           0        7.866684   -2.418915   -3.698917
    110          1           0        5.802470   -0.459986   -3.204428
    111          1           0        6.402508   -0.614894   -4.921778
    112          1           0        8.424798    0.051001   -4.688104
    113          1           0        8.677369   -0.183671   -3.005605
    114          1           0        6.694882    1.817826   -2.903879
    115          1           0        7.176427    1.628796   -5.634903
    116          1           0        8.227310    2.829766   -5.264431
    117          1           0        6.548460    3.130708   -4.766607
    118          1           0        8.436993    3.450405   -2.701317
    119          1           0        9.698729    2.317541   -3.215822
    120          1           0        8.357485    1.182627   -0.905537
    121          1           0        8.374614    2.941456   -0.640035
    122          1           0       10.750812    3.030602   -1.168696
    123          1           0       10.793153    1.369474   -1.183258
    124          1           0        9.385249    2.217779    1.292141
    125          1           0       10.134342    4.441970    0.851111
    126          1           0       11.781622    3.875481    1.063395
    127          1           0       10.655402    3.705796    2.398125
    128          1           0       12.209906    1.721880    2.062706
    129          1           0       11.752664    0.722848    0.652801
    130          1           0       11.092292   -0.740438    2.306797
    131          1           0        9.674731    0.232889    2.396694
    132          1           0       11.451813    1.521390    4.151810
    133          1           0       11.883044   -0.047788    4.342132
    134          1           0        9.647200   -0.891377    4.504252
    135          1           0        9.101402    2.000344    5.529739
    136          1           0        7.780755    0.906575    5.248798
    137          1           0        8.803318    1.673200    3.920978
    138          1           0       10.701283   -1.149156    6.419048
    139          1           0        9.636672   -0.000168    7.062296
    140          1           0       11.359552    0.448665    6.553493
 ---------------------------------------------------------------------

 SCF Done:  E(RCAM-B3LYP) =  -3007.18724439     A.U. after   19 cycles

 Excitation energies and oscillator strengths:

 Excited State   1:      Singlet-A      1.7191 eV  721.21 nm  f=0.3781  <S**2>=0.000
     245 -> 248        0.19225
     246 -> 247        0.68145
     245 <- 248        0.11042
 This state for optimization and/or second-order correction.
 Total Energy, E(TD-HF/TD-DFT) =  -3007.12406789
 Copying the excited state density for this state as the 1-particle RhoCI density.

 Excited State   2:      Singlet-A      2.2524 eV  550.46 nm  f=0.0735  <S**2>=0.000
     245 -> 247        0.61791
     246 -> 248       -0.33358

 Excited State   3:      Singlet-A      3.4083 eV  363.78 nm  f=0.3583  <S**2>=0.000
     241 -> 247       -0.10624
     242 -> 247       -0.21089
     242 -> 249        0.12231
     243 -> 247        0.24849
     244 -> 247       -0.28056
     245 -> 247        0.22330
     246 -> 248        0.44730

 Excited State   4:      Singlet-A      3.4646 eV  357.86 nm  f=0.3295  <S**2>=0.000
     241 -> 247        0.26086
     241 -> 249       -0.12020
     242 -> 247        0.31404
     242 -> 249       -0.19600
     242 -> 250        0.12487
     244 -> 247        0.19020
     245 -> 247        0.21164
     246 -> 248        0.39069

 Excited State   5:      Singlet-A      3.5687 eV  347.43 nm  f=0.0403  <S**2>=0.000
     241 -> 247       -0.12230
     242 -> 247       -0.29982
     244 -> 247        0.57658
     246 -> 248        0.11982

 The electronic state is 1-A.
 Alpha  occ. eigenvalues --  -46.88482 -19.26064 -19.25557 -19.21201 -19.19142
 Alpha  occ. eigenvalues --  -19.18642 -19.18243 -14.41839 -14.40654 -14.39221
 Alpha  occ. eigenvalues --  -14.38719 -10.40685 -10.38683 -10.35013 -10.34419
 Alpha  occ. eigenvalues --  -10.33095 -10.32519 -10.30918 -10.29929 -10.29880
 Alpha  occ. eigenvalues --  -10.29558 -10.29509 -10.29442 -10.29380 -10.28602
 Alpha  occ. eigenvalues --  -10.28563 -10.27745 -10.27647 -10.27561 -10.27479
 Alpha  occ. eigenvalues --  -10.27413 -10.26961 -10.26909 -10.26906 -10.26529
 Alpha  occ. eigenvalues --  -10.26475 -10.26421 -10.26408 -10.26368 -10.26361
 Alpha  occ. eigenvalues --  -10.26336 -10.26250 -10.26206 -10.25952 -10.25850
 Alpha  occ. eigenvalues --  -10.25769 -10.25701 -10.25622 -10.25577 -10.25564
 Alpha  occ. eigenvalues --  -10.25533 -10.25451 -10.25273 -10.25255 -10.25071
 Alpha  occ. eigenvalues --  -10.25049 -10.24836 -10.24730 -10.24725 -10.24721
 Alpha  occ. eigenvalues --  -10.24650 -10.24584 -10.24517 -10.24359 -10.24256
 Alpha  occ. eigenvalues --  -10.24138  -3.16957  -1.91870  -1.91405  -1.91258
 Alpha  occ. eigenvalues --   -1.17394  -1.17065  -1.09729  -1.08853  -1.08777
 Alpha  occ. eigenvalues --   -1.07611  -1.05161  -1.04762  -1.03226  -1.01540
 Alpha  occ. eigenvalues --   -0.92759  -0.91273  -0.90484  -0.89973  -0.89251
 Alpha  occ. eigenvalues --   -0.88951  -0.88112  -0.87695  -0.87214  -0.86713
 Alpha  occ. eigenvalues --   -0.86028  -0.85807  -0.84835  -0.84232  -0.83319
 Alpha  occ. eigenvalues --   -0.82897  -0.82033  -0.81397  -0.81311  -0.80624
 Alpha  occ. eigenvalues --   -0.80308  -0.78165  -0.77726  -0.77494  -0.76613
 Alpha  occ. eigenvalues --   -0.76199  -0.75563  -0.74999  -0.74695  -0.74389
 Alpha  occ. eigenvalues --   -0.74157  -0.72486  -0.71264  -0.70288  -0.68713
 Alpha  occ. eigenvalues --   -0.68289  -0.67994  -0.66826  -0.66559  -0.65540
 Alpha  occ. eigenvalues --   -0.65472  -0.65368  -0.64512  -0.64167  -0.63975
 Alpha  occ. eigenvalues --   -0.63611  -0.63419  -0.62631  -0.62378  -0.60723
 Alpha  occ. eigenvalues --   -0.60296  -0.59712  -0.59339  -0.58656  -0.58522
 Alpha  occ. eigenvalues --   -0.57741  -0.57441  -0.56397  -0.56358  -0.56104
 Alpha  occ. eigenvalues --   -0.55653  -0.55322  -0.54769  -0.54585  -0.54055
 Alpha  occ. eigenvalues --   -0.53562  -0.53418  -0.53213  -0.52934  -0.52716
 Alpha  occ. eigenvalues --   -0.52601  -0.52454  -0.52234  -0.52063  -0.52015
 Alpha  occ. eigenvalues --   -0.51656  -0.51374  -0.51202  -0.50928  -0.50695
 Alpha  occ. eigenvalues --   -0.50488  -0.50208  -0.50170  -0.49883  -0.49580
 Alpha  occ. eigenvalues --   -0.49490  -0.49156  -0.48914  -0.48666  -0.48576
 Alpha  occ. eigenvalues --   -0.48422  -0.48096  -0.48010  -0.47747  -0.47703
 Alpha  occ. eigenvalues --   -0.47461  -0.47046  -0.47020  -0.46882  -0.46815
 Alpha  occ. eigenvalues --   -0.46560  -0.46465  -0.46344  -0.46140  -0.45923
 Alpha  occ. eigenvalues --   -0.45833  -0.45468  -0.45360  -0.45176  -0.44940
 Alpha  occ. eigenvalues --   -0.44762  -0.44664  -0.44319  -0.44038  -0.43977
 Alpha  occ. eigenvalues --   -0.43593  -0.43323  -0.43202  -0.43011  -0.42949
 Alpha  occ. eigenvalues --   -0.42506  -0.42415  -0.42253  -0.41931  -0.41779
 Alpha  occ. eigenvalues --   -0.41712  -0.41529  -0.41108  -0.40908  -0.40816
 Alpha  occ. eigenvalues --   -0.40433  -0.40306  -0.40134  -0.39978  -0.39948
 Alpha  occ. eigenvalues --   -0.39415  -0.39362  -0.39338  -0.39016  -0.38544
 Alpha  occ. eigenvalues --   -0.38365  -0.38345  -0.38228  -0.37928  -0.37162
 Alpha  occ. eigenvalues --   -0.37033  -0.36933  -0.36829  -0.36743  -0.36296
 Alpha  occ. eigenvalues --   -0.36062  -0.35943  -0.35398  -0.34785  -0.34642
 Alpha  occ. eigenvalues --   -0.34235  -0.33566  -0.32801  -0.30889  -0.30615
 Alpha  occ. eigenvalues --   -0.30577  -0.30383  -0.29857  -0.29318  -0.23499
 Alpha  occ. eigenvalues --   -0.20330
 Alpha virt. eigenvalues --   -0.07830  -0.01498   0.00855   0.02958   0.03202
 Alpha virt. eigenvalues --    0.03657   0.05026   0.05558   0.06211   0.07319
 Alpha virt. eigenvalues --    0.07687   0.07906   0.08824   0.09034   0.09220

 Mulliken charges:
               1
     1  Mg   0.817466
     2  C   -0.060048
     3  C   -0.065649
     4  C   -0.057740
     5  C   -0.104188
     6  N   -0.233203
     7  C   -0.048834
     8  C   -0.014449
     9  C   -0.061407
    10  C    0.016675
    11  C    0.090806
    12  C    0.075485
    13  C    0.069380
    14  C    0.175188
    15  O   -0.240496
    16  O   -0.324328
    17  N   -0.425524
    18  C    0.171227
    19  C   -0.141327
    20  C   -0.040531
    21  C    0.144835
    22  C    0.083480
    23  C    0.010167
    24  O   -0.198513
    25  C    0.050175
    26  N   -0.220369
    27  C    0.011324
    28  C   -0.037132
    29  C    0.001476
    30  C   -0.035457
    31  C    0.046350
    32  C    0.032855
    33  C    0.045370
    34  N   -0.336047
    35  C    0.138605
    36  C   -0.176912
    37  C    0.021618
    38  C    0.115107
    39  C    0.128141
    40  C    0.025582
    41  O   -0.190840
    42  C    0.056261
    43  C    0.159009
    44  O   -0.232896
    45  O   -0.321190
    46  C    0.163559
    47  C    0.291577
    48  C   -0.102674
    49  C   -0.165763
    50  C    0.083389
    51  C    0.060765
    52  C    0.041990
    53  C    0.032948
    54  C   -0.121706
    55  C    0.052589
    56  C    0.035667
    57  C    0.023504
    58  C    0.020597
    59  C   -0.114600
    60  C    0.036604
    61  C    0.090719
    62  C    0.013255
    63  C   -0.018875
    64  C   -0.132035
    65  C    0.048059
    66  C    0.073463
    67  H   -0.025412
    68  H   -0.012985
    69  H   -0.039147
    70  H   -0.012526
    71  H    0.019703
    72  H    0.000912
    73  H    0.017865
    74  H    0.019120
    75  H   -0.005656
    76  H    0.032119
    77  H    0.040123
    78  H    0.030971
    79  H    0.007629
    80  H    0.011582
    81  H    0.041449
    82  H    0.037268
    83  H    0.025867
    84  H    0.030608
    85  H    0.016033
    86  H    0.000665
    87  H    0.022235
    88  H    0.015854
    89  H    0.021606
    90  H    0.002887
    91  H   -0.004028
    92  H    0.024331
    93  H    0.010976
    94  H    0.017004
    95  H    0.025013
    96  H    0.038193
    97  H    0.035061
    98  H    0.043147
    99  H    0.056873
   100  H    0.054058
   101  H    0.046373
   102  H    0.027033
   103  H    0.033712
   104  H    0.000260
   105  H    0.023432
   106  H    0.003817
   107  H    0.020129
   108  H    0.004132
   109  H   -0.017491
   110  H    0.012602
   111  H    0.000348
   112  H   -0.011035
   113  H   -0.004511
   114  H   -0.004095
   115  H   -0.009817
   116  H   -0.002861
   117  H    0.019107
   118  H   -0.005793
   119  H    0.000937
   120  H    0.002430
   121  H   -0.004286
   122  H   -0.016143
   123  H   -0.015809
   124  H    0.000979
   125  H   -0.000080
   126  H    0.000644
   127  H    0.007361
   128  H    0.000738
   129  H   -0.015832
   130  H   -0.008078
   131  H   -0.004395
   132  H   -0.013702
   133  H   -0.022178
   134  H   -0.001973
   135  H   -0.008038
   136  H    0.019147
   137  H   -0.003120
   138  H   -0.007291
   139  H    0.005132
   140  H    0.016284
 Sum of Mulliken charges =  -0.00000

 Dipole moment (field-independent basis, Debye):
    X=              5.0081    Y=              0.0861    Z=             -1.6243  Tot=              5.2657
 Quadrupole moment (field-independent basis, Debye-Ang):
   XX=           -376.7286   YY=           -425.8116   ZZ=           -403.3535
   XY=            -21.1720   XZ=             -1.0883   YZ=             -3.3153

 Normal termination of Gaussian 16 at Thu Apr 28 11:09:13 2022.
