 Gaussian 16, Revision A.03,
 Gaussian 16:  ES64L-G16RevA.03 25-Dec-2016

 ---------------------------------
 #p PBE1PBE/Def2SVP td=(nstates=5)
 ---------------------------------

 ------------------------------------------------------
 step_1551_chromophore_15 TDDFT with PBE1PBE functional
 ------------------------------------------------------
 Symbolic Z-matrix:
 Charge =  0 Multiplicity = 1

                         Standard orientation:
 ---------------------------------------------------------------------
 Center     Atomic      Atomic             Coordinates (Angstroms)
 Number     Number       Type             X           Y           Z
 ---------------------------------------------------------------------
      1         12           0       -4.760978    0.681372    0.056879
      2          6           0       -3.693749   -2.594743    0.501103
      3          6           0       -1.523870    1.732010    0.006343
      4          6           0       -5.976962    3.835538    0.021237
      5          6           0       -8.084339   -0.445916    0.661340
      6          7           0       -2.831416   -0.365536    0.390712
      7          6           0       -2.612521   -1.668928    0.328037
      8          6           0       -1.062502   -1.899219    0.070891
      9          6           0       -0.436047   -0.519274    0.350139
     10          6           0       -1.709690    0.342031    0.250142
     11          6           0        0.231563   -0.311935    1.732208
     12          6           0       -0.739678   -2.452370   -1.362445
     13          6           0        0.343445   -3.366860   -1.520994
     14          6           0        1.703966   -2.888532   -1.171468
     15          8           0        1.975965   -1.866743   -0.524956
     16          8           0        2.624568   -3.802338   -1.622134
     17          7           0       -3.909818    2.528381   -0.067271
     18          6           0       -2.523706    2.712504   -0.186225
     19          6           0       -2.359802    4.135322   -0.463673
     20          6           0       -3.585081    4.803655   -0.278967
     21          6           0       -4.573915    3.724809   -0.085849
     22          6           0       -0.985665    4.729232   -0.592724
     23          6           0       -3.890924    6.300077   -0.351645
     24          8           0       -5.009017    6.724127   -0.098471
     25          6           0       -2.795085    7.232243   -0.842092
     26          7           0       -6.793565    1.526729    0.202321
     27          6           0       -6.946554    2.879342    0.213581
     28          6           0       -8.446833    3.171692    0.279186
     29          6           0       -9.098899    1.788778    0.342048
     30          6           0       -7.918214    0.915200    0.381430
     31          6           0       -8.751969    4.297594    1.395716
     32          6           0      -10.168853    1.502182   -0.740450
     33          6           0      -11.609945    1.333846   -0.400231
     34          7           0       -5.788837   -1.118694    0.408914
     35          6           0       -7.122683   -1.435224    0.614272
     36          6           0       -7.275584   -2.896645    0.785839
     37          6           0       -5.930008   -3.314754    0.888760
     38          6           0       -5.097860   -2.249903    0.562192
     39          6           0       -8.562153   -3.705850    0.837468
     40          6           0       -5.035613   -4.428773    1.099758
     41          8           0       -5.297027   -5.603516    1.377221
     42          6           0       -3.549533   -3.976998    1.016000
     43          6           0       -2.829602   -4.877926    0.157449
     44          8           0       -3.102964   -5.081865   -1.020367
     45          8           0       -1.920987   -5.518684    0.900509
     46          6           0       -1.082362   -6.570164    0.290839
     47          6           0        3.993132   -3.692226   -1.212040
     48          6           0        4.860042   -3.045045   -2.288027
     49          6           0        6.176433   -2.833893   -2.321107
     50          6           0        7.279303   -3.169003   -1.321473
     51          6           0        6.789542   -2.265567   -3.622209
     52          6           0        6.605967   -0.783971   -3.864922
     53          6           0        7.909878    0.091973   -3.729044
     54          6           0        7.578245    1.619135   -3.510077
     55          6           0        7.327266    2.372303   -4.852667
     56          6           0        8.715477    2.398142   -2.752827
     57          6           0        8.798562    2.126116   -1.226171
     58          6           0       10.216006    2.182648   -0.741151
     59          6           0       10.376168    2.288392    0.842123
     60          6           0       10.742236    3.664086    1.312644
     61          6           0       11.379093    1.291396    1.503833
     62          6           0       10.760167    0.281945    2.486048
     63          6           0       11.025118    0.530136    3.997703
     64          6           0        9.921887    0.069472    4.940801
     65          6           0        8.774361    1.179240    4.892278
     66          6           0       10.440119   -0.093358    6.332205
     67          1           0       -0.482556    2.053908   -0.055219
     68          1           0       -6.427831    4.830142    0.028784
     69          1           0       -9.123097   -0.722203    0.852617
     70          1           0       -0.772042   -2.610357    0.843810
     71          1           0        0.257990   -0.231560   -0.439709
     72          1           0       -0.126380    0.625887    2.156426
     73          1           0        1.273388   -0.076260    1.516389
     74          1           0        0.142427   -1.086263    2.494057
     75          1           0       -0.454919   -1.531910   -1.872065
     76          1           0       -1.613835   -2.893491   -1.840881
     77          1           0        0.324690   -3.433732   -2.608916
     78          1           0        0.093133   -4.344277   -1.108118
     79          1           0       -1.108688    5.349420   -1.480752
     80          1           0       -0.113719    4.116708   -0.822612
     81          1           0       -0.656847    5.322360    0.261342
     82          1           0       -2.422401    6.860653   -1.796476
     83          1           0       -1.925146    7.140362   -0.192110
     84          1           0       -3.142457    8.263908   -0.893781
     85          1           0       -8.729283    3.636470   -0.665375
     86          1           0       -9.495326    1.610608    1.341487
     87          1           0       -7.908240    4.443041    2.070244
     88          1           0       -9.676070    4.062877    1.923616
     89          1           0       -8.790731    5.305474    0.981352
     90          1           0       -9.745028    0.644242   -1.262343
     91          1           0      -10.109925    2.320419   -1.459387
     92          1           0      -12.242952    2.044929   -0.932056
     93          1           0      -11.603685    1.429048    0.685376
     94          1           0      -11.873071    0.321014   -0.706777
     95          1           0       -9.244548   -3.388864    1.627028
     96          1           0       -8.306443   -4.737491    1.079197
     97          1           0       -9.010301   -3.557638   -0.145103
     98          1           0       -3.089089   -3.960086    2.003860
     99          1           0       -1.073653   -6.443719   -0.792138
    100          1           0       -1.618243   -7.479029    0.562790
    101          1           0       -0.076721   -6.541355    0.710836
    102          1           0        4.331643   -4.716574   -1.053202
    103          1           0        4.106177   -3.217245   -0.237548
    104          1           0        4.407394   -2.836798   -3.258085
    105          1           0        8.145251   -3.663134   -1.763510
    106          1           0        6.877879   -3.746448   -0.489143
    107          1           0        7.747770   -2.275622   -0.908388
    108          1           0        6.397781   -2.844307   -4.459010
    109          1           0        7.866684   -2.418915   -3.698917
    110          1           0        5.802470   -0.459986   -3.204428
    111          1           0        6.402508   -0.614894   -4.921778
    112          1           0        8.424798    0.051001   -4.688104
    113          1           0        8.677369   -0.183671   -3.005605
    114          1           0        6.694882    1.817826   -2.903879
    115          1           0        7.176427    1.628796   -5.634903
    116          1           0        8.227310    2.829766   -5.264431
    117          1           0        6.548460    3.130708   -4.766607
    118          1           0        8.436993    3.450405   -2.701317
    119          1           0        9.698729    2.317541   -3.215822
    120          1           0        8.357485    1.182627   -0.905537
    121          1           0        8.374614    2.941456   -0.640035
    122          1           0       10.750812    3.030602   -1.168696
    123          1           0       10.793153    1.369474   -1.183258
    124          1           0        9.385249    2.217779    1.292141
    125          1           0       10.134342    4.441970    0.851111
    126          1           0       11.781622    3.875481    1.063395
    127          1           0       10.655402    3.705796    2.398125
    128          1           0       12.209906    1.721880    2.062706
    129          1           0       11.752664    0.722848    0.652801
    130          1           0       11.092292   -0.740438    2.306797
    131          1           0        9.674731    0.232889    2.396694
    132          1           0       11.451813    1.521390    4.151810
    133          1           0       11.883044   -0.047788    4.342132
    134          1           0        9.647200   -0.891377    4.504252
    135          1           0        9.101402    2.000344    5.529739
    136          1           0        7.780755    0.906575    5.248798
    137          1           0        8.803318    1.673200    3.920978
    138          1           0       10.701283   -1.149156    6.419048
    139          1           0        9.636672   -0.000168    7.062296
    140          1           0       11.359552    0.448665    6.553493
 ---------------------------------------------------------------------

 SCF Done:  E(RPBE1PBE) =  -3005.37618057     A.U. after   15 cycles

 Excitation energies and oscillator strengths:

 Excited State   1:      Singlet-A      1.8752 eV  661.17 nm  f=0.3664  <S**2>=0.000
     245 -> 248        0.18541
     246 -> 247        0.68870
     246 <- 247       -0.10341
 This state for optimization and/or second-order correction.
 Total Energy, E(TD-HF/TD-DFT) =  -3005.30726758
 Copying the excited state density for this state as the 1-particle RhoCI density.

 Excited State   2:      Singlet-A      2.2509 eV  550.83 nm  f=0.0784  <S**2>=0.000
     245 -> 247        0.63591
     246 -> 248       -0.29725

 Excited State   3:      Singlet-A      3.0004 eV  413.23 nm  f=0.0017  <S**2>=0.000
     242 -> 247        0.10116
     243 -> 247        0.38464
     243 -> 249       -0.12493
     244 -> 247        0.53792
     244 -> 249       -0.11436

 Excited State   4:      Singlet-A      3.2116 eV  386.05 nm  f=0.0368  <S**2>=0.000
     242 -> 247        0.18622
     243 -> 247        0.50509
     244 -> 247       -0.39497
     246 -> 248        0.18367

 Excited State   5:      Singlet-A      3.2655 eV  379.68 nm  f=0.3264  <S**2>=0.000
     239 -> 247        0.12518
     242 -> 247        0.20916
     243 -> 247       -0.19745
     244 -> 247        0.16912
     245 -> 247        0.22012
     246 -> 248        0.54269
     246 -> 249        0.11406

 The electronic state is 1-A.
 Alpha  occ. eigenvalues --  -46.91873 -19.26727 -19.26152 -19.21455 -19.19316
 Alpha  occ. eigenvalues --  -19.18919 -19.18355 -14.41313 -14.40136 -14.38950
 Alpha  occ. eigenvalues --  -14.38353 -10.37656 -10.35595 -10.32217 -10.31484
 Alpha  occ. eigenvalues --  -10.30469 -10.29694 -10.28611 -10.27778 -10.27677
 Alpha  occ. eigenvalues --  -10.27245 -10.27232 -10.27153 -10.27103 -10.26192
 Alpha  occ. eigenvalues --  -10.26127 -10.25542 -10.25481 -10.25288 -10.25211
 Alpha  occ. eigenvalues --  -10.24836 -10.24776 -10.24653 -10.24441 -10.24317
 Alpha  occ. eigenvalues --  -10.24298 -10.24219 -10.23975 -10.23895 -10.23891
 Alpha  occ. eigenvalues --  -10.23882 -10.23771 -10.23672 -10.23501 -10.23342
 Alpha  occ. eigenvalues --  -10.23296 -10.23291 -10.23237 -10.23235 -10.23124
 Alpha  occ. eigenvalues --  -10.23111 -10.22999 -10.22964 -10.22679 -10.22648
 Alpha  occ. eigenvalues --  -10.22635 -10.22409 -10.22277 -10.22263 -10.22246
 Alpha  occ. eigenvalues --  -10.22192 -10.21995 -10.21922 -10.21919 -10.21630
 Alpha  occ. eigenvalues --  -10.21510  -3.13930  -1.86785  -1.86297  -1.86155
 Alpha  occ. eigenvalues --   -1.12180  -1.11786  -1.04527  -1.03662  -1.03404
 Alpha  occ. eigenvalues --   -1.02346  -0.99793  -0.99404  -0.97863  -0.96297
 Alpha  occ. eigenvalues --   -0.87074  -0.85467  -0.84611  -0.84063  -0.83555
 Alpha  occ. eigenvalues --   -0.83049  -0.82471  -0.81819  -0.81558  -0.81028
 Alpha  occ. eigenvalues --   -0.80279  -0.80109  -0.79034  -0.78501  -0.77556
 Alpha  occ. eigenvalues --   -0.77161  -0.76303  -0.75624  -0.75594  -0.74800
 Alpha  occ. eigenvalues --   -0.74590  -0.72436  -0.72057  -0.71807  -0.70894
 Alpha  occ. eigenvalues --   -0.70432  -0.69638  -0.69344  -0.68827  -0.68622
 Alpha  occ. eigenvalues --   -0.68392  -0.66942  -0.65736  -0.64610  -0.63074
 Alpha  occ. eigenvalues --   -0.62744  -0.62234  -0.61196  -0.60902  -0.60054
 Alpha  occ. eigenvalues --   -0.59915  -0.59571  -0.59083  -0.58501  -0.58263
 Alpha  occ. eigenvalues --   -0.58062  -0.57583  -0.56910  -0.56842  -0.55063
 Alpha  occ. eigenvalues --   -0.54705  -0.54289  -0.53915  -0.53196  -0.52919
 Alpha  occ. eigenvalues --   -0.52246  -0.52003  -0.50938  -0.50873  -0.50603
 Alpha  occ. eigenvalues --   -0.50205  -0.49803  -0.49220  -0.49004  -0.48514
 Alpha  occ. eigenvalues --   -0.48134  -0.47930  -0.47647  -0.47504  -0.47363
 Alpha  occ. eigenvalues --   -0.47078  -0.46919  -0.46835  -0.46595  -0.46456
 Alpha  occ. eigenvalues --   -0.46202  -0.45913  -0.45795  -0.45452  -0.45222
 Alpha  occ. eigenvalues --   -0.45092  -0.44752  -0.44705  -0.44438  -0.44178
 Alpha  occ. eigenvalues --   -0.44071  -0.43803  -0.43500  -0.43304  -0.43142
 Alpha  occ. eigenvalues --   -0.42980  -0.42700  -0.42631  -0.42397  -0.42325
 Alpha  occ. eigenvalues --   -0.42027  -0.41733  -0.41672  -0.41542  -0.41454
 Alpha  occ. eigenvalues --   -0.41157  -0.41144  -0.41058  -0.40837  -0.40702
 Alpha  occ. eigenvalues --   -0.40561  -0.40079  -0.39989  -0.39925  -0.39645
 Alpha  occ. eigenvalues --   -0.39468  -0.39380  -0.39130  -0.38843  -0.38736
 Alpha  occ. eigenvalues --   -0.38391  -0.38163  -0.38033  -0.37744  -0.37676
 Alpha  occ. eigenvalues --   -0.37275  -0.37251  -0.37050  -0.36738  -0.36566
 Alpha  occ. eigenvalues --   -0.36453  -0.36394  -0.36013  -0.35654  -0.35570
 Alpha  occ. eigenvalues --   -0.35344  -0.35109  -0.34961  -0.34807  -0.34737
 Alpha  occ. eigenvalues --   -0.34349  -0.34291  -0.34144  -0.33953  -0.33330
 Alpha  occ. eigenvalues --   -0.33275  -0.33152  -0.33042  -0.32710  -0.32053
 Alpha  occ. eigenvalues --   -0.31996  -0.31830  -0.31738  -0.31669  -0.31286
 Alpha  occ. eigenvalues --   -0.31128  -0.30825  -0.30266  -0.29682  -0.29605
 Alpha  occ. eigenvalues --   -0.29071  -0.28699  -0.28317  -0.26276  -0.25864
 Alpha  occ. eigenvalues --   -0.25669  -0.25482  -0.25230  -0.24853  -0.20420
 Alpha  occ. eigenvalues --   -0.18036
 Alpha virt. eigenvalues --   -0.10350  -0.04957  -0.03369  -0.01452  -0.00962
 Alpha virt. eigenvalues --    0.00464   0.00648   0.00982   0.02287   0.03438
 Alpha virt. eigenvalues --    0.03845   0.04571   0.04921   0.05639   0.05855

 Mulliken charges:
               1
     1  Mg   0.963055
     2  C   -0.052212
     3  C   -0.052928
     4  C   -0.050235
     5  C   -0.088459
     6  N   -0.338818
     7  C    0.036608
     8  C   -0.084630
     9  C   -0.136842
    10  C    0.049075
    11  C    0.038421
    12  C    0.019763
    13  C   -0.015570
    14  C    0.245274
    15  O   -0.273731
    16  O   -0.358175
    17  N   -0.543187
    18  C    0.198023
    19  C   -0.173673
    20  C   -0.089168
    21  C    0.182543
    22  C    0.023704
    23  C    0.064777
    24  O   -0.236494
    25  C   -0.026100
    26  N   -0.333328
    27  C    0.043950
    28  C   -0.108068
    29  C   -0.082506
    30  C    0.012873
    31  C   -0.013688
    32  C   -0.022767
    33  C   -0.030849
    34  N   -0.463006
    35  C    0.150901
    36  C   -0.181153
    37  C   -0.033903
    38  C    0.155545
    39  C    0.071762
    40  C    0.125150
    41  O   -0.236452
    42  C   -0.079501
    43  C    0.264057
    44  O   -0.270416
    45  O   -0.357248
    46  C    0.108926
    47  C    0.255268
    48  C   -0.117162
    49  C   -0.210131
    50  C    0.021041
    51  C   -0.000883
    52  C   -0.020927
    53  C   -0.024802
    54  C   -0.206129
    55  C   -0.005990
    56  C   -0.019844
    57  C   -0.044724
    58  C   -0.026833
    59  C   -0.200210
    60  C   -0.026701
    61  C    0.031626
    62  C   -0.046466
    63  C   -0.068933
    64  C   -0.229427
    65  C   -0.017831
    66  C    0.010317
    67  H    0.005417
    68  H    0.020224
    69  H   -0.006311
    70  H    0.026837
    71  H    0.053611
    72  H    0.030044
    73  H    0.045879
    74  H    0.046191
    75  H    0.028960
    76  H    0.064531
    77  H    0.073162
    78  H    0.071282
    79  H    0.037373
    80  H    0.038827
    81  H    0.068912
    82  H    0.065010
    83  H    0.053947
    84  H    0.058402
    85  H    0.054029
    86  H    0.039367
    87  H    0.050194
    88  H    0.044304
    89  H    0.047971
    90  H    0.036641
    91  H    0.028619
    92  H    0.051472
    93  H    0.038828
    94  H    0.044715
    95  H    0.051462
    96  H    0.065460
    97  H    0.062232
    98  H    0.079474
    99  H    0.075081
   100  H    0.076752
   101  H    0.067013
   102  H    0.053706
   103  H    0.058899
   104  H    0.029744
   105  H    0.049971
   106  H    0.031770
   107  H    0.048600
   108  H    0.036726
   109  H    0.015088
   110  H    0.044343
   111  H    0.033361
   112  H    0.022862
   113  H    0.028165
   114  H    0.033614
   115  H    0.018039
   116  H    0.024746
   117  H    0.046194
   118  H    0.028650
   119  H    0.031715
   120  H    0.035688
   121  H    0.029994
   122  H    0.016527
   123  H    0.016048
   124  H    0.039097
   125  H    0.028144
   126  H    0.029210
   127  H    0.037211
   128  H    0.032226
   129  H    0.018459
   130  H    0.025001
   131  H    0.028062
   132  H    0.017794
   133  H    0.012629
   134  H    0.035268
   135  H    0.020767
   136  H    0.046556
   137  H    0.028081
   138  H    0.021964
   139  H    0.033663
   140  H    0.042945
 Sum of Mulliken charges =  -0.00000

 Dipole moment (field-independent basis, Debye):
    X=              5.0565    Y=              0.3326    Z=             -1.6552  Tot=              5.3309
 Quadrupole moment (field-independent basis, Debye-Ang):
   XX=           -371.0923   YY=           -423.2472   ZZ=           -400.6987
   XY=            -22.4849   XZ=             -0.9447   YZ=             -3.2546

 Normal termination of Gaussian 16 at Thu Apr 28 11:30:14 2022.
