 Gaussian 16, Revision A.03,
 Gaussian 16:  ES64L-G16RevA.03 25-Dec-2016

 --------------------------------
 #p wB97XD/Def2SVP td=(nstates=5)
 --------------------------------

 -----------------------------------------------------
 step_1551_chromophore_15 TDDFT with wB97XD functional
 -----------------------------------------------------
 Symbolic Z-matrix:
 Charge =  0 Multiplicity = 1

                         Standard orientation:
 ---------------------------------------------------------------------
 Center     Atomic      Atomic             Coordinates (Angstroms)
 Number     Number       Type             X           Y           Z
 ---------------------------------------------------------------------
      1         12           0       -4.760978    0.681372    0.056879
      2          6           0       -3.693749   -2.594743    0.501103
      3          6           0       -1.523870    1.732010    0.006343
      4          6           0       -5.976962    3.835538    0.021237
      5          6           0       -8.084339   -0.445916    0.661340
      6          7           0       -2.831416   -0.365536    0.390712
      7          6           0       -2.612521   -1.668928    0.328037
      8          6           0       -1.062502   -1.899219    0.070891
      9          6           0       -0.436047   -0.519274    0.350139
     10          6           0       -1.709690    0.342031    0.250142
     11          6           0        0.231563   -0.311935    1.732208
     12          6           0       -0.739678   -2.452370   -1.362445
     13          6           0        0.343445   -3.366860   -1.520994
     14          6           0        1.703966   -2.888532   -1.171468
     15          8           0        1.975965   -1.866743   -0.524956
     16          8           0        2.624568   -3.802338   -1.622134
     17          7           0       -3.909818    2.528381   -0.067271
     18          6           0       -2.523706    2.712504   -0.186225
     19          6           0       -2.359802    4.135322   -0.463673
     20          6           0       -3.585081    4.803655   -0.278967
     21          6           0       -4.573915    3.724809   -0.085849
     22          6           0       -0.985665    4.729232   -0.592724
     23          6           0       -3.890924    6.300077   -0.351645
     24          8           0       -5.009017    6.724127   -0.098471
     25          6           0       -2.795085    7.232243   -0.842092
     26          7           0       -6.793565    1.526729    0.202321
     27          6           0       -6.946554    2.879342    0.213581
     28          6           0       -8.446833    3.171692    0.279186
     29          6           0       -9.098899    1.788778    0.342048
     30          6           0       -7.918214    0.915200    0.381430
     31          6           0       -8.751969    4.297594    1.395716
     32          6           0      -10.168853    1.502182   -0.740450
     33          6           0      -11.609945    1.333846   -0.400231
     34          7           0       -5.788837   -1.118694    0.408914
     35          6           0       -7.122683   -1.435224    0.614272
     36          6           0       -7.275584   -2.896645    0.785839
     37          6           0       -5.930008   -3.314754    0.888760
     38          6           0       -5.097860   -2.249903    0.562192
     39          6           0       -8.562153   -3.705850    0.837468
     40          6           0       -5.035613   -4.428773    1.099758
     41          8           0       -5.297027   -5.603516    1.377221
     42          6           0       -3.549533   -3.976998    1.016000
     43          6           0       -2.829602   -4.877926    0.157449
     44          8           0       -3.102964   -5.081865   -1.020367
     45          8           0       -1.920987   -5.518684    0.900509
     46          6           0       -1.082362   -6.570164    0.290839
     47          6           0        3.993132   -3.692226   -1.212040
     48          6           0        4.860042   -3.045045   -2.288027
     49          6           0        6.176433   -2.833893   -2.321107
     50          6           0        7.279303   -3.169003   -1.321473
     51          6           0        6.789542   -2.265567   -3.622209
     52          6           0        6.605967   -0.783971   -3.864922
     53          6           0        7.909878    0.091973   -3.729044
     54          6           0        7.578245    1.619135   -3.510077
     55          6           0        7.327266    2.372303   -4.852667
     56          6           0        8.715477    2.398142   -2.752827
     57          6           0        8.798562    2.126116   -1.226171
     58          6           0       10.216006    2.182648   -0.741151
     59          6           0       10.376168    2.288392    0.842123
     60          6           0       10.742236    3.664086    1.312644
     61          6           0       11.379093    1.291396    1.503833
     62          6           0       10.760167    0.281945    2.486048
     63          6           0       11.025118    0.530136    3.997703
     64          6           0        9.921887    0.069472    4.940801
     65          6           0        8.774361    1.179240    4.892278
     66          6           0       10.440119   -0.093358    6.332205
     67          1           0       -0.482556    2.053908   -0.055219
     68          1           0       -6.427831    4.830142    0.028784
     69          1           0       -9.123097   -0.722203    0.852617
     70          1           0       -0.772042   -2.610357    0.843810
     71          1           0        0.257990   -0.231560   -0.439709
     72          1           0       -0.126380    0.625887    2.156426
     73          1           0        1.273388   -0.076260    1.516389
     74          1           0        0.142427   -1.086263    2.494057
     75          1           0       -0.454919   -1.531910   -1.872065
     76          1           0       -1.613835   -2.893491   -1.840881
     77          1           0        0.324690   -3.433732   -2.608916
     78          1           0        0.093133   -4.344277   -1.108118
     79          1           0       -1.108688    5.349420   -1.480752
     80          1           0       -0.113719    4.116708   -0.822612
     81          1           0       -0.656847    5.322360    0.261342
     82          1           0       -2.422401    6.860653   -1.796476
     83          1           0       -1.925146    7.140362   -0.192110
     84          1           0       -3.142457    8.263908   -0.893781
     85          1           0       -8.729283    3.636470   -0.665375
     86          1           0       -9.495326    1.610608    1.341487
     87          1           0       -7.908240    4.443041    2.070244
     88          1           0       -9.676070    4.062877    1.923616
     89          1           0       -8.790731    5.305474    0.981352
     90          1           0       -9.745028    0.644242   -1.262343
     91          1           0      -10.109925    2.320419   -1.459387
     92          1           0      -12.242952    2.044929   -0.932056
     93          1           0      -11.603685    1.429048    0.685376
     94          1           0      -11.873071    0.321014   -0.706777
     95          1           0       -9.244548   -3.388864    1.627028
     96          1           0       -8.306443   -4.737491    1.079197
     97          1           0       -9.010301   -3.557638   -0.145103
     98          1           0       -3.089089   -3.960086    2.003860
     99          1           0       -1.073653   -6.443719   -0.792138
    100          1           0       -1.618243   -7.479029    0.562790
    101          1           0       -0.076721   -6.541355    0.710836
    102          1           0        4.331643   -4.716574   -1.053202
    103          1           0        4.106177   -3.217245   -0.237548
    104          1           0        4.407394   -2.836798   -3.258085
    105          1           0        8.145251   -3.663134   -1.763510
    106          1           0        6.877879   -3.746448   -0.489143
    107          1           0        7.747770   -2.275622   -0.908388
    108          1           0        6.397781   -2.844307   -4.459010
    109          1           0        7.866684   -2.418915   -3.698917
    110          1           0        5.802470   -0.459986   -3.204428
    111          1           0        6.402508   -0.614894   -4.921778
    112          1           0        8.424798    0.051001   -4.688104
    113          1           0        8.677369   -0.183671   -3.005605
    114          1           0        6.694882    1.817826   -2.903879
    115          1           0        7.176427    1.628796   -5.634903
    116          1           0        8.227310    2.829766   -5.264431
    117          1           0        6.548460    3.130708   -4.766607
    118          1           0        8.436993    3.450405   -2.701317
    119          1           0        9.698729    2.317541   -3.215822
    120          1           0        8.357485    1.182627   -0.905537
    121          1           0        8.374614    2.941456   -0.640035
    122          1           0       10.750812    3.030602   -1.168696
    123          1           0       10.793153    1.369474   -1.183258
    124          1           0        9.385249    2.217779    1.292141
    125          1           0       10.134342    4.441970    0.851111
    126          1           0       11.781622    3.875481    1.063395
    127          1           0       10.655402    3.705796    2.398125
    128          1           0       12.209906    1.721880    2.062706
    129          1           0       11.752664    0.722848    0.652801
    130          1           0       11.092292   -0.740438    2.306797
    131          1           0        9.674731    0.232889    2.396694
    132          1           0       11.451813    1.521390    4.151810
    133          1           0       11.883044   -0.047788    4.342132
    134          1           0        9.647200   -0.891377    4.504252
    135          1           0        9.101402    2.000344    5.529739
    136          1           0        7.780755    0.906575    5.248798
    137          1           0        8.803318    1.673200    3.920978
    138          1           0       10.701283   -1.149156    6.419048
    139          1           0        9.636672   -0.000168    7.062296
    140          1           0       11.359552    0.448665    6.553493
 ---------------------------------------------------------------------

 SCF Done:  E(RwB97XD) =  -3007.88336526     A.U. after   19 cycles

 Excitation energies and oscillator strengths:

 Excited State   1:      Singlet-A      1.6604 eV  746.71 nm  f=0.3759  <S**2>=0.000
     245 -> 248        0.19808
     246 -> 247        0.67934
     245 <- 248        0.12025
 This state for optimization and/or second-order correction.
 Total Energy, E(TD-HF/TD-DFT) =  -3007.82234621
 Copying the excited state density for this state as the 1-particle RhoCI density.

 Excited State   2:      Singlet-A      2.1943 eV  565.03 nm  f=0.0722  <S**2>=0.000
     245 -> 247        0.61728
     246 -> 248       -0.33423

 Excited State   3:      Singlet-A      3.4144 eV  363.12 nm  f=0.3710  <S**2>=0.000
     242 -> 247       -0.16372
     242 -> 249        0.12832
     243 -> 247        0.28817
     244 -> 247       -0.28343
     245 -> 247        0.22301
     246 -> 248        0.45324

 Excited State   4:      Singlet-A      3.4750 eV  356.79 nm  f=0.2956  <S**2>=0.000
     240 -> 247       -0.14488
     242 -> 247        0.38661
     242 -> 249       -0.23719
     242 -> 250       -0.15127
     244 -> 247        0.17783
     245 -> 247        0.19771
     246 -> 248        0.36690

 Excited State   5:      Singlet-A      3.5847 eV  345.87 nm  f=0.0766  <S**2>=0.000
     242 -> 247       -0.32383
     242 -> 249        0.11026
     244 -> 247        0.56046
     246 -> 248        0.15994

 The electronic state is 1-A.
 Alpha  occ. eigenvalues --  -46.94817 -19.31301 -19.30796 -19.26124 -19.24122
 Alpha  occ. eigenvalues --  -19.23633 -19.23349 -14.46400 -14.45220 -14.43812
 Alpha  occ. eigenvalues --  -14.43332 -10.44466 -10.42536 -10.38952 -10.38486
 Alpha  occ. eigenvalues --  -10.36959 -10.36280 -10.34979 -10.33925 -10.33884
 Alpha  occ. eigenvalues --  -10.33634 -10.33479 -10.33435 -10.33388 -10.32768
 Alpha  occ. eigenvalues --  -10.32647 -10.31844 -10.31822 -10.31552 -10.31550
 Alpha  occ. eigenvalues --  -10.31287 -10.31022 -10.30952 -10.30947 -10.30532
 Alpha  occ. eigenvalues --  -10.30478 -10.30432 -10.30335 -10.30287 -10.30284
 Alpha  occ. eigenvalues --  -10.30249 -10.30245 -10.30154 -10.29801 -10.29780
 Alpha  occ. eigenvalues --  -10.29725 -10.29705 -10.29545 -10.29515 -10.29498
 Alpha  occ. eigenvalues --  -10.29487 -10.29320 -10.29277 -10.29167 -10.29075
 Alpha  occ. eigenvalues --  -10.28992 -10.28768 -10.28645 -10.28622 -10.28577
 Alpha  occ. eigenvalues --  -10.28563 -10.28415 -10.28343 -10.28273 -10.28058
 Alpha  occ. eigenvalues --  -10.27959  -3.20735  -1.94338  -1.93849  -1.93706
 Alpha  occ. eigenvalues --   -1.19570  -1.19265  -1.11911  -1.11043  -1.11018
 Alpha  occ. eigenvalues --   -1.09830  -1.07159  -1.06763  -1.05303  -1.03550
 Alpha  occ. eigenvalues --   -0.94786  -0.93113  -0.92277  -0.91726  -0.91117
 Alpha  occ. eigenvalues --   -0.90709  -0.90013  -0.89474  -0.89131  -0.88626
 Alpha  occ. eigenvalues --   -0.87995  -0.87715  -0.86685  -0.86150  -0.85173
 Alpha  occ. eigenvalues --   -0.84772  -0.83949  -0.83259  -0.83243  -0.82453
 Alpha  occ. eigenvalues --   -0.82241  -0.80101  -0.79641  -0.79403  -0.78535
 Alpha  occ. eigenvalues --   -0.78079  -0.77337  -0.76928  -0.76504  -0.76246
 Alpha  occ. eigenvalues --   -0.76024  -0.74495  -0.73240  -0.72203  -0.70644
 Alpha  occ. eigenvalues --   -0.70280  -0.69863  -0.68735  -0.68484  -0.67508
 Alpha  occ. eigenvalues --   -0.67389  -0.67209  -0.66516  -0.65979  -0.65956
 Alpha  occ. eigenvalues --   -0.65548  -0.65235  -0.64468  -0.64369  -0.62594
 Alpha  occ. eigenvalues --   -0.62210  -0.61680  -0.61331  -0.60640  -0.60493
 Alpha  occ. eigenvalues --   -0.59694  -0.59447  -0.58339  -0.58321  -0.58025
 Alpha  occ. eigenvalues --   -0.57592  -0.57262  -0.56659  -0.56468  -0.55953
 Alpha  occ. eigenvalues --   -0.55518  -0.55305  -0.55074  -0.54859  -0.54672
 Alpha  occ. eigenvalues --   -0.54483  -0.54318  -0.54141  -0.53966  -0.53904
 Alpha  occ. eigenvalues --   -0.53540  -0.53294  -0.53139  -0.52844  -0.52591
 Alpha  occ. eigenvalues --   -0.52385  -0.52102  -0.52060  -0.51833  -0.51487
 Alpha  occ. eigenvalues --   -0.51380  -0.51071  -0.50836  -0.50598  -0.50480
 Alpha  occ. eigenvalues --   -0.50373  -0.49981  -0.49909  -0.49662  -0.49612
 Alpha  occ. eigenvalues --   -0.49320  -0.49005  -0.48906  -0.48807  -0.48693
 Alpha  occ. eigenvalues --   -0.48404  -0.48381  -0.48268  -0.48042  -0.47832
 Alpha  occ. eigenvalues --   -0.47741  -0.47299  -0.47206  -0.47089  -0.46886
 Alpha  occ. eigenvalues --   -0.46715  -0.46540  -0.46268  -0.45943  -0.45913
 Alpha  occ. eigenvalues --   -0.45512  -0.45268  -0.45119  -0.44885  -0.44858
 Alpha  occ. eigenvalues --   -0.44401  -0.44340  -0.44203  -0.43907  -0.43713
 Alpha  occ. eigenvalues --   -0.43590  -0.43536  -0.42979  -0.42759  -0.42660
 Alpha  occ. eigenvalues --   -0.42351  -0.42181  -0.42010  -0.41851  -0.41815
 Alpha  occ. eigenvalues --   -0.41314  -0.41264  -0.41197  -0.40907  -0.40375
 Alpha  occ. eigenvalues --   -0.40264  -0.40196  -0.40085  -0.39757  -0.39005
 Alpha  occ. eigenvalues --   -0.38946  -0.38881  -0.38790  -0.38614  -0.38209
 Alpha  occ. eigenvalues --   -0.38195  -0.37792  -0.37232  -0.36682  -0.36470
 Alpha  occ. eigenvalues --   -0.36206  -0.35576  -0.35027  -0.32873  -0.32677
 Alpha  occ. eigenvalues --   -0.32622  -0.32444  -0.32037  -0.31496  -0.25418
 Alpha  occ. eigenvalues --   -0.22136
 Alpha virt. eigenvalues --   -0.06196   0.00409   0.02902   0.05059   0.05897
 Alpha virt. eigenvalues --    0.06314   0.07350   0.07662   0.08929   0.09886
 Alpha virt. eigenvalues --    0.10280   0.11290   0.11792   0.12360   0.12556

 Mulliken charges:
               1
     1  Mg   0.955699
     2  C   -0.064050
     3  C   -0.072093
     4  C   -0.068149
     5  C   -0.111500
     6  N   -0.302649
     7  C   -0.002253
     8  C   -0.061051
     9  C   -0.107855
    10  C    0.035745
    11  C    0.045227
    12  C    0.036529
    13  C    0.007029
    14  C    0.231452
    15  O   -0.269176
    16  O   -0.356315
    17  N   -0.510604
    18  C    0.186506
    19  C   -0.159862
    20  C   -0.083061
    21  C    0.170133
    22  C    0.036084
    23  C    0.057804
    24  O   -0.231309
    25  C   -0.010394
    26  N   -0.296061
    27  C    0.034526
    28  C   -0.085328
    29  C   -0.055427
    30  C    0.000766
    31  C   -0.001738
    32  C   -0.009933
    33  C   -0.013319
    34  N   -0.425829
    35  C    0.147126
    36  C   -0.181388
    37  C   -0.026606
    38  C    0.144183
    39  C    0.083114
    40  C    0.103775
    41  O   -0.225800
    42  C   -0.027086
    43  C    0.230013
    44  O   -0.262098
    45  O   -0.353080
    46  C    0.121914
    47  C    0.267129
    48  C   -0.128251
    49  C   -0.196307
    50  C    0.035254
    51  C    0.016897
    52  C   -0.003940
    53  C   -0.007825
    54  C   -0.179577
    55  C    0.005526
    56  C   -0.004216
    57  C   -0.025010
    58  C   -0.013629
    59  C   -0.170144
    60  C   -0.010870
    61  C    0.047475
    62  C   -0.029575
    63  C   -0.054916
    64  C   -0.196453
    65  C   -0.001562
    66  C    0.019634
    67  H   -0.000532
    68  H    0.014018
    69  H   -0.011708
    70  H    0.013193
    71  H    0.042453
    72  H    0.022411
    73  H    0.040939
    74  H    0.041419
    75  H    0.018409
    76  H    0.057678
    77  H    0.067918
    78  H    0.056688
    79  H    0.028207
    80  H    0.035174
    81  H    0.063466
    82  H    0.057966
    83  H    0.046384
    84  H    0.057327
    85  H    0.042265
    86  H    0.025995
    87  H    0.043501
    88  H    0.038571
    89  H    0.042799
    90  H    0.027184
    91  H    0.020616
    92  H    0.046994
    93  H    0.031223
    94  H    0.038830
    95  H    0.047342
    96  H    0.062834
    97  H    0.057518
    98  H    0.074290
    99  H    0.071553
   100  H    0.074462
   101  H    0.064712
   102  H    0.049305
   103  H    0.055204
   104  H    0.026767
   105  H    0.044681
   106  H    0.026600
   107  H    0.042181
   108  H    0.029876
   109  H    0.006086
   110  H    0.034470
   111  H    0.024864
   112  H    0.013248
   113  H    0.017208
   114  H    0.022417
   115  H    0.010300
   116  H    0.018165
   117  H    0.042072
   118  H    0.019742
   119  H    0.022779
   120  H    0.025891
   121  H    0.019142
   122  H    0.006820
   123  H    0.005970
   124  H    0.023222
   125  H    0.022373
   126  H    0.021670
   127  H    0.029062
   128  H    0.023268
   129  H    0.009963
   130  H    0.018163
   131  H    0.015296
   132  H    0.006538
   133  H    0.002820
   134  H    0.024696
   135  H    0.012961
   136  H    0.042288
   137  H    0.016690
   138  H    0.015726
   139  H    0.028373
   140  H    0.037750
 Sum of Mulliken charges =  -0.00000

 Dipole moment (field-independent basis, Debye):
    X=              5.0228    Y=              0.0664    Z=             -1.6281  Tot=              5.2805
 Quadrupole moment (field-independent basis, Debye-Ang):
   XX=           -370.9523   YY=           -421.6570   ZZ=           -400.3131
   XY=            -20.6872   XZ=             -1.0345   YZ=             -3.6605

 Normal termination of Gaussian 16 at Thu Apr 28 11:53:53 2022.
