 Gaussian 16, Revision A.03,
 Gaussian 16:  ES64L-G16RevA.03 25-Dec-2016

 --------------------
 #p ZINDO=(nstates=5)
 --------------------

 ------------------------------
 step_1551_chromophore_15 ZINDO
 ------------------------------
 Symbolic Z-matrix:
 Charge =  0 Multiplicity = 1

                         Standard orientation:
 ---------------------------------------------------------------------
 Center     Atomic      Atomic             Coordinates (Angstroms)
 Number     Number       Type             X           Y           Z
 ---------------------------------------------------------------------
      1         12           0       -4.760978    0.681372    0.056879
      2          6           0       -3.693749   -2.594743    0.501103
      3          6           0       -1.523870    1.732010    0.006343
      4          6           0       -5.976962    3.835538    0.021237
      5          6           0       -8.084339   -0.445916    0.661340
      6          7           0       -2.831416   -0.365536    0.390712
      7          6           0       -2.612521   -1.668928    0.328037
      8          6           0       -1.062502   -1.899219    0.070891
      9          6           0       -0.436047   -0.519274    0.350139
     10          6           0       -1.709690    0.342031    0.250142
     11          6           0        0.231563   -0.311935    1.732208
     12          6           0       -0.739678   -2.452370   -1.362445
     13          6           0        0.343445   -3.366860   -1.520994
     14          6           0        1.703966   -2.888532   -1.171468
     15          8           0        1.975965   -1.866743   -0.524956
     16          8           0        2.624568   -3.802338   -1.622134
     17          7           0       -3.909818    2.528381   -0.067271
     18          6           0       -2.523706    2.712504   -0.186225
     19          6           0       -2.359802    4.135322   -0.463673
     20          6           0       -3.585081    4.803655   -0.278967
     21          6           0       -4.573915    3.724809   -0.085849
     22          6           0       -0.985665    4.729232   -0.592724
     23          6           0       -3.890924    6.300077   -0.351645
     24          8           0       -5.009017    6.724127   -0.098471
     25          6           0       -2.795085    7.232243   -0.842092
     26          7           0       -6.793565    1.526729    0.202321
     27          6           0       -6.946554    2.879342    0.213581
     28          6           0       -8.446833    3.171692    0.279186
     29          6           0       -9.098899    1.788778    0.342048
     30          6           0       -7.918214    0.915200    0.381430
     31          6           0       -8.751969    4.297594    1.395716
     32          6           0      -10.168853    1.502182   -0.740450
     33          6           0      -11.609945    1.333846   -0.400231
     34          7           0       -5.788837   -1.118694    0.408914
     35          6           0       -7.122683   -1.435224    0.614272
     36          6           0       -7.275584   -2.896645    0.785839
     37          6           0       -5.930008   -3.314754    0.888760
     38          6           0       -5.097860   -2.249903    0.562192
     39          6           0       -8.562153   -3.705850    0.837468
     40          6           0       -5.035613   -4.428773    1.099758
     41          8           0       -5.297027   -5.603516    1.377221
     42          6           0       -3.549533   -3.976998    1.016000
     43          6           0       -2.829602   -4.877926    0.157449
     44          8           0       -3.102964   -5.081865   -1.020367
     45          8           0       -1.920987   -5.518684    0.900509
     46          6           0       -1.082362   -6.570164    0.290839
     47          6           0        3.993132   -3.692226   -1.212040
     48          6           0        4.860042   -3.045045   -2.288027
     49          6           0        6.176433   -2.833893   -2.321107
     50          6           0        7.279303   -3.169003   -1.321473
     51          6           0        6.789542   -2.265567   -3.622209
     52          6           0        6.605967   -0.783971   -3.864922
     53          6           0        7.909878    0.091973   -3.729044
     54          6           0        7.578245    1.619135   -3.510077
     55          6           0        7.327266    2.372303   -4.852667
     56          6           0        8.715477    2.398142   -2.752827
     57          6           0        8.798562    2.126116   -1.226171
     58          6           0       10.216006    2.182648   -0.741151
     59          6           0       10.376168    2.288392    0.842123
     60          6           0       10.742236    3.664086    1.312644
     61          6           0       11.379093    1.291396    1.503833
     62          6           0       10.760167    0.281945    2.486048
     63          6           0       11.025118    0.530136    3.997703
     64          6           0        9.921887    0.069472    4.940801
     65          6           0        8.774361    1.179240    4.892278
     66          6           0       10.440119   -0.093358    6.332205
     67          1           0       -0.482556    2.053908   -0.055219
     68          1           0       -6.427831    4.830142    0.028784
     69          1           0       -9.123097   -0.722203    0.852617
     70          1           0       -0.772042   -2.610357    0.843810
     71          1           0        0.257990   -0.231560   -0.439709
     72          1           0       -0.126380    0.625887    2.156426
     73          1           0        1.273388   -0.076260    1.516389
     74          1           0        0.142427   -1.086263    2.494057
     75          1           0       -0.454919   -1.531910   -1.872065
     76          1           0       -1.613835   -2.893491   -1.840881
     77          1           0        0.324690   -3.433732   -2.608916
     78          1           0        0.093133   -4.344277   -1.108118
     79          1           0       -1.108688    5.349420   -1.480752
     80          1           0       -0.113719    4.116708   -0.822612
     81          1           0       -0.656847    5.322360    0.261342
     82          1           0       -2.422401    6.860653   -1.796476
     83          1           0       -1.925146    7.140362   -0.192110
     84          1           0       -3.142457    8.263908   -0.893781
     85          1           0       -8.729283    3.636470   -0.665375
     86          1           0       -9.495326    1.610608    1.341487
     87          1           0       -7.908240    4.443041    2.070244
     88          1           0       -9.676070    4.062877    1.923616
     89          1           0       -8.790731    5.305474    0.981352
     90          1           0       -9.745028    0.644242   -1.262343
     91          1           0      -10.109925    2.320419   -1.459387
     92          1           0      -12.242952    2.044929   -0.932056
     93          1           0      -11.603685    1.429048    0.685376
     94          1           0      -11.873071    0.321014   -0.706777
     95          1           0       -9.244548   -3.388864    1.627028
     96          1           0       -8.306443   -4.737491    1.079197
     97          1           0       -9.010301   -3.557638   -0.145103
     98          1           0       -3.089089   -3.960086    2.003860
     99          1           0       -1.073653   -6.443719   -0.792138
    100          1           0       -1.618243   -7.479029    0.562790
    101          1           0       -0.076721   -6.541355    0.710836
    102          1           0        4.331643   -4.716574   -1.053202
    103          1           0        4.106177   -3.217245   -0.237548
    104          1           0        4.407394   -2.836798   -3.258085
    105          1           0        8.145251   -3.663134   -1.763510
    106          1           0        6.877879   -3.746448   -0.489143
    107          1           0        7.747770   -2.275622   -0.908388
    108          1           0        6.397781   -2.844307   -4.459010
    109          1           0        7.866684   -2.418915   -3.698917
    110          1           0        5.802470   -0.459986   -3.204428
    111          1           0        6.402508   -0.614894   -4.921778
    112          1           0        8.424798    0.051001   -4.688104
    113          1           0        8.677369   -0.183671   -3.005605
    114          1           0        6.694882    1.817826   -2.903879
    115          1           0        7.176427    1.628796   -5.634903
    116          1           0        8.227310    2.829766   -5.264431
    117          1           0        6.548460    3.130708   -4.766607
    118          1           0        8.436993    3.450405   -2.701317
    119          1           0        9.698729    2.317541   -3.215822
    120          1           0        8.357485    1.182627   -0.905537
    121          1           0        8.374614    2.941456   -0.640035
    122          1           0       10.750812    3.030602   -1.168696
    123          1           0       10.793153    1.369474   -1.183258
    124          1           0        9.385249    2.217779    1.292141
    125          1           0       10.134342    4.441970    0.851111
    126          1           0       11.781622    3.875481    1.063395
    127          1           0       10.655402    3.705796    2.398125
    128          1           0       12.209906    1.721880    2.062706
    129          1           0       11.752664    0.722848    0.652801
    130          1           0       11.092292   -0.740438    2.306797
    131          1           0        9.674731    0.232889    2.396694
    132          1           0       11.451813    1.521390    4.151810
    133          1           0       11.883044   -0.047788    4.342132
    134          1           0        9.647200   -0.891377    4.504252
    135          1           0        9.101402    2.000344    5.529739
    136          1           0        7.780755    0.906575    5.248798
    137          1           0        8.803318    1.673200    3.920978
    138          1           0       10.701283   -1.149156    6.419048
    139          1           0        9.636672   -0.000168    7.062296
    140          1           0       11.359552    0.448665    6.553493
 ---------------------------------------------------------------------

 SCF Done:  E(RZINDO/S) =  -474.694724862     A.U. after   19 cycles

 Excitation energies and oscillator strengths:

 Excited State   1:      Singlet-A      1.2527 eV  989.75 nm  f=0.5849  <S**2>=0.000
     175 ->178        -0.20269
     176 ->177         0.65986
 This state for optimization and/or second-order correction.
 Total Energy, E(CIS/TDA) =  -474.648689845
 Copying the excited state density for this state as the 1-particle RhoCI density.

 Excited State   2:      Singlet-A      1.9057 eV  650.58 nm  f=0.0124  <S**2>=0.000
     175 ->177         0.51294
     176 ->178         0.46561

 Excited State   3:      Singlet-A      2.8808 eV  430.39 nm  f=0.0133  <S**2>=0.000
     167 ->179         0.12594
     168 ->177         0.29318
     168 ->179        -0.32871
     168 ->181         0.18508
     168 ->182         0.10445
     168 ->186         0.15411
     169 ->177         0.18184
     169 ->179        -0.19202
     169 ->181         0.11096

 Excited State   4:      Singlet-A      2.9293 eV  423.25 nm  f=0.6004  <S**2>=0.000
     175 ->177        -0.30391
     176 ->178         0.36708
     176 ->179         0.46999

 Excited State   5:      Singlet-A      2.9930 eV  414.24 nm  f=0.6550  <S**2>=0.000
     175 ->177         0.31076
     176 ->178        -0.32708
     176 ->179         0.46006
     176 ->181         0.18439

 The electronic state is 1-A.
 Alpha  occ. eigenvalues --   -1.85833  -1.83689  -1.80191  -1.74789  -1.74229
 Alpha  occ. eigenvalues --   -1.71457  -1.64615  -1.60772  -1.59704  -1.57465
 Alpha  occ. eigenvalues --   -1.56383  -1.54478  -1.50254  -1.48824  -1.47816
 Alpha  occ. eigenvalues --   -1.44514  -1.42282  -1.40905  -1.39757  -1.38928
 Alpha  occ. eigenvalues --   -1.37167  -1.33212  -1.32917  -1.32030  -1.28640
 Alpha  occ. eigenvalues --   -1.28351  -1.25947  -1.22328  -1.20624  -1.20241
 Alpha  occ. eigenvalues --   -1.17455  -1.15987  -1.15953  -1.14553  -1.13194
 Alpha  occ. eigenvalues --   -1.12614  -1.10596  -1.09915  -1.05737  -1.04157
 Alpha  occ. eigenvalues --   -1.03797  -1.00893  -0.97876  -0.97338  -0.96756
 Alpha  occ. eigenvalues --   -0.95657  -0.94107  -0.93118  -0.92804  -0.92155
 Alpha  occ. eigenvalues --   -0.91608  -0.90551  -0.88469  -0.88163  -0.86119
 Alpha  occ. eigenvalues --   -0.85715  -0.83567  -0.83374  -0.82251  -0.80495
 Alpha  occ. eigenvalues --   -0.80028  -0.79791  -0.76909  -0.76738  -0.76118
 Alpha  occ. eigenvalues --   -0.75803  -0.75481  -0.74527  -0.74058  -0.73234
 Alpha  occ. eigenvalues --   -0.73024  -0.72478  -0.72335  -0.71160  -0.70690
 Alpha  occ. eigenvalues --   -0.70031  -0.69975  -0.69271  -0.68703  -0.68513
 Alpha  occ. eigenvalues --   -0.68116  -0.67674  -0.67048  -0.66045  -0.65645
 Alpha  occ. eigenvalues --   -0.65348  -0.65163  -0.64778  -0.64150  -0.63570
 Alpha  occ. eigenvalues --   -0.63354  -0.62585  -0.62067  -0.61838  -0.61087
 Alpha  occ. eigenvalues --   -0.60912  -0.60490  -0.60383  -0.59986  -0.59224
 Alpha  occ. eigenvalues --   -0.59006  -0.58842  -0.58727  -0.58536  -0.57863
 Alpha  occ. eigenvalues --   -0.57818  -0.57675  -0.56854  -0.56651  -0.56280
 Alpha  occ. eigenvalues --   -0.55973  -0.55374  -0.54968  -0.54641  -0.54452
 Alpha  occ. eigenvalues --   -0.54068  -0.53938  -0.53276  -0.52991  -0.52724
 Alpha  occ. eigenvalues --   -0.52411  -0.52208  -0.51773  -0.51163  -0.51080
 Alpha  occ. eigenvalues --   -0.50740  -0.50477  -0.50429  -0.50056  -0.49931
 Alpha  occ. eigenvalues --   -0.49638  -0.49257  -0.49133  -0.48769  -0.48533
 Alpha  occ. eigenvalues --   -0.48512  -0.48135  -0.47880  -0.47832  -0.47701
 Alpha  occ. eigenvalues --   -0.47051  -0.46887  -0.46628  -0.46422  -0.46289
 Alpha  occ. eigenvalues --   -0.46060  -0.45772  -0.45374  -0.45201  -0.45080
 Alpha  occ. eigenvalues --   -0.44605  -0.44565  -0.44536  -0.44293  -0.43870
 Alpha  occ. eigenvalues --   -0.43374  -0.43201  -0.42844  -0.42198  -0.42166
 Alpha  occ. eigenvalues --   -0.41918  -0.41433  -0.41277  -0.39056  -0.38687
 Alpha  occ. eigenvalues --   -0.37862  -0.36350  -0.35054  -0.34742  -0.34584
 Alpha  occ. eigenvalues --   -0.33156  -0.32930  -0.32255  -0.31580  -0.26095
 Alpha  occ. eigenvalues --   -0.20961
 Alpha virt. eigenvalues --   -0.07710  -0.01815  -0.00138   0.00978   0.01743
 Alpha virt. eigenvalues --    0.02620   0.02829   0.03551   0.04493   0.05026
 Alpha virt. eigenvalues --    0.06863   0.07195   0.07982   0.08103   0.08435

 Mulliken charges:
               1
     1  Mg   0.423967
     2  C   -0.076994
     3  C   -0.078019
     4  C   -0.055574
     5  C   -0.081081
     6  N   -0.257542
     7  C    0.127330
     8  C    0.010196
     9  C    0.005506
    10  C    0.114878
    11  C   -0.049725
    12  C   -0.014951
    13  C    0.017880
    14  C    0.476006
    15  O   -0.528023
    16  O   -0.272364
    17  N   -0.321582
    18  C    0.075634
    19  C    0.000840
    20  C   -0.054063
    21  C    0.127406
    22  C   -0.051694
    23  C    0.328570
    24  O   -0.524111
    25  C   -0.031037
    26  N   -0.262129
    27  C    0.106690
    28  C   -0.003004
    29  C    0.008126
    30  C    0.172591
    31  C   -0.060435
    32  C   -0.026892
    33  C   -0.053661
    34  N   -0.336003
    35  C    0.111832
    36  C    0.039529
    37  C   -0.040837
    38  C    0.129024
    39  C   -0.032345
    40  C    0.338614
    41  O   -0.527593
    42  C    0.065443
    43  C    0.504652
    44  O   -0.544514
    45  O   -0.270271
    46  C    0.071098
    47  C    0.115687
    48  C   -0.076647
    49  C   -0.005097
    50  C   -0.041816
    51  C   -0.026245
    52  C   -0.028456
    53  C   -0.034508
    54  C   -0.018008
    55  C   -0.063979
    56  C   -0.040631
    57  C   -0.035772
    58  C   -0.033660
    59  C   -0.015040
    60  C   -0.050262
    61  C   -0.031875
    62  C   -0.039593
    63  C   -0.039123
    64  C   -0.003340
    65  C   -0.065971
    66  C   -0.052861
    67  H    0.032744
    68  H    0.042145
    69  H    0.019153
    70  H    0.022378
    71  H    0.043910
    72  H    0.016095
    73  H    0.023134
    74  H    0.029790
    75  H    0.023057
    76  H    0.030952
    77  H    0.039009
    78  H    0.051833
    79  H    0.019764
    80  H    0.021891
    81  H    0.029741
    82  H    0.037721
    83  H    0.035542
    84  H    0.038611
    85  H    0.029285
    86  H    0.028373
    87  H    0.027058
    88  H    0.020213
    89  H    0.025283
    90  H    0.017895
    91  H    0.015930
    92  H    0.029099
    93  H    0.025701
    94  H    0.020184
    95  H    0.031252
    96  H    0.037965
    97  H    0.039439
    98  H    0.054864
    99  H    0.049920
   100  H    0.046605
   101  H    0.038278
   102  H    0.034195
   103  H    0.054180
   104  H    0.034833
   105  H    0.029974
   106  H    0.016348
   107  H    0.027762
   108  H    0.017267
   109  H    0.013589
   110  H    0.030145
   111  H    0.021525
   112  H    0.015992
   113  H    0.024303
   114  H    0.023649
   115  H    0.014481
   116  H    0.014241
   117  H    0.025412
   118  H    0.013158
   119  H    0.027573
   120  H    0.021801
   121  H    0.019228
   122  H    0.012465
   123  H    0.012156
   124  H    0.019164
   125  H    0.012099
   126  H    0.011514
   127  H    0.014876
   128  H    0.028783
   129  H    0.013485
   130  H    0.014037
   131  H    0.016197
   132  H    0.019908
   133  H    0.000150
   134  H    0.026931
   135  H    0.011195
   136  H    0.026222
   137  H    0.020120
   138  H    0.003555
   139  H    0.018399
   140  H    0.030103
 Sum of Mulliken charges =  -0.00000

 Dipole moment (field-independent basis, Debye):
    X=              5.3937    Y=             -0.0369    Z=             -1.4654  Tot=              5.5894
 N-N= 4.372929807773D+03 E-N= 0.000000000000D+00  KE=-9.421002726476D+03
 Leave Link  601 at Thu Apr 28 12:07:00 2022, MaxMem=  6710886400 cpu:               2.9 elap:               0.1
 (Enter /sw/apps/gaussian-16.0/g16/l9999.exe)
 1\1\GINC-BP1-COMPUTE159\SP\RZINDO CIS\STO-3G\C55H74Mg1N4O6\OF15641\28-
 Apr-2022\0\\#p ZINDO=(nstates=5)\\step_1551_chromophore_15 ZINDO\\0,1\
 Mg,0,46.334,34.96,28.191\C,0,44.782,33.379,30.867\C,0,46.732,37.766,30
 .076\C,0,47.461,36.466,25.382\C,0,45.39,32.19,26.162\N,0,45.652,35.515
 ,30.23\C,0,45.26,34.692,31.189\C,0,45.416,35.442,32.58\C,0,45.628,36.9
 15,32.18\C,0,46.024,36.704,30.706\C,0,44.4,37.855,32.265\C,0,46.569,34
 .867,33.477\C,0,46.398,34.85,34.893\C,0,46.23,36.154,35.581\O,0,45.975

 Normal termination of Gaussian 16 at Thu Apr 28 12:07:00 2022.
