 Gaussian 16, Revision A.03,
 Gaussian 16:  ES64L-G16RevA.03 25-Dec-2016

 ------------------------------
 #p blyp/Def2SVP td=(nstates=5)
 ------------------------------

 -------------------------------------------------
 step_451_chromophore_4 TDDFT with blyp functional
 -------------------------------------------------
 Symbolic Z-matrix:
 Charge =  0 Multiplicity = 1

                         Standard orientation:
 ---------------------------------------------------------------------
 Center     Atomic      Atomic             Coordinates (Angstroms)
 Number     Number       Type             X           Y           Z
 ---------------------------------------------------------------------
      1         12           0        5.949603    0.510153    0.191633
      2          6           0        3.727656   -2.049371    0.220089
      3          6           0        3.342065    2.661215   -0.720493
      4          6           0        8.212764    3.138553    0.048061
      5          6           0        8.642869   -1.681823    0.620459
      6          7           0        3.788632    0.299562   -0.246632
      7          6           0        3.098898   -0.836277   -0.046439
      8          6           0        1.546196   -0.611755   -0.270165
      9          6           0        1.507366    0.897673   -0.686014
     10          6           0        2.954799    1.355576   -0.554960
     11          6           0        0.878063    1.103903   -2.070390
     12          6           0        0.760428   -0.998180    0.969122
     13          6           0       -0.710318   -0.793738    0.874272
     14          6           0       -1.625827   -1.965742    0.685170
     15          8           0       -2.070587   -2.677679    1.591725
     16          8           0       -2.088034   -2.111911   -0.632428
     17          7           0        5.765098    2.584573   -0.140939
     18          6           0        4.621100    3.233328   -0.548355
     19          6           0        4.947746    4.671686   -0.610817
     20          6           0        6.358753    4.883254   -0.395691
     21          6           0        6.844381    3.511784   -0.102035
     22          6           0        3.884678    5.732434   -0.880012
     23          6           0        7.233764    6.135599   -0.457115
     24          8           0        8.394923    6.236507   -0.048590
     25          6           0        6.529788    7.401420   -0.862254
     26          7           0        8.113645    0.710178    0.293675
     27          6           0        8.779493    1.892312    0.196964
     28          6           0       10.262058    1.627541    0.462234
     29          6           0       10.400382    0.064446    0.402323
     30          6           0        8.954796   -0.330376    0.451523
     31          6           0       11.102029    2.410434   -0.694812
     32          6           0       11.241414   -0.589629    1.581762
     33          6           0       12.405959   -1.450259    1.169524
     34          7           0        6.197502   -1.388110    0.348057
     35          6           0        7.275403   -2.249903    0.594986
     36          6           0        6.906526   -3.644359    0.639444
     37          6           0        5.481193   -3.589180    0.526722
     38          6           0        5.113436   -2.211262    0.404373
     39          6           0        7.733128   -4.803307    0.907692
     40          6           0        4.315238   -4.405012    0.329138
     41          8           0        4.283834   -5.600516    0.150186
     42          6           0        3.097551   -3.497152    0.334183
     43          6           0        2.315896   -3.927086   -0.801754
     44          8           0        2.540354   -3.545139   -1.926846
     45          8           0        1.120163   -4.516383   -0.377171
     46          6           0        0.311706   -4.992136   -1.577352
     47          6           0       -3.207502   -2.989988   -0.889270
     48          6           0       -4.539262   -2.380290   -0.409428
     49          6           0       -5.701545   -2.914905   -0.140299
     50          6           0       -5.977091   -4.454264   -0.066238
     51          6           0       -6.882612   -2.062184    0.341116
     52          6           0       -7.688705   -1.328497   -0.726206
     53          6           0       -7.987826    0.223389   -0.512362
     54          6           0       -9.484403    0.570305   -0.743080
     55          6           0       -9.865069    0.507352   -2.210316
     56          6           0       -9.761374    1.995708   -0.285591
     57          6           0      -10.106936    2.067037    1.220801
     58          6           0      -11.254486    3.053718    1.693200
     59          6           0      -12.622653    2.405732    2.067157
     60          6           0      -13.051870    2.504150    3.532843
     61          6           0      -13.881553    2.902472    1.125913
     62          6           0      -14.969711    1.857575    1.177105
     63          6           0      -15.441340    1.350360   -0.190470
     64          6           0      -14.943380    0.039114   -0.730759
     65          6           0      -13.753343    0.162588   -1.659387
     66          6           0      -16.008694   -0.885900   -1.292001
     67          1           0        2.515918    3.304884   -1.029953
     68          1           0        8.973469    3.920482    0.003909
     69          1           0        9.345854   -2.379852    1.079422
     70          1           0        1.262644   -1.372912   -0.996691
     71          1           0        0.825192    1.433149   -0.026440
     72          1           0        1.395232    1.917258   -2.579235
     73          1           0       -0.068872    1.636312   -1.993648
     74          1           0        0.779851    0.191132   -2.657519
     75          1           0        1.196071   -0.503941    1.837989
     76          1           0        0.847774   -2.083715    1.019058
     77          1           0       -1.047237   -0.133429    0.075322
     78          1           0       -1.038032   -0.346609    1.812732
     79          1           0        2.916939    5.231259   -0.905017
     80          1           0        4.133891    6.196526   -1.834431
     81          1           0        3.737559    6.452807   -0.075557
     82          1           0        5.903743    7.596356    0.008776
     83          1           0        5.880025    7.340305   -1.734257
     84          1           0        7.298778    8.126989   -1.128804
     85          1           0       10.463503    2.012394    1.461742
     86          1           0       10.824958   -0.226768   -0.558551
     87          1           0       11.710187    3.146777   -0.168167
     88          1           0       10.510520    3.029324   -1.369947
     89          1           0       11.699559    1.846800   -1.410736
     90          1           0       10.597901   -1.208325    2.207165
     91          1           0       11.622480    0.231040    2.189127
     92          1           0       12.438236   -1.707365    0.111092
     93          1           0       12.462752   -2.258445    1.898092
     94          1           0       13.266059   -0.828605    1.420304
     95          1           0        8.163451   -4.629316    1.893146
     96          1           0        8.414250   -4.824010    0.056003
     97          1           0        7.079799   -5.676334    0.908745
     98          1           0        2.556717   -3.628425    1.271099
     99          1           0       -0.415847   -4.341096   -2.062054
    100          1           0       -0.308587   -5.768846   -1.131114
    101          1           0        1.011289   -5.341422   -2.336681
    102          1           0       -2.999802   -3.925930   -0.370355
    103          1           0       -3.217051   -3.300695   -1.933086
    104          1           0       -4.523922   -1.296912   -0.290139
    105          1           0       -6.905401   -4.862495   -0.465852
    106          1           0       -5.918778   -4.799534    0.966685
    107          1           0       -5.197257   -4.935266   -0.656535
    108          1           0       -6.540205   -1.365244    1.106477
    109          1           0       -7.461482   -2.797647    0.899799
    110          1           0       -8.667524   -1.805023   -0.777088
    111          1           0       -7.223820   -1.516074   -1.694269
    112          1           0       -7.339559    0.835212   -1.139236
    113          1           0       -7.725988    0.445903    0.521665
    114          1           0       -9.986296   -0.142362   -0.088366
    115          1           0      -10.933589    0.692008   -2.317165
    116          1           0       -9.671316   -0.553365   -2.370113
    117          1           0       -9.270967    1.111362   -2.896874
    118          1           0      -10.649116    2.350763   -0.809362
    119          1           0       -8.967485    2.720813   -0.461379
    120          1           0       -9.224881    2.520360    1.674905
    121          1           0      -10.270714    1.141266    1.772283
    122          1           0      -11.566675    3.715762    0.885856
    123          1           0      -10.917290    3.735212    2.474443
    124          1           0      -12.538384    1.358644    1.775394
    125          1           0      -13.752684    3.322719    3.700348
    126          1           0      -12.250680    2.741579    4.232425
    127          1           0      -13.481209    1.564724    3.882676
    128          1           0      -13.520329    3.210498    0.145059
    129          1           0      -14.325582    3.798552    1.561275
    130          1           0      -15.808267    2.264992    1.741928
    131          1           0      -14.647456    1.035225    1.815613
    132          1           0      -15.165302    2.135631   -0.894640
    133          1           0      -16.524047    1.427451   -0.094984
    134          1           0      -14.427634   -0.498235    0.064924
    135          1           0      -13.029729    0.956217   -1.479813
    136          1           0      -14.279082    0.392052   -2.586635
    137          1           0      -13.189944   -0.763490   -1.776943
    138          1           0      -16.977451   -0.386278   -1.295732
    139          1           0      -16.065819   -1.754240   -0.634250
    140          1           0      -15.620037   -1.281310   -2.230246
 ---------------------------------------------------------------------

 SCF Done:  E(RB-LYP) =  -3007.36257821     A.U. after   21 cycles

 Excitation energies and oscillator strengths:

 Excited State   1:      Singlet-A      1.8101 eV  684.97 nm  f=0.3098  <S**2>=0.000
     245 -> 248        0.18589
     246 -> 247        0.69048
     246 <- 247       -0.15411
 This state for optimization and/or second-order correction.
 Total Energy, E(TD-HF/TD-DFT) =  -3007.29605897
 Copying the excited state density for this state as the 1-particle RhoCI density.

 Excited State   2:      Singlet-A      2.0138 eV  615.69 nm  f=0.0353  <S**2>=0.000
     243 -> 247        0.40605
     244 -> 247        0.36186
     245 -> 247        0.42195
     246 -> 248       -0.14253

 Excited State   3:      Singlet-A      2.0330 eV  609.86 nm  f=0.0013  <S**2>=0.000
     243 -> 247       -0.48992
     244 -> 247        0.50751

 Excited State   4:      Singlet-A      2.0812 eV  595.75 nm  f=0.0525  <S**2>=0.000
     243 -> 247       -0.30427
     244 -> 247       -0.33224
     245 -> 247        0.49049
     246 -> 248       -0.20984

 Excited State   5:      Singlet-A      2.4754 eV  500.87 nm  f=0.0002  <S**2>=0.000
     241 -> 247        0.70550

 The electronic state is 1-A.
 Alpha  occ. eigenvalues --  -46.26036 -18.82410 -18.81991 -18.77188 -18.76860
 Alpha  occ. eigenvalues --  -18.75963 -18.75650 -14.03389 -14.02657 -14.01448
 Alpha  occ. eigenvalues --  -14.01217 -10.04352 -10.03791 -10.00308  -9.99288
 Alpha  occ. eigenvalues --   -9.98452  -9.97580  -9.96607  -9.96451  -9.96327
 Alpha  occ. eigenvalues --   -9.96091  -9.96062  -9.95943  -9.95786  -9.94943
 Alpha  occ. eigenvalues --   -9.94364  -9.94197  -9.94124  -9.93988  -9.93957
 Alpha  occ. eigenvalues --   -9.93938  -9.93725  -9.93613  -9.93448  -9.93361
 Alpha  occ. eigenvalues --   -9.93067  -9.93057  -9.93026  -9.92828  -9.92650
 Alpha  occ. eigenvalues --   -9.92447  -9.92331  -9.92264  -9.92262  -9.92098
 Alpha  occ. eigenvalues --   -9.92037  -9.91871  -9.91869  -9.91817  -9.91699
 Alpha  occ. eigenvalues --   -9.91691  -9.91633  -9.91608  -9.91595  -9.91201
 Alpha  occ. eigenvalues --   -9.91102  -9.90989  -9.90911  -9.90816  -9.90810
 Alpha  occ. eigenvalues --   -9.90762  -9.90757  -9.90688  -9.90679  -9.90573
 Alpha  occ. eigenvalues --   -9.90561  -2.90918  -1.71339  -1.70788  -1.70652
 Alpha  occ. eigenvalues --   -0.97348  -0.97115  -0.92292  -0.91163  -0.89889
 Alpha  occ. eigenvalues --   -0.89298  -0.86472  -0.86025  -0.85171  -0.83614
 Alpha  occ. eigenvalues --   -0.75495  -0.74166  -0.73465  -0.73015  -0.72367
 Alpha  occ. eigenvalues --   -0.72284  -0.71716  -0.70996  -0.70760  -0.70717
 Alpha  occ. eigenvalues --   -0.69869  -0.69430  -0.67936  -0.67480  -0.67100
 Alpha  occ. eigenvalues --   -0.66666  -0.66000  -0.65282  -0.65006  -0.64531
 Alpha  occ. eigenvalues --   -0.64110  -0.62908  -0.62541  -0.61607  -0.61016
 Alpha  occ. eigenvalues --   -0.60445  -0.60269  -0.59728  -0.59556  -0.59158
 Alpha  occ. eigenvalues --   -0.58900  -0.57712  -0.57085  -0.56088  -0.54197
 Alpha  occ. eigenvalues --   -0.53999  -0.53727  -0.52700  -0.52369  -0.51487
 Alpha  occ. eigenvalues --   -0.51295  -0.50969  -0.50790  -0.50521  -0.49621
 Alpha  occ. eigenvalues --   -0.49227  -0.49031  -0.48445  -0.48027  -0.46510
 Alpha  occ. eigenvalues --   -0.46296  -0.46249  -0.45818  -0.45232  -0.44978
 Alpha  occ. eigenvalues --   -0.44488  -0.44069  -0.43038  -0.42653  -0.42283
 Alpha  occ. eigenvalues --   -0.42026  -0.41876  -0.41128  -0.40985  -0.40908
 Alpha  occ. eigenvalues --   -0.40836  -0.40476  -0.40368  -0.40287  -0.40079
 Alpha  occ. eigenvalues --   -0.40020  -0.39935  -0.39812  -0.39741  -0.39621
 Alpha  occ. eigenvalues --   -0.39269  -0.39179  -0.38719  -0.38308  -0.38168
 Alpha  occ. eigenvalues --   -0.38165  -0.37877  -0.37737  -0.37480  -0.37460
 Alpha  occ. eigenvalues --   -0.37142  -0.36934  -0.36754  -0.36620  -0.36575
 Alpha  occ. eigenvalues --   -0.36259  -0.36149  -0.36009  -0.35916  -0.35784
 Alpha  occ. eigenvalues --   -0.35335  -0.35164  -0.35083  -0.34963  -0.34603
 Alpha  occ. eigenvalues --   -0.34353  -0.34293  -0.34221  -0.34077  -0.33637
 Alpha  occ. eigenvalues --   -0.33552  -0.33515  -0.33469  -0.33298  -0.33110
 Alpha  occ. eigenvalues --   -0.32769  -0.32679  -0.32626  -0.32553  -0.32413
 Alpha  occ. eigenvalues --   -0.32168  -0.31850  -0.31817  -0.31787  -0.31396
 Alpha  occ. eigenvalues --   -0.31306  -0.31206  -0.30925  -0.30847  -0.30740
 Alpha  occ. eigenvalues --   -0.30465  -0.30451  -0.30262  -0.30142  -0.29850
 Alpha  occ. eigenvalues --   -0.29713  -0.29495  -0.29319  -0.29123  -0.28967
 Alpha  occ. eigenvalues --   -0.28766  -0.28577  -0.28542  -0.28274  -0.28177
 Alpha  occ. eigenvalues --   -0.27412  -0.27262  -0.27131  -0.26526  -0.26299
 Alpha  occ. eigenvalues --   -0.26173  -0.25631  -0.25608  -0.25476  -0.25356
 Alpha  occ. eigenvalues --   -0.24728  -0.24344  -0.24178  -0.23636  -0.23458
 Alpha  occ. eigenvalues --   -0.23262  -0.22380  -0.22098  -0.21838  -0.20937
 Alpha  occ. eigenvalues --   -0.20753  -0.20452  -0.19057  -0.19041  -0.17404
 Alpha  occ. eigenvalues --   -0.15881
 Alpha virt. eigenvalues --   -0.11657  -0.06891  -0.06120  -0.04625  -0.03993
 Alpha virt. eigenvalues --   -0.03484  -0.01660  -0.01371  -0.01140   0.00182
 Alpha virt. eigenvalues --    0.01092   0.01378   0.02138   0.02790   0.02891

 Mulliken charges:
               1
     1  Mg   0.717335
     2  C   -0.029424
     3  C   -0.078096
     4  C   -0.023207
     5  C   -0.092139
     6  N   -0.207859
     7  C   -0.073197
     8  C    0.001933
     9  C    0.028739
    10  C    0.037341
    11  C    0.132042
    12  C    0.098650
    13  C    0.187835
    14  C    0.053751
    15  O   -0.196595
    16  O   -0.289039
    17  N   -0.306451
    18  C    0.179367
    19  C   -0.166177
    20  C    0.028336
    21  C    0.102909
    22  C    0.167469
    23  C   -0.055427
    24  O   -0.171970
    25  C    0.131005
    26  N   -0.185979
    27  C   -0.005498
    28  C    0.015534
    29  C    0.067035
    30  C    0.039761
    31  C    0.086408
    32  C    0.063349
    33  C    0.086681
    34  N   -0.350534
    35  C    0.069065
    36  C   -0.199324
    37  C    0.090800
    38  C    0.135668
    39  C    0.195816
    40  C   -0.112950
    41  O   -0.128017
    42  C    0.132770
    43  C    0.114405
    44  O   -0.173563
    45  O   -0.294932
    46  C    0.195084
    47  C    0.312317
    48  C   -0.076637
    49  C   -0.159944
    50  C    0.109488
    51  C    0.143637
    52  C    0.088802
    53  C    0.079067
    54  C   -0.087679
    55  C    0.134807
    56  C    0.141915
    57  C    0.054033
    58  C    0.116444
    59  C   -0.105563
    60  C    0.116648
    61  C    0.073658
    62  C    0.064210
    63  C    0.133126
    64  C   -0.066733
    65  C    0.045035
    66  C    0.141816
    67  H   -0.063426
    68  H   -0.044671
    69  H   -0.041255
    70  H   -0.007386
    71  H   -0.026543
    72  H   -0.027415
    73  H   -0.026588
    74  H    0.016324
    75  H   -0.023463
    76  H    0.003921
    77  H   -0.016919
    78  H   -0.004377
    79  H   -0.032491
    80  H    0.015744
    81  H    0.003465
    82  H    0.018049
    83  H   -0.011553
    84  H   -0.001054
    85  H   -0.004958
    86  H   -0.017100
    87  H   -0.004371
    88  H   -0.001019
    89  H   -0.009811
    90  H   -0.017131
    91  H   -0.027235
    92  H    0.004459
    93  H   -0.014073
    94  H   -0.017900
    95  H    0.015277
    96  H    0.008996
    97  H    0.007709
    98  H    0.020903
    99  H    0.020875
   100  H    0.013914
   101  H    0.032255
   102  H   -0.006831
   103  H    0.007037
   104  H   -0.040968
   105  H   -0.008565
   106  H    0.016185
   107  H   -0.023160
   108  H   -0.022906
   109  H   -0.045759
   110  H   -0.028263
   111  H   -0.021672
   112  H   -0.033885
   113  H   -0.038188
   114  H   -0.032865
   115  H   -0.013216
   116  H   -0.034197
   117  H   -0.009397
   118  H   -0.039592
   119  H   -0.032307
   120  H   -0.039617
   121  H   -0.025747
   122  H   -0.052070
   123  H   -0.044807
   124  H   -0.032064
   125  H   -0.019533
   126  H   -0.025547
   127  H   -0.011025
   128  H   -0.025646
   129  H   -0.035965
   130  H   -0.044131
   131  H   -0.033759
   132  H   -0.046616
   133  H   -0.046368
   134  H   -0.044971
   135  H    0.009224
   136  H   -0.024135
   137  H   -0.008956
   138  H   -0.008241
   139  H   -0.022281
   140  H   -0.027505
 Sum of Mulliken charges =  -0.00000

 Dipole moment (field-independent basis, Debye):
    X=             -2.1020    Y=              2.1701    Z=              0.0085  Tot=              3.0212
 Quadrupole moment (field-independent basis, Debye-Ang):
   XX=           -384.6700   YY=           -425.8013   ZZ=           -407.9657
   XY=             -6.0189   XZ=              9.3366   YZ=             -1.3459

 Normal termination of Gaussian 16 at Thu May  5 01:07:09 2022.
