 Gaussian 16, Revision A.03,
 Gaussian 16:  ES64L-G16RevA.03 25-Dec-2016

 -----------------------------------
 #p cam-b3lyp/Def2SVP td=(nstates=5)
 -----------------------------------

 ------------------------------------------------------
 step_451_chromophore_4 TDDFT with cam-b3lyp functional
 ------------------------------------------------------
 Symbolic Z-matrix:
 Charge =  0 Multiplicity = 1

                         Standard orientation:
 ---------------------------------------------------------------------
 Center     Atomic      Atomic             Coordinates (Angstroms)
 Number     Number       Type             X           Y           Z
 ---------------------------------------------------------------------
      1         12           0        5.949603    0.510153    0.191633
      2          6           0        3.727656   -2.049371    0.220089
      3          6           0        3.342065    2.661215   -0.720493
      4          6           0        8.212764    3.138553    0.048061
      5          6           0        8.642869   -1.681823    0.620459
      6          7           0        3.788632    0.299562   -0.246632
      7          6           0        3.098898   -0.836277   -0.046439
      8          6           0        1.546196   -0.611755   -0.270165
      9          6           0        1.507366    0.897673   -0.686014
     10          6           0        2.954799    1.355576   -0.554960
     11          6           0        0.878063    1.103903   -2.070390
     12          6           0        0.760428   -0.998180    0.969122
     13          6           0       -0.710318   -0.793738    0.874272
     14          6           0       -1.625827   -1.965742    0.685170
     15          8           0       -2.070587   -2.677679    1.591725
     16          8           0       -2.088034   -2.111911   -0.632428
     17          7           0        5.765098    2.584573   -0.140939
     18          6           0        4.621100    3.233328   -0.548355
     19          6           0        4.947746    4.671686   -0.610817
     20          6           0        6.358753    4.883254   -0.395691
     21          6           0        6.844381    3.511784   -0.102035
     22          6           0        3.884678    5.732434   -0.880012
     23          6           0        7.233764    6.135599   -0.457115
     24          8           0        8.394923    6.236507   -0.048590
     25          6           0        6.529788    7.401420   -0.862254
     26          7           0        8.113645    0.710178    0.293675
     27          6           0        8.779493    1.892312    0.196964
     28          6           0       10.262058    1.627541    0.462234
     29          6           0       10.400382    0.064446    0.402323
     30          6           0        8.954796   -0.330376    0.451523
     31          6           0       11.102029    2.410434   -0.694812
     32          6           0       11.241414   -0.589629    1.581762
     33          6           0       12.405959   -1.450259    1.169524
     34          7           0        6.197502   -1.388110    0.348057
     35          6           0        7.275403   -2.249903    0.594986
     36          6           0        6.906526   -3.644359    0.639444
     37          6           0        5.481193   -3.589180    0.526722
     38          6           0        5.113436   -2.211262    0.404373
     39          6           0        7.733128   -4.803307    0.907692
     40          6           0        4.315238   -4.405012    0.329138
     41          8           0        4.283834   -5.600516    0.150186
     42          6           0        3.097551   -3.497152    0.334183
     43          6           0        2.315896   -3.927086   -0.801754
     44          8           0        2.540354   -3.545139   -1.926846
     45          8           0        1.120163   -4.516383   -0.377171
     46          6           0        0.311706   -4.992136   -1.577352
     47          6           0       -3.207502   -2.989988   -0.889270
     48          6           0       -4.539262   -2.380290   -0.409428
     49          6           0       -5.701545   -2.914905   -0.140299
     50          6           0       -5.977091   -4.454264   -0.066238
     51          6           0       -6.882612   -2.062184    0.341116
     52          6           0       -7.688705   -1.328497   -0.726206
     53          6           0       -7.987826    0.223389   -0.512362
     54          6           0       -9.484403    0.570305   -0.743080
     55          6           0       -9.865069    0.507352   -2.210316
     56          6           0       -9.761374    1.995708   -0.285591
     57          6           0      -10.106936    2.067037    1.220801
     58          6           0      -11.254486    3.053718    1.693200
     59          6           0      -12.622653    2.405732    2.067157
     60          6           0      -13.051870    2.504150    3.532843
     61          6           0      -13.881553    2.902472    1.125913
     62          6           0      -14.969711    1.857575    1.177105
     63          6           0      -15.441340    1.350360   -0.190470
     64          6           0      -14.943380    0.039114   -0.730759
     65          6           0      -13.753343    0.162588   -1.659387
     66          6           0      -16.008694   -0.885900   -1.292001
     67          1           0        2.515918    3.304884   -1.029953
     68          1           0        8.973469    3.920482    0.003909
     69          1           0        9.345854   -2.379852    1.079422
     70          1           0        1.262644   -1.372912   -0.996691
     71          1           0        0.825192    1.433149   -0.026440
     72          1           0        1.395232    1.917258   -2.579235
     73          1           0       -0.068872    1.636312   -1.993648
     74          1           0        0.779851    0.191132   -2.657519
     75          1           0        1.196071   -0.503941    1.837989
     76          1           0        0.847774   -2.083715    1.019058
     77          1           0       -1.047237   -0.133429    0.075322
     78          1           0       -1.038032   -0.346609    1.812732
     79          1           0        2.916939    5.231259   -0.905017
     80          1           0        4.133891    6.196526   -1.834431
     81          1           0        3.737559    6.452807   -0.075557
     82          1           0        5.903743    7.596356    0.008776
     83          1           0        5.880025    7.340305   -1.734257
     84          1           0        7.298778    8.126989   -1.128804
     85          1           0       10.463503    2.012394    1.461742
     86          1           0       10.824958   -0.226768   -0.558551
     87          1           0       11.710187    3.146777   -0.168167
     88          1           0       10.510520    3.029324   -1.369947
     89          1           0       11.699559    1.846800   -1.410736
     90          1           0       10.597901   -1.208325    2.207165
     91          1           0       11.622480    0.231040    2.189127
     92          1           0       12.438236   -1.707365    0.111092
     93          1           0       12.462752   -2.258445    1.898092
     94          1           0       13.266059   -0.828605    1.420304
     95          1           0        8.163451   -4.629316    1.893146
     96          1           0        8.414250   -4.824010    0.056003
     97          1           0        7.079799   -5.676334    0.908745
     98          1           0        2.556717   -3.628425    1.271099
     99          1           0       -0.415847   -4.341096   -2.062054
    100          1           0       -0.308587   -5.768846   -1.131114
    101          1           0        1.011289   -5.341422   -2.336681
    102          1           0       -2.999802   -3.925930   -0.370355
    103          1           0       -3.217051   -3.300695   -1.933086
    104          1           0       -4.523922   -1.296912   -0.290139
    105          1           0       -6.905401   -4.862495   -0.465852
    106          1           0       -5.918778   -4.799534    0.966685
    107          1           0       -5.197257   -4.935266   -0.656535
    108          1           0       -6.540205   -1.365244    1.106477
    109          1           0       -7.461482   -2.797647    0.899799
    110          1           0       -8.667524   -1.805023   -0.777088
    111          1           0       -7.223820   -1.516074   -1.694269
    112          1           0       -7.339559    0.835212   -1.139236
    113          1           0       -7.725988    0.445903    0.521665
    114          1           0       -9.986296   -0.142362   -0.088366
    115          1           0      -10.933589    0.692008   -2.317165
    116          1           0       -9.671316   -0.553365   -2.370113
    117          1           0       -9.270967    1.111362   -2.896874
    118          1           0      -10.649116    2.350763   -0.809362
    119          1           0       -8.967485    2.720813   -0.461379
    120          1           0       -9.224881    2.520360    1.674905
    121          1           0      -10.270714    1.141266    1.772283
    122          1           0      -11.566675    3.715762    0.885856
    123          1           0      -10.917290    3.735212    2.474443
    124          1           0      -12.538384    1.358644    1.775394
    125          1           0      -13.752684    3.322719    3.700348
    126          1           0      -12.250680    2.741579    4.232425
    127          1           0      -13.481209    1.564724    3.882676
    128          1           0      -13.520329    3.210498    0.145059
    129          1           0      -14.325582    3.798552    1.561275
    130          1           0      -15.808267    2.264992    1.741928
    131          1           0      -14.647456    1.035225    1.815613
    132          1           0      -15.165302    2.135631   -0.894640
    133          1           0      -16.524047    1.427451   -0.094984
    134          1           0      -14.427634   -0.498235    0.064924
    135          1           0      -13.029729    0.956217   -1.479813
    136          1           0      -14.279082    0.392052   -2.586635
    137          1           0      -13.189944   -0.763490   -1.776943
    138          1           0      -16.977451   -0.386278   -1.295732
    139          1           0      -16.065819   -1.754240   -0.634250
    140          1           0      -15.620037   -1.281310   -2.230246
 ---------------------------------------------------------------------

 SCF Done:  E(RCAM-B3LYP) =  -3007.15805707     A.U. after   17 cycles

 Excitation energies and oscillator strengths:

 Excited State   1:      Singlet-A      1.6782 eV  738.81 nm  f=0.3916  <S**2>=0.000
     245 -> 248       -0.18286
     246 -> 247        0.68589
     245 <- 248       -0.11127
 This state for optimization and/or second-order correction.
 Total Energy, E(TD-HF/TD-DFT) =  -3007.09638581
 Copying the excited state density for this state as the 1-particle RhoCI density.

 Excited State   2:      Singlet-A      2.2452 eV  552.22 nm  f=0.1343  <S**2>=0.000
     245 -> 247        0.64165
     246 -> 248        0.28782

 Excited State   3:      Singlet-A      3.3904 eV  365.69 nm  f=0.0048  <S**2>=0.000
     244 -> 247        0.68479
     246 -> 248       -0.10205

 Excited State   4:      Singlet-A      3.5225 eV  351.98 nm  f=0.2155  <S**2>=0.000
     243 -> 247        0.52004
     245 -> 247        0.15065
     246 -> 248       -0.43333

 Excited State   5:      Singlet-A      3.6010 eV  344.31 nm  f=0.3450  <S**2>=0.000
     239 -> 247       -0.18629
     241 -> 247       -0.33105
     241 -> 249       -0.13911
     241 -> 250        0.12600
     243 -> 247        0.38523
     245 -> 247       -0.18952
     246 -> 248        0.32518

 The electronic state is 1-A.
 Alpha  occ. eigenvalues --  -46.87496 -19.25384 -19.24856 -19.20294 -19.19900
 Alpha  occ. eigenvalues --  -19.19246 -19.18898 -14.42265 -14.41479 -14.39987
 Alpha  occ. eigenvalues --  -14.39655 -10.39727 -10.39222 -10.35633 -10.34554
 Alpha  occ. eigenvalues --  -10.32502 -10.31699 -10.31145 -10.30918 -10.30861
 Alpha  occ. eigenvalues --  -10.30469 -10.30370 -10.30260 -10.30191 -10.29331
 Alpha  occ. eigenvalues --  -10.29061 -10.28310 -10.28255 -10.28179 -10.28072
 Alpha  occ. eigenvalues --  -10.28059 -10.28026 -10.27689 -10.27530 -10.27306
 Alpha  occ. eigenvalues --  -10.27276 -10.27142 -10.27039 -10.26940 -10.26750
 Alpha  occ. eigenvalues --  -10.26153 -10.26104 -10.25987 -10.25966 -10.25943
 Alpha  occ. eigenvalues --  -10.25934 -10.25799 -10.25680 -10.25569 -10.25550
 Alpha  occ. eigenvalues --  -10.25393 -10.25390 -10.25325 -10.25188 -10.25108
 Alpha  occ. eigenvalues --  -10.24809 -10.24793 -10.24575 -10.24542 -10.24534
 Alpha  occ. eigenvalues --  -10.24361 -10.24310 -10.24286 -10.24282 -10.24197
 Alpha  occ. eigenvalues --  -10.24185  -3.16294  -1.91188  -1.90734  -1.90637
 Alpha  occ. eigenvalues --   -1.15950  -1.15545  -1.10781  -1.09615  -1.07776
 Alpha  occ. eigenvalues --   -1.07153  -1.04201  -1.03697  -1.02714  -1.01106
 Alpha  occ. eigenvalues --   -0.92647  -0.91065  -0.90326  -0.89804  -0.89119
 Alpha  occ. eigenvalues --   -0.89002  -0.88329  -0.87600  -0.87355  -0.87243
 Alpha  occ. eigenvalues --   -0.86601  -0.85824  -0.84185  -0.83717  -0.83236
 Alpha  occ. eigenvalues --   -0.82727  -0.82115  -0.81390  -0.80837  -0.80394
 Alpha  occ. eigenvalues --   -0.79897  -0.78585  -0.78242  -0.77121  -0.76453
 Alpha  occ. eigenvalues --   -0.75797  -0.75603  -0.74993  -0.74857  -0.74422
 Alpha  occ. eigenvalues --   -0.74026  -0.72746  -0.72011  -0.70919  -0.68841
 Alpha  occ. eigenvalues --   -0.68598  -0.68265  -0.67129  -0.66847  -0.65638
 Alpha  occ. eigenvalues --   -0.65427  -0.65064  -0.65006  -0.64442  -0.63621
 Alpha  occ. eigenvalues --   -0.63161  -0.62686  -0.62339  -0.61775  -0.60056
 Alpha  occ. eigenvalues --   -0.59941  -0.59882  -0.59358  -0.58939  -0.58330
 Alpha  occ. eigenvalues --   -0.57793  -0.57450  -0.56281  -0.55851  -0.55352
 Alpha  occ. eigenvalues --   -0.55228  -0.54846  -0.54318  -0.53869  -0.53708
 Alpha  occ. eigenvalues --   -0.53516  -0.53465  -0.53050  -0.52962  -0.52876
 Alpha  occ. eigenvalues --   -0.52798  -0.52548  -0.52531  -0.52223  -0.52174
 Alpha  occ. eigenvalues --   -0.51849  -0.51633  -0.51393  -0.50868  -0.50587
 Alpha  occ. eigenvalues --   -0.50538  -0.50471  -0.50199  -0.49915  -0.49665
 Alpha  occ. eigenvalues --   -0.49610  -0.49357  -0.49183  -0.49069  -0.48753
 Alpha  occ. eigenvalues --   -0.48690  -0.48445  -0.48219  -0.48174  -0.47866
 Alpha  occ. eigenvalues --   -0.47430  -0.47406  -0.47135  -0.46972  -0.46656
 Alpha  occ. eigenvalues --   -0.46326  -0.46182  -0.46137  -0.45836  -0.45607
 Alpha  occ. eigenvalues --   -0.45445  -0.45293  -0.45095  -0.45045  -0.44998
 Alpha  occ. eigenvalues --   -0.44376  -0.44326  -0.44277  -0.44120  -0.43950
 Alpha  occ. eigenvalues --   -0.43709  -0.43616  -0.43516  -0.43290  -0.43123
 Alpha  occ. eigenvalues --   -0.42808  -0.42754  -0.42579  -0.42328  -0.42150
 Alpha  occ. eigenvalues --   -0.41918  -0.41783  -0.41720  -0.41440  -0.41306
 Alpha  occ. eigenvalues --   -0.40940  -0.40722  -0.40567  -0.40304  -0.40186
 Alpha  occ. eigenvalues --   -0.40028  -0.39745  -0.39529  -0.39201  -0.39187
 Alpha  occ. eigenvalues --   -0.38363  -0.38167  -0.37909  -0.37816  -0.37028
 Alpha  occ. eigenvalues --   -0.36941  -0.36839  -0.36490  -0.36384  -0.36324
 Alpha  occ. eigenvalues --   -0.35682  -0.34861  -0.34814  -0.34725  -0.34395
 Alpha  occ. eigenvalues --   -0.33946  -0.33615  -0.32954  -0.31387  -0.31363
 Alpha  occ. eigenvalues --   -0.31108  -0.30685  -0.30273  -0.29825  -0.24121
 Alpha  occ. eigenvalues --   -0.21182
 Alpha virt. eigenvalues --   -0.08877  -0.01645   0.00357   0.02346   0.03320
 Alpha virt. eigenvalues --    0.03854   0.04339   0.05763   0.06054   0.06429
 Alpha virt. eigenvalues --    0.07931   0.08202   0.08479   0.09072   0.09208

 Mulliken charges:
               1
     1  Mg   0.852929
     2  C   -0.054587
     3  C   -0.091678
     4  C   -0.045842
     5  C   -0.089316
     6  N   -0.280746
     7  C   -0.028043
     8  C   -0.039877
     9  C   -0.029771
    10  C    0.056093
    11  C    0.072239
    12  C    0.046508
    13  C    0.111849
    14  C    0.140082
    15  O   -0.234660
    16  O   -0.354736
    17  N   -0.391633
    18  C    0.187058
    19  C   -0.172342
    20  C   -0.040459
    21  C    0.131462
    22  C    0.110813
    23  C    0.025177
    24  O   -0.211810
    25  C    0.049199
    26  N   -0.260539
    27  C    0.018556
    28  C   -0.040249
    29  C    0.009580
    30  C    0.059340
    31  C    0.028130
    32  C    0.007306
    33  C    0.022264
    34  N   -0.441242
    35  C    0.075069
    36  C   -0.185575
    37  C    0.009426
    38  C    0.168214
    39  C    0.133924
    40  C   -0.012260
    41  O   -0.166765
    42  C    0.050963
    43  C    0.197146
    44  O   -0.208784
    45  O   -0.358340
    46  C    0.161914
    47  C    0.284252
    48  C   -0.101303
    49  C   -0.182924
    50  C    0.052196
    51  C    0.083942
    52  C    0.030275
    53  C    0.032843
    54  C   -0.147905
    55  C    0.079331
    56  C    0.087497
    57  C   -0.002554
    58  C    0.066450
    59  C   -0.157155
    60  C    0.055006
    61  C    0.024420
    62  C    0.009564
    63  C    0.072587
    64  C   -0.126592
    65  C   -0.002902
    66  C    0.076576
    67  H   -0.029780
    68  H   -0.004050
    69  H   -0.009382
    70  H    0.024974
    71  H    0.008555
    72  H   -0.000533
    73  H   -0.001304
    74  H    0.041824
    75  H    0.010034
    76  H    0.029519
    77  H    0.016392
    78  H    0.031133
    79  H   -0.003829
    80  H    0.039565
    81  H    0.030274
    82  H    0.043659
    83  H    0.016904
    84  H    0.033538
    85  H    0.028405
    86  H    0.016445
    87  H    0.019623
    88  H    0.023837
    89  H    0.015366
    90  H    0.011131
    91  H    0.002034
    92  H    0.026979
    93  H    0.010730
    94  H    0.006360
    95  H    0.039397
    96  H    0.034813
    97  H    0.037006
    98  H    0.064066
    99  H    0.039193
   100  H    0.037397
   101  H    0.056860
   102  H    0.022597
   103  H    0.033190
   104  H   -0.008953
   105  H    0.016376
   106  H    0.040002
   107  H   -0.000889
   108  H    0.007314
   109  H   -0.013968
   110  H   -0.000524
   111  H    0.008017
   112  H   -0.005966
   113  H   -0.009754
   114  H   -0.001940
   115  H    0.007346
   116  H   -0.009577
   117  H    0.015490
   118  H   -0.012916
   119  H   -0.002642
   120  H   -0.009923
   121  H    0.001238
   122  H   -0.022612
   123  H   -0.014120
   124  H   -0.004001
   125  H    0.004164
   126  H    0.000430
   127  H    0.012600
   128  H   -0.000605
   129  H   -0.007153
   130  H   -0.012433
   131  H   -0.006395
   132  H   -0.017144
   133  H   -0.014738
   134  H   -0.013373
   135  H    0.022693
   136  H   -0.000869
   137  H    0.013992
   138  H    0.016107
   139  H    0.003287
   140  H   -0.001068
 Sum of Mulliken charges =  -0.00000

 Dipole moment (field-independent basis, Debye):
    X=             -2.2585    Y=              2.6793    Z=             -0.0647  Tot=              3.5048
 Quadrupole moment (field-independent basis, Debye-Ang):
   XX=           -384.8278   YY=           -421.0898   ZZ=           -408.1101
   XY=             -4.0989   XZ=              9.1856   YZ=             -2.0616

 Normal termination of Gaussian 16 at Wed May  4 22:49:09 2022.
