 Gaussian 16, Revision A.03,
 Gaussian 16:  ES64L-G16RevA.03 25-Dec-2016

 ---------------------------------
 #p PBE1PBE/Def2SVP td=(nstates=5)
 ---------------------------------

 ----------------------------------------------------
 step_451_chromophore_4 TDDFT with PBE1PBE functional
 ----------------------------------------------------
 Symbolic Z-matrix:
 Charge =  0 Multiplicity = 1

                         Standard orientation:
 ---------------------------------------------------------------------
 Center     Atomic      Atomic             Coordinates (Angstroms)
 Number     Number       Type             X           Y           Z
 ---------------------------------------------------------------------
      1         12           0        5.949603    0.510153    0.191633
      2          6           0        3.727656   -2.049371    0.220089
      3          6           0        3.342065    2.661215   -0.720493
      4          6           0        8.212764    3.138553    0.048061
      5          6           0        8.642869   -1.681823    0.620459
      6          7           0        3.788632    0.299562   -0.246632
      7          6           0        3.098898   -0.836277   -0.046439
      8          6           0        1.546196   -0.611755   -0.270165
      9          6           0        1.507366    0.897673   -0.686014
     10          6           0        2.954799    1.355576   -0.554960
     11          6           0        0.878063    1.103903   -2.070390
     12          6           0        0.760428   -0.998180    0.969122
     13          6           0       -0.710318   -0.793738    0.874272
     14          6           0       -1.625827   -1.965742    0.685170
     15          8           0       -2.070587   -2.677679    1.591725
     16          8           0       -2.088034   -2.111911   -0.632428
     17          7           0        5.765098    2.584573   -0.140939
     18          6           0        4.621100    3.233328   -0.548355
     19          6           0        4.947746    4.671686   -0.610817
     20          6           0        6.358753    4.883254   -0.395691
     21          6           0        6.844381    3.511784   -0.102035
     22          6           0        3.884678    5.732434   -0.880012
     23          6           0        7.233764    6.135599   -0.457115
     24          8           0        8.394923    6.236507   -0.048590
     25          6           0        6.529788    7.401420   -0.862254
     26          7           0        8.113645    0.710178    0.293675
     27          6           0        8.779493    1.892312    0.196964
     28          6           0       10.262058    1.627541    0.462234
     29          6           0       10.400382    0.064446    0.402323
     30          6           0        8.954796   -0.330376    0.451523
     31          6           0       11.102029    2.410434   -0.694812
     32          6           0       11.241414   -0.589629    1.581762
     33          6           0       12.405959   -1.450259    1.169524
     34          7           0        6.197502   -1.388110    0.348057
     35          6           0        7.275403   -2.249903    0.594986
     36          6           0        6.906526   -3.644359    0.639444
     37          6           0        5.481193   -3.589180    0.526722
     38          6           0        5.113436   -2.211262    0.404373
     39          6           0        7.733128   -4.803307    0.907692
     40          6           0        4.315238   -4.405012    0.329138
     41          8           0        4.283834   -5.600516    0.150186
     42          6           0        3.097551   -3.497152    0.334183
     43          6           0        2.315896   -3.927086   -0.801754
     44          8           0        2.540354   -3.545139   -1.926846
     45          8           0        1.120163   -4.516383   -0.377171
     46          6           0        0.311706   -4.992136   -1.577352
     47          6           0       -3.207502   -2.989988   -0.889270
     48          6           0       -4.539262   -2.380290   -0.409428
     49          6           0       -5.701545   -2.914905   -0.140299
     50          6           0       -5.977091   -4.454264   -0.066238
     51          6           0       -6.882612   -2.062184    0.341116
     52          6           0       -7.688705   -1.328497   -0.726206
     53          6           0       -7.987826    0.223389   -0.512362
     54          6           0       -9.484403    0.570305   -0.743080
     55          6           0       -9.865069    0.507352   -2.210316
     56          6           0       -9.761374    1.995708   -0.285591
     57          6           0      -10.106936    2.067037    1.220801
     58          6           0      -11.254486    3.053718    1.693200
     59          6           0      -12.622653    2.405732    2.067157
     60          6           0      -13.051870    2.504150    3.532843
     61          6           0      -13.881553    2.902472    1.125913
     62          6           0      -14.969711    1.857575    1.177105
     63          6           0      -15.441340    1.350360   -0.190470
     64          6           0      -14.943380    0.039114   -0.730759
     65          6           0      -13.753343    0.162588   -1.659387
     66          6           0      -16.008694   -0.885900   -1.292001
     67          1           0        2.515918    3.304884   -1.029953
     68          1           0        8.973469    3.920482    0.003909
     69          1           0        9.345854   -2.379852    1.079422
     70          1           0        1.262644   -1.372912   -0.996691
     71          1           0        0.825192    1.433149   -0.026440
     72          1           0        1.395232    1.917258   -2.579235
     73          1           0       -0.068872    1.636312   -1.993648
     74          1           0        0.779851    0.191132   -2.657519
     75          1           0        1.196071   -0.503941    1.837989
     76          1           0        0.847774   -2.083715    1.019058
     77          1           0       -1.047237   -0.133429    0.075322
     78          1           0       -1.038032   -0.346609    1.812732
     79          1           0        2.916939    5.231259   -0.905017
     80          1           0        4.133891    6.196526   -1.834431
     81          1           0        3.737559    6.452807   -0.075557
     82          1           0        5.903743    7.596356    0.008776
     83          1           0        5.880025    7.340305   -1.734257
     84          1           0        7.298778    8.126989   -1.128804
     85          1           0       10.463503    2.012394    1.461742
     86          1           0       10.824958   -0.226768   -0.558551
     87          1           0       11.710187    3.146777   -0.168167
     88          1           0       10.510520    3.029324   -1.369947
     89          1           0       11.699559    1.846800   -1.410736
     90          1           0       10.597901   -1.208325    2.207165
     91          1           0       11.622480    0.231040    2.189127
     92          1           0       12.438236   -1.707365    0.111092
     93          1           0       12.462752   -2.258445    1.898092
     94          1           0       13.266059   -0.828605    1.420304
     95          1           0        8.163451   -4.629316    1.893146
     96          1           0        8.414250   -4.824010    0.056003
     97          1           0        7.079799   -5.676334    0.908745
     98          1           0        2.556717   -3.628425    1.271099
     99          1           0       -0.415847   -4.341096   -2.062054
    100          1           0       -0.308587   -5.768846   -1.131114
    101          1           0        1.011289   -5.341422   -2.336681
    102          1           0       -2.999802   -3.925930   -0.370355
    103          1           0       -3.217051   -3.300695   -1.933086
    104          1           0       -4.523922   -1.296912   -0.290139
    105          1           0       -6.905401   -4.862495   -0.465852
    106          1           0       -5.918778   -4.799534    0.966685
    107          1           0       -5.197257   -4.935266   -0.656535
    108          1           0       -6.540205   -1.365244    1.106477
    109          1           0       -7.461482   -2.797647    0.899799
    110          1           0       -8.667524   -1.805023   -0.777088
    111          1           0       -7.223820   -1.516074   -1.694269
    112          1           0       -7.339559    0.835212   -1.139236
    113          1           0       -7.725988    0.445903    0.521665
    114          1           0       -9.986296   -0.142362   -0.088366
    115          1           0      -10.933589    0.692008   -2.317165
    116          1           0       -9.671316   -0.553365   -2.370113
    117          1           0       -9.270967    1.111362   -2.896874
    118          1           0      -10.649116    2.350763   -0.809362
    119          1           0       -8.967485    2.720813   -0.461379
    120          1           0       -9.224881    2.520360    1.674905
    121          1           0      -10.270714    1.141266    1.772283
    122          1           0      -11.566675    3.715762    0.885856
    123          1           0      -10.917290    3.735212    2.474443
    124          1           0      -12.538384    1.358644    1.775394
    125          1           0      -13.752684    3.322719    3.700348
    126          1           0      -12.250680    2.741579    4.232425
    127          1           0      -13.481209    1.564724    3.882676
    128          1           0      -13.520329    3.210498    0.145059
    129          1           0      -14.325582    3.798552    1.561275
    130          1           0      -15.808267    2.264992    1.741928
    131          1           0      -14.647456    1.035225    1.815613
    132          1           0      -15.165302    2.135631   -0.894640
    133          1           0      -16.524047    1.427451   -0.094984
    134          1           0      -14.427634   -0.498235    0.064924
    135          1           0      -13.029729    0.956217   -1.479813
    136          1           0      -14.279082    0.392052   -2.586635
    137          1           0      -13.189944   -0.763490   -1.776943
    138          1           0      -16.977451   -0.386278   -1.295732
    139          1           0      -16.065819   -1.754240   -0.634250
    140          1           0      -15.620037   -1.281310   -2.230246
 ---------------------------------------------------------------------

 SCF Done:  E(RPBE1PBE) =  -3005.34587365     A.U. after   15 cycles

 Excitation energies and oscillator strengths:

 Excited State   1:      Singlet-A      1.8471 eV  671.23 nm  f=0.3784  <S**2>=0.000
     245 -> 248        0.17449
     246 -> 247        0.69332
     246 <- 247       -0.11134
 This state for optimization and/or second-order correction.
 Total Energy, E(TD-HF/TD-DFT) =  -3005.27799350
 Copying the excited state density for this state as the 1-particle RhoCI density.

 Excited State   2:      Singlet-A      2.2609 eV  548.37 nm  f=0.1261  <S**2>=0.000
     245 -> 247        0.65051
     246 -> 248       -0.26698

 Excited State   3:      Singlet-A      3.0608 eV  405.06 nm  f=0.0043  <S**2>=0.000
     241 -> 247       -0.13791
     244 -> 247        0.68253

 Excited State   4:      Singlet-A      3.0892 eV  401.34 nm  f=0.0007  <S**2>=0.000
     241 -> 247        0.64674
     241 -> 249       -0.13182
     241 -> 250        0.10484
     243 -> 247        0.11612
     244 -> 247        0.14457

 Excited State   5:      Singlet-A      3.1872 eV  389.00 nm  f=0.0002  <S**2>=0.000
     240 -> 247        0.61770
     240 -> 249        0.15890
     242 -> 247        0.23853

 The electronic state is 1-A.
 Alpha  occ. eigenvalues --  -46.90922 -19.26049 -19.25548 -19.20515 -19.20162
 Alpha  occ. eigenvalues --  -19.19448 -19.19114 -14.41785 -14.40991 -14.39666
 Alpha  occ. eigenvalues --  -14.39353 -10.36771 -10.36229 -10.32740 -10.31694
 Alpha  occ. eigenvalues --  -10.29900 -10.28931 -10.28884 -10.28619 -10.28577
 Alpha  occ. eigenvalues --  -10.28165 -10.28110 -10.28065 -10.27901 -10.27037
 Alpha  occ. eigenvalues --  -10.26749 -10.26099 -10.25959 -10.25939 -10.25922
 Alpha  occ. eigenvalues --  -10.25826 -10.25744 -10.25255 -10.25170 -10.25167
 Alpha  occ. eigenvalues --  -10.24845 -10.24770 -10.24635 -10.24464 -10.24411
 Alpha  occ. eigenvalues --  -10.23827 -10.23757 -10.23441 -10.23417 -10.23399
 Alpha  occ. eigenvalues --  -10.23350 -10.23334 -10.23253 -10.23197 -10.23081
 Alpha  occ. eigenvalues --  -10.22951 -10.22940 -10.22897 -10.22883 -10.22630
 Alpha  occ. eigenvalues --  -10.22435 -10.22352 -10.22127 -10.22127 -10.22102
 Alpha  occ. eigenvalues --  -10.21754 -10.21724 -10.21716 -10.21688 -10.21660
 Alpha  occ. eigenvalues --  -10.21657  -3.13293  -1.86129  -1.85653  -1.85561
 Alpha  occ. eigenvalues --   -1.10674  -1.10339  -1.05532  -1.04317  -1.02609
 Alpha  occ. eigenvalues --   -1.02007  -0.98813  -0.98309  -0.97396  -0.95748
 Alpha  occ. eigenvalues --   -0.87006  -0.85269  -0.84430  -0.83900  -0.83341
 Alpha  occ. eigenvalues --   -0.83249  -0.82653  -0.81928  -0.81581  -0.81443
 Alpha  occ. eigenvalues --   -0.80810  -0.80111  -0.78375  -0.77999  -0.77502
 Alpha  occ. eigenvalues --   -0.76931  -0.76357  -0.75598  -0.75113  -0.74711
 Alpha  occ. eigenvalues --   -0.74111  -0.72882  -0.72509  -0.71395  -0.70767
 Alpha  occ. eigenvalues --   -0.69933  -0.69711  -0.69341  -0.69003  -0.68593
 Alpha  occ. eigenvalues --   -0.68310  -0.67218  -0.66397  -0.65308  -0.63176
 Alpha  occ. eigenvalues --   -0.62922  -0.62689  -0.61505  -0.61143  -0.60073
 Alpha  occ. eigenvalues --   -0.59855  -0.59594  -0.59241  -0.59044  -0.57724
 Alpha  occ. eigenvalues --   -0.57342  -0.57175  -0.56530  -0.56366  -0.54477
 Alpha  occ. eigenvalues --   -0.54456  -0.54348  -0.53896  -0.53328  -0.52981
 Alpha  occ. eigenvalues --   -0.52252  -0.52038  -0.50813  -0.50425  -0.49937
 Alpha  occ. eigenvalues --   -0.49781  -0.49355  -0.48846  -0.48441  -0.48195
 Alpha  occ. eigenvalues --   -0.48062  -0.47924  -0.47733  -0.47410  -0.47333
 Alpha  occ. eigenvalues --   -0.47161  -0.47093  -0.47042  -0.46701  -0.46701
 Alpha  occ. eigenvalues --   -0.46432  -0.46155  -0.45980  -0.45486  -0.45144
 Alpha  occ. eigenvalues --   -0.45069  -0.45009  -0.44784  -0.44592  -0.44257
 Alpha  occ. eigenvalues --   -0.44206  -0.43925  -0.43782  -0.43655  -0.43370
 Alpha  occ. eigenvalues --   -0.43258  -0.43091  -0.42869  -0.42736  -0.42445
 Alpha  occ. eigenvalues --   -0.42127  -0.42044  -0.41774  -0.41588  -0.41308
 Alpha  occ. eigenvalues --   -0.41097  -0.40958  -0.40873  -0.40458  -0.40280
 Alpha  occ. eigenvalues --   -0.40152  -0.40026  -0.39835  -0.39753  -0.39702
 Alpha  occ. eigenvalues --   -0.39149  -0.39066  -0.38947  -0.38799  -0.38650
 Alpha  occ. eigenvalues --   -0.38501  -0.38426  -0.38283  -0.37996  -0.37945
 Alpha  occ. eigenvalues --   -0.37652  -0.37469  -0.37420  -0.37274  -0.36926
 Alpha  occ. eigenvalues --   -0.36742  -0.36511  -0.36436  -0.36327  -0.36122
 Alpha  occ. eigenvalues --   -0.35734  -0.35583  -0.35297  -0.35138  -0.35026
 Alpha  occ. eigenvalues --   -0.34872  -0.34674  -0.34322  -0.34238  -0.33960
 Alpha  occ. eigenvalues --   -0.33225  -0.33153  -0.32829  -0.32687  -0.31936
 Alpha  occ. eigenvalues --   -0.31917  -0.31800  -0.31530  -0.31306  -0.31102
 Alpha  occ. eigenvalues --   -0.30637  -0.29804  -0.29651  -0.29542  -0.29488
 Alpha  occ. eigenvalues --   -0.28731  -0.28596  -0.28568  -0.27002  -0.26117
 Alpha  occ. eigenvalues --   -0.26009  -0.25920  -0.25904  -0.25436  -0.21086
 Alpha  occ. eigenvalues --   -0.18823
 Alpha virt. eigenvalues --   -0.11298  -0.05178  -0.03869  -0.02071  -0.00831
 Alpha virt. eigenvalues --   -0.00365   0.00798   0.01450   0.01637   0.03051
 Alpha virt. eigenvalues --    0.03739   0.04481   0.04989   0.05729   0.05793

 Mulliken charges:
               1
     1  Mg   1.009161
     2  C   -0.054883
     3  C   -0.086475
     4  C   -0.038636
     5  C   -0.068423
     6  N   -0.390733
     7  C    0.044727
     8  C   -0.107282
     9  C   -0.108397
    10  C    0.092931
    11  C    0.018057
    12  C   -0.016578
    13  C    0.037895
    14  C    0.210564
    15  O   -0.266473
    16  O   -0.387531
    17  N   -0.504178
    18  C    0.214585
    19  C   -0.202707
    20  C   -0.080734
    21  C    0.163383
    22  C    0.049257
    23  C    0.070109
    24  O   -0.248821
    25  C   -0.023978
    26  N   -0.369983
    27  C    0.056961
    28  C   -0.121296
    29  C   -0.063055
    30  C    0.093498
    31  C   -0.027445
    32  C   -0.054731
    33  C   -0.049441
    34  N   -0.567535
    35  C    0.095785
    36  C   -0.196354
    37  C   -0.035196
    38  C    0.211397
    39  C    0.069696
    40  C    0.083030
    41  O   -0.212848
    42  C   -0.067845
    43  C    0.286449
    44  O   -0.241418
    45  O   -0.388399
    46  C    0.105607
    47  C    0.245092
    48  C   -0.109745
    49  C   -0.227514
    50  C   -0.012091
    51  C    0.021837
    52  C   -0.033635
    53  C   -0.013848
    54  C   -0.243673
    55  C    0.011097
    56  C    0.031203
    57  C   -0.067389
    58  C    0.017576
    59  C   -0.244854
    60  C   -0.002285
    61  C   -0.028335
    62  C   -0.050755
    63  C    0.015726
    64  C   -0.216721
    65  C   -0.071066
    66  C    0.013462
    67  H    0.001815
    68  H    0.027479
    69  H    0.021377
    70  H    0.065104
    71  H    0.045774
    72  H    0.027605
    73  H    0.025576
    74  H    0.067770
    75  H    0.041801
    76  H    0.071215
    77  H    0.049257
    78  H    0.063987
    79  H    0.025539
    80  H    0.067237
    81  H    0.057759
    82  H    0.071233
    83  H    0.043709
    84  H    0.060430
    85  H    0.063911
    86  H    0.053517
    87  H    0.047358
    88  H    0.050715
    89  H    0.042124
    90  H    0.042829
    91  H    0.035232
    92  H    0.053129
    93  H    0.038820
    94  H    0.035170
    95  H    0.066592
    96  H    0.062991
    97  H    0.065677
    98  H    0.098506
    99  H    0.062003
   100  H    0.058873
   101  H    0.077802
   102  H    0.048860
   103  H    0.058616
   104  H    0.021709
   105  H    0.043658
   106  H    0.067347
   107  H    0.027320
   108  H    0.038873
   109  H    0.019368
   110  H    0.031648
   111  H    0.040913
   112  H    0.025919
   113  H    0.024225
   114  H    0.035495
   115  H    0.042013
   116  H    0.020894
   117  H    0.042715
   118  H    0.021445
   119  H    0.029038
   120  H    0.024094
   121  H    0.031896
   122  H    0.010986
   123  H    0.017647
   124  H    0.036551
   125  H    0.031048
   126  H    0.028239
   127  H    0.039035
   128  H    0.028508
   129  H    0.026320
   130  H    0.020261
   131  H    0.025228
   132  H    0.016461
   133  H    0.017639
   134  H    0.025965
   135  H    0.054048
   136  H    0.027877
   137  H    0.041802
   138  H    0.042662
   139  H    0.031541
   140  H    0.026425
 Sum of Mulliken charges =  -0.00000

 Dipole moment (field-independent basis, Debye):
    X=             -2.1809    Y=              2.6078    Z=             -0.0233  Tot=              3.3996
 Quadrupole moment (field-independent basis, Debye-Ang):
   XX=           -378.4487   YY=           -418.4897   ZZ=           -405.7531
   XY=             -5.0083   XZ=              9.5692   YZ=             -2.1852

 Normal termination of Gaussian 16 at Wed May  4 23:35:55 2022.
