 Gaussian 16, Revision A.03,
 Gaussian 16:  ES64L-G16RevA.03 25-Dec-2016

 --------------------------------
 #p wB97XD/Def2SVP td=(nstates=5)
 --------------------------------

 ---------------------------------------------------
 step_451_chromophore_4 TDDFT with wB97XD functional
 ---------------------------------------------------
 Symbolic Z-matrix:
 Charge =  0 Multiplicity = 1

                         Standard orientation:
 ---------------------------------------------------------------------
 Center     Atomic      Atomic             Coordinates (Angstroms)
 Number     Number       Type             X           Y           Z
 ---------------------------------------------------------------------
      1         12           0        5.949603    0.510153    0.191633
      2          6           0        3.727656   -2.049371    0.220089
      3          6           0        3.342065    2.661215   -0.720493
      4          6           0        8.212764    3.138553    0.048061
      5          6           0        8.642869   -1.681823    0.620459
      6          7           0        3.788632    0.299562   -0.246632
      7          6           0        3.098898   -0.836277   -0.046439
      8          6           0        1.546196   -0.611755   -0.270165
      9          6           0        1.507366    0.897673   -0.686014
     10          6           0        2.954799    1.355576   -0.554960
     11          6           0        0.878063    1.103903   -2.070390
     12          6           0        0.760428   -0.998180    0.969122
     13          6           0       -0.710318   -0.793738    0.874272
     14          6           0       -1.625827   -1.965742    0.685170
     15          8           0       -2.070587   -2.677679    1.591725
     16          8           0       -2.088034   -2.111911   -0.632428
     17          7           0        5.765098    2.584573   -0.140939
     18          6           0        4.621100    3.233328   -0.548355
     19          6           0        4.947746    4.671686   -0.610817
     20          6           0        6.358753    4.883254   -0.395691
     21          6           0        6.844381    3.511784   -0.102035
     22          6           0        3.884678    5.732434   -0.880012
     23          6           0        7.233764    6.135599   -0.457115
     24          8           0        8.394923    6.236507   -0.048590
     25          6           0        6.529788    7.401420   -0.862254
     26          7           0        8.113645    0.710178    0.293675
     27          6           0        8.779493    1.892312    0.196964
     28          6           0       10.262058    1.627541    0.462234
     29          6           0       10.400382    0.064446    0.402323
     30          6           0        8.954796   -0.330376    0.451523
     31          6           0       11.102029    2.410434   -0.694812
     32          6           0       11.241414   -0.589629    1.581762
     33          6           0       12.405959   -1.450259    1.169524
     34          7           0        6.197502   -1.388110    0.348057
     35          6           0        7.275403   -2.249903    0.594986
     36          6           0        6.906526   -3.644359    0.639444
     37          6           0        5.481193   -3.589180    0.526722
     38          6           0        5.113436   -2.211262    0.404373
     39          6           0        7.733128   -4.803307    0.907692
     40          6           0        4.315238   -4.405012    0.329138
     41          8           0        4.283834   -5.600516    0.150186
     42          6           0        3.097551   -3.497152    0.334183
     43          6           0        2.315896   -3.927086   -0.801754
     44          8           0        2.540354   -3.545139   -1.926846
     45          8           0        1.120163   -4.516383   -0.377171
     46          6           0        0.311706   -4.992136   -1.577352
     47          6           0       -3.207502   -2.989988   -0.889270
     48          6           0       -4.539262   -2.380290   -0.409428
     49          6           0       -5.701545   -2.914905   -0.140299
     50          6           0       -5.977091   -4.454264   -0.066238
     51          6           0       -6.882612   -2.062184    0.341116
     52          6           0       -7.688705   -1.328497   -0.726206
     53          6           0       -7.987826    0.223389   -0.512362
     54          6           0       -9.484403    0.570305   -0.743080
     55          6           0       -9.865069    0.507352   -2.210316
     56          6           0       -9.761374    1.995708   -0.285591
     57          6           0      -10.106936    2.067037    1.220801
     58          6           0      -11.254486    3.053718    1.693200
     59          6           0      -12.622653    2.405732    2.067157
     60          6           0      -13.051870    2.504150    3.532843
     61          6           0      -13.881553    2.902472    1.125913
     62          6           0      -14.969711    1.857575    1.177105
     63          6           0      -15.441340    1.350360   -0.190470
     64          6           0      -14.943380    0.039114   -0.730759
     65          6           0      -13.753343    0.162588   -1.659387
     66          6           0      -16.008694   -0.885900   -1.292001
     67          1           0        2.515918    3.304884   -1.029953
     68          1           0        8.973469    3.920482    0.003909
     69          1           0        9.345854   -2.379852    1.079422
     70          1           0        1.262644   -1.372912   -0.996691
     71          1           0        0.825192    1.433149   -0.026440
     72          1           0        1.395232    1.917258   -2.579235
     73          1           0       -0.068872    1.636312   -1.993648
     74          1           0        0.779851    0.191132   -2.657519
     75          1           0        1.196071   -0.503941    1.837989
     76          1           0        0.847774   -2.083715    1.019058
     77          1           0       -1.047237   -0.133429    0.075322
     78          1           0       -1.038032   -0.346609    1.812732
     79          1           0        2.916939    5.231259   -0.905017
     80          1           0        4.133891    6.196526   -1.834431
     81          1           0        3.737559    6.452807   -0.075557
     82          1           0        5.903743    7.596356    0.008776
     83          1           0        5.880025    7.340305   -1.734257
     84          1           0        7.298778    8.126989   -1.128804
     85          1           0       10.463503    2.012394    1.461742
     86          1           0       10.824958   -0.226768   -0.558551
     87          1           0       11.710187    3.146777   -0.168167
     88          1           0       10.510520    3.029324   -1.369947
     89          1           0       11.699559    1.846800   -1.410736
     90          1           0       10.597901   -1.208325    2.207165
     91          1           0       11.622480    0.231040    2.189127
     92          1           0       12.438236   -1.707365    0.111092
     93          1           0       12.462752   -2.258445    1.898092
     94          1           0       13.266059   -0.828605    1.420304
     95          1           0        8.163451   -4.629316    1.893146
     96          1           0        8.414250   -4.824010    0.056003
     97          1           0        7.079799   -5.676334    0.908745
     98          1           0        2.556717   -3.628425    1.271099
     99          1           0       -0.415847   -4.341096   -2.062054
    100          1           0       -0.308587   -5.768846   -1.131114
    101          1           0        1.011289   -5.341422   -2.336681
    102          1           0       -2.999802   -3.925930   -0.370355
    103          1           0       -3.217051   -3.300695   -1.933086
    104          1           0       -4.523922   -1.296912   -0.290139
    105          1           0       -6.905401   -4.862495   -0.465852
    106          1           0       -5.918778   -4.799534    0.966685
    107          1           0       -5.197257   -4.935266   -0.656535
    108          1           0       -6.540205   -1.365244    1.106477
    109          1           0       -7.461482   -2.797647    0.899799
    110          1           0       -8.667524   -1.805023   -0.777088
    111          1           0       -7.223820   -1.516074   -1.694269
    112          1           0       -7.339559    0.835212   -1.139236
    113          1           0       -7.725988    0.445903    0.521665
    114          1           0       -9.986296   -0.142362   -0.088366
    115          1           0      -10.933589    0.692008   -2.317165
    116          1           0       -9.671316   -0.553365   -2.370113
    117          1           0       -9.270967    1.111362   -2.896874
    118          1           0      -10.649116    2.350763   -0.809362
    119          1           0       -8.967485    2.720813   -0.461379
    120          1           0       -9.224881    2.520360    1.674905
    121          1           0      -10.270714    1.141266    1.772283
    122          1           0      -11.566675    3.715762    0.885856
    123          1           0      -10.917290    3.735212    2.474443
    124          1           0      -12.538384    1.358644    1.775394
    125          1           0      -13.752684    3.322719    3.700348
    126          1           0      -12.250680    2.741579    4.232425
    127          1           0      -13.481209    1.564724    3.882676
    128          1           0      -13.520329    3.210498    0.145059
    129          1           0      -14.325582    3.798552    1.561275
    130          1           0      -15.808267    2.264992    1.741928
    131          1           0      -14.647456    1.035225    1.815613
    132          1           0      -15.165302    2.135631   -0.894640
    133          1           0      -16.524047    1.427451   -0.094984
    134          1           0      -14.427634   -0.498235    0.064924
    135          1           0      -13.029729    0.956217   -1.479813
    136          1           0      -14.279082    0.392052   -2.586635
    137          1           0      -13.189944   -0.763490   -1.776943
    138          1           0      -16.977451   -0.386278   -1.295732
    139          1           0      -16.065819   -1.754240   -0.634250
    140          1           0      -15.620037   -1.281310   -2.230246
 ---------------------------------------------------------------------

 SCF Done:  E(RwB97XD) =  -3007.85537243     A.U. after   20 cycles

 Excitation energies and oscillator strengths:

 Excited State   1:      Singlet-A      1.6151 eV  767.64 nm  f=0.3903  <S**2>=0.000
     245 -> 248       -0.18853
     246 -> 247        0.68376
     245 <- 248       -0.12103
 This state for optimization and/or second-order correction.
 Total Energy, E(TD-HF/TD-DFT) =  -3007.79601758
 Copying the excited state density for this state as the 1-particle RhoCI density.

 Excited State   2:      Singlet-A      2.1884 eV  566.54 nm  f=0.1304  <S**2>=0.000
     245 -> 247        0.63963
     246 -> 248        0.29048

 Excited State   3:      Singlet-A      3.4117 eV  363.41 nm  f=0.0069  <S**2>=0.000
     244 -> 247        0.67646
     246 -> 248       -0.10979

 Excited State   4:      Singlet-A      3.5347 eV  350.77 nm  f=0.2719  <S**2>=0.000
     243 -> 247        0.48978
     245 -> 247        0.16486
     246 -> 248       -0.46478

 Excited State   5:      Singlet-A      3.6351 eV  341.07 nm  f=0.2553  <S**2>=0.000
     239 -> 247        0.10536
     241 -> 247        0.41852
     241 -> 249        0.19438
     241 -> 250       -0.17490
     243 -> 247       -0.34976
     245 -> 247        0.16402
     246 -> 248       -0.25969

 The electronic state is 1-A.
 Alpha  occ. eigenvalues --  -46.93858 -19.30611 -19.30098 -19.25225 -19.24850
 Alpha  occ. eigenvalues --  -19.24287 -19.23943 -14.46868 -14.46089 -14.44625
 Alpha  occ. eigenvalues --  -14.44291 -10.43560 -10.43065 -10.39616 -10.38556
 Alpha  occ. eigenvalues --  -10.36392 -10.35457 -10.35176 -10.34947 -10.34942
 Alpha  occ. eigenvalues --  -10.34519 -10.34367 -10.34329 -10.34206 -10.33358
 Alpha  occ. eigenvalues --  -10.33233 -10.32400 -10.32359 -10.32223 -10.32196
 Alpha  occ. eigenvalues --  -10.32120 -10.32094 -10.31650 -10.31612 -10.31356
 Alpha  occ. eigenvalues --  -10.31246 -10.31189 -10.31019 -10.30991 -10.30741
 Alpha  occ. eigenvalues --  -10.30167 -10.30100 -10.29860 -10.29832 -10.29811
 Alpha  occ. eigenvalues --  -10.29781 -10.29696 -10.29666 -10.29541 -10.29480
 Alpha  occ. eigenvalues --  -10.29335 -10.29325 -10.29269 -10.29174 -10.29001
 Alpha  occ. eigenvalues --  -10.28728 -10.28719 -10.28501 -10.28478 -10.28461
 Alpha  occ. eigenvalues --  -10.28211 -10.28115 -10.28111 -10.28102 -10.28095
 Alpha  occ. eigenvalues --  -10.28089  -3.20063  -1.93652  -1.93176  -1.93083
 Alpha  occ. eigenvalues --   -1.18090  -1.17724  -1.13018  -1.11838  -1.09981
 Alpha  occ. eigenvalues --   -1.09361  -1.06205  -1.05704  -1.04761  -1.03153
 Alpha  occ. eigenvalues --   -0.94638  -0.92920  -0.92103  -0.91558  -0.90952
 Alpha  occ. eigenvalues --   -0.90899  -0.90233  -0.89544  -0.89169  -0.89108
 Alpha  occ. eigenvalues --   -0.88548  -0.87735  -0.86036  -0.85642  -0.85123
 Alpha  occ. eigenvalues --   -0.84573  -0.84035  -0.83318  -0.82741  -0.82334
 Alpha  occ. eigenvalues --   -0.81767  -0.80522  -0.80169  -0.79042  -0.78391
 Alpha  occ. eigenvalues --   -0.77622  -0.77404  -0.76928  -0.76683  -0.76253
 Alpha  occ. eigenvalues --   -0.75929  -0.74752  -0.73963  -0.72881  -0.70756
 Alpha  occ. eigenvalues --   -0.70530  -0.70217  -0.69094  -0.68771  -0.67596
 Alpha  occ. eigenvalues --   -0.67376  -0.67055  -0.66867  -0.66457  -0.65414
 Alpha  occ. eigenvalues --   -0.64980  -0.64662  -0.64163  -0.63784  -0.61977
 Alpha  occ. eigenvalues --   -0.61899  -0.61858  -0.61341  -0.60889  -0.60332
 Alpha  occ. eigenvalues --   -0.59718  -0.59438  -0.58232  -0.57825  -0.57336
 Alpha  occ. eigenvalues --   -0.57172  -0.56772  -0.56258  -0.55819  -0.55583
 Alpha  occ. eigenvalues --   -0.55447  -0.55352  -0.55009  -0.54848  -0.54767
 Alpha  occ. eigenvalues --   -0.54721  -0.54430  -0.54420  -0.54119  -0.54078
 Alpha  occ. eigenvalues --   -0.53761  -0.53523  -0.53312  -0.52805  -0.52521
 Alpha  occ. eigenvalues --   -0.52438  -0.52389  -0.52116  -0.51888  -0.51549
 Alpha  occ. eigenvalues --   -0.51528  -0.51257  -0.51086  -0.51003  -0.50652
 Alpha  occ. eigenvalues --   -0.50571  -0.50400  -0.50130  -0.50056  -0.49736
 Alpha  occ. eigenvalues --   -0.49409  -0.49358  -0.49075  -0.48878  -0.48574
 Alpha  occ. eigenvalues --   -0.48256  -0.48124  -0.48062  -0.47711  -0.47549
 Alpha  occ. eigenvalues --   -0.47380  -0.47198  -0.47026  -0.46953  -0.46901
 Alpha  occ. eigenvalues --   -0.46283  -0.46205  -0.46171  -0.45973  -0.45823
 Alpha  occ. eigenvalues --   -0.45636  -0.45548  -0.45473  -0.45164  -0.45065
 Alpha  occ. eigenvalues --   -0.44768  -0.44616  -0.44553  -0.44279  -0.44030
 Alpha  occ. eigenvalues --   -0.43823  -0.43712  -0.43614  -0.43354  -0.43253
 Alpha  occ. eigenvalues --   -0.42812  -0.42650  -0.42409  -0.42187  -0.42067
 Alpha  occ. eigenvalues --   -0.41919  -0.41652  -0.41383  -0.41113  -0.41043
 Alpha  occ. eigenvalues --   -0.40247  -0.40084  -0.39754  -0.39738  -0.39013
 Alpha  occ. eigenvalues --   -0.39001  -0.38814  -0.38407  -0.38296  -0.38146
 Alpha  occ. eigenvalues --   -0.37587  -0.36740  -0.36701  -0.36557  -0.36385
 Alpha  occ. eigenvalues --   -0.35860  -0.35469  -0.35241  -0.33580  -0.33307
 Alpha  occ. eigenvalues --   -0.33118  -0.32700  -0.32464  -0.32015  -0.26046
 Alpha  occ. eigenvalues --   -0.22986
 Alpha virt. eigenvalues --   -0.07248   0.00267   0.02403   0.04433   0.05963
 Alpha virt. eigenvalues --    0.06460   0.06627   0.08149   0.08349   0.09305
 Alpha virt. eigenvalues --    0.10332   0.11340   0.11575   0.12380   0.12539

 Mulliken charges:
               1
     1  Mg   0.996527
     2  C   -0.062082
     3  C   -0.102972
     4  C   -0.057304
     5  C   -0.089194
     6  N   -0.353592
     7  C    0.012815
     8  C   -0.079539
     9  C   -0.084903
    10  C    0.081419
    11  C    0.026996
    12  C    0.005614
    13  C    0.051702
    14  C    0.197111
    15  O   -0.263095
    16  O   -0.385983
    17  N   -0.472904
    18  C    0.204928
    19  C   -0.191471
    20  C   -0.079101
    21  C    0.155522
    22  C    0.062889
    23  C    0.069240
    24  O   -0.242715
    25  C   -0.011215
    26  N   -0.334350
    27  C    0.047520
    28  C   -0.096937
    29  C   -0.041392
    30  C    0.084915
    31  C   -0.016936
    32  C   -0.036293
    33  C   -0.035722
    34  N   -0.533799
    35  C    0.088021
    36  C   -0.191011
    37  C   -0.034394
    38  C    0.197483
    39  C    0.081469
    40  C    0.064610
    41  O   -0.203016
    42  C   -0.025410
    43  C    0.261198
    44  O   -0.236355
    45  O   -0.387588
    46  C    0.122417
    47  C    0.261121
    48  C   -0.123327
    49  C   -0.212689
    50  C    0.002624
    51  C    0.039692
    52  C   -0.017984
    53  C   -0.003990
    54  C   -0.205827
    55  C    0.031324
    56  C    0.048014
    57  C   -0.051077
    58  C    0.030135
    59  C   -0.208030
    60  C    0.006868
    61  C   -0.014002
    62  C   -0.033385
    63  C    0.031482
    64  C   -0.187410
    65  C   -0.048074
    66  C    0.025487
    67  H   -0.006392
    68  H    0.021202
    69  H    0.013750
    70  H    0.050179
    71  H    0.035533
    72  H    0.020246
    73  H    0.020214
    74  H    0.064104
    75  H    0.036566
    76  H    0.051501
    77  H    0.040865
    78  H    0.059964
    79  H    0.020632
    80  H    0.060961
    81  H    0.053227
    82  H    0.064618
    83  H    0.037829
    84  H    0.059477
    85  H    0.054766
    86  H    0.041682
    87  H    0.041672
    88  H    0.043545
    89  H    0.037711
    90  H    0.033012
    91  H    0.027244
    92  H    0.047916
    93  H    0.033611
    94  H    0.028783
    95  H    0.061674
    96  H    0.057755
    97  H    0.062223
    98  H    0.094041
    99  H    0.057723
   100  H    0.055565
   101  H    0.073527
   102  H    0.042344
   103  H    0.055113
   104  H    0.017236
   105  H    0.038747
   106  H    0.062040
   107  H    0.020394
   108  H    0.030970
   109  H    0.012135
   110  H    0.021713
   111  H    0.032264
   112  H    0.017878
   113  H    0.013193
   114  H    0.021605
   115  H    0.028847
   116  H    0.011840
   117  H    0.037898
   118  H    0.007534
   119  H    0.022345
   120  H    0.015919
   121  H    0.022773
   122  H    0.000070
   123  H    0.011248
   124  H    0.016973
   125  H    0.024174
   126  H    0.022730
   127  H    0.033850
   128  H    0.018002
   129  H    0.017141
   130  H    0.013926
   131  H    0.012302
   132  H    0.005669
   133  H    0.010376
   134  H    0.012575
   135  H    0.038392
   136  H    0.018867
   137  H    0.036115
   138  H    0.037255
   139  H    0.026189
   140  H    0.020356
 Sum of Mulliken charges =  -0.00000

 Dipole moment (field-independent basis, Debye):
    X=             -2.2664    Y=              2.7312    Z=             -0.0747  Tot=              3.5498
 Quadrupole moment (field-independent basis, Debye-Ang):
   XX=           -379.6776   YY=           -416.5395   ZZ=           -405.4270
   XY=             -4.0502   XZ=              9.4621   YZ=             -2.2438

 Normal termination of Gaussian 16 at Thu May  5 00:38:19 2022.
