 Gaussian 16, Revision A.03,
 Gaussian 16:  ES64L-G16RevA.03 25-Dec-2016

 --------------------
 #p ZINDO=(nstates=5)
 --------------------

 ----------------------------
 step_451_chromophore_4 ZINDO
 ----------------------------
 Symbolic Z-matrix:
 Charge =  0 Multiplicity = 1

                         Standard orientation:
 ---------------------------------------------------------------------
 Center     Atomic      Atomic             Coordinates (Angstroms)
 Number     Number       Type             X           Y           Z
 ---------------------------------------------------------------------
      1         12           0        5.949603    0.510153    0.191633
      2          6           0        3.727656   -2.049371    0.220089
      3          6           0        3.342065    2.661215   -0.720493
      4          6           0        8.212764    3.138553    0.048061
      5          6           0        8.642869   -1.681823    0.620459
      6          7           0        3.788632    0.299562   -0.246632
      7          6           0        3.098898   -0.836277   -0.046439
      8          6           0        1.546196   -0.611755   -0.270165
      9          6           0        1.507366    0.897673   -0.686014
     10          6           0        2.954799    1.355576   -0.554960
     11          6           0        0.878063    1.103903   -2.070390
     12          6           0        0.760428   -0.998180    0.969122
     13          6           0       -0.710318   -0.793738    0.874272
     14          6           0       -1.625827   -1.965742    0.685170
     15          8           0       -2.070587   -2.677679    1.591725
     16          8           0       -2.088034   -2.111911   -0.632428
     17          7           0        5.765098    2.584573   -0.140939
     18          6           0        4.621100    3.233328   -0.548355
     19          6           0        4.947746    4.671686   -0.610817
     20          6           0        6.358753    4.883254   -0.395691
     21          6           0        6.844381    3.511784   -0.102035
     22          6           0        3.884678    5.732434   -0.880012
     23          6           0        7.233764    6.135599   -0.457115
     24          8           0        8.394923    6.236507   -0.048590
     25          6           0        6.529788    7.401420   -0.862254
     26          7           0        8.113645    0.710178    0.293675
     27          6           0        8.779493    1.892312    0.196964
     28          6           0       10.262058    1.627541    0.462234
     29          6           0       10.400382    0.064446    0.402323
     30          6           0        8.954796   -0.330376    0.451523
     31          6           0       11.102029    2.410434   -0.694812
     32          6           0       11.241414   -0.589629    1.581762
     33          6           0       12.405959   -1.450259    1.169524
     34          7           0        6.197502   -1.388110    0.348057
     35          6           0        7.275403   -2.249903    0.594986
     36          6           0        6.906526   -3.644359    0.639444
     37          6           0        5.481193   -3.589180    0.526722
     38          6           0        5.113436   -2.211262    0.404373
     39          6           0        7.733128   -4.803307    0.907692
     40          6           0        4.315238   -4.405012    0.329138
     41          8           0        4.283834   -5.600516    0.150186
     42          6           0        3.097551   -3.497152    0.334183
     43          6           0        2.315896   -3.927086   -0.801754
     44          8           0        2.540354   -3.545139   -1.926846
     45          8           0        1.120163   -4.516383   -0.377171
     46          6           0        0.311706   -4.992136   -1.577352
     47          6           0       -3.207502   -2.989988   -0.889270
     48          6           0       -4.539262   -2.380290   -0.409428
     49          6           0       -5.701545   -2.914905   -0.140299
     50          6           0       -5.977091   -4.454264   -0.066238
     51          6           0       -6.882612   -2.062184    0.341116
     52          6           0       -7.688705   -1.328497   -0.726206
     53          6           0       -7.987826    0.223389   -0.512362
     54          6           0       -9.484403    0.570305   -0.743080
     55          6           0       -9.865069    0.507352   -2.210316
     56          6           0       -9.761374    1.995708   -0.285591
     57          6           0      -10.106936    2.067037    1.220801
     58          6           0      -11.254486    3.053718    1.693200
     59          6           0      -12.622653    2.405732    2.067157
     60          6           0      -13.051870    2.504150    3.532843
     61          6           0      -13.881553    2.902472    1.125913
     62          6           0      -14.969711    1.857575    1.177105
     63          6           0      -15.441340    1.350360   -0.190470
     64          6           0      -14.943380    0.039114   -0.730759
     65          6           0      -13.753343    0.162588   -1.659387
     66          6           0      -16.008694   -0.885900   -1.292001
     67          1           0        2.515918    3.304884   -1.029953
     68          1           0        8.973469    3.920482    0.003909
     69          1           0        9.345854   -2.379852    1.079422
     70          1           0        1.262644   -1.372912   -0.996691
     71          1           0        0.825192    1.433149   -0.026440
     72          1           0        1.395232    1.917258   -2.579235
     73          1           0       -0.068872    1.636312   -1.993648
     74          1           0        0.779851    0.191132   -2.657519
     75          1           0        1.196071   -0.503941    1.837989
     76          1           0        0.847774   -2.083715    1.019058
     77          1           0       -1.047237   -0.133429    0.075322
     78          1           0       -1.038032   -0.346609    1.812732
     79          1           0        2.916939    5.231259   -0.905017
     80          1           0        4.133891    6.196526   -1.834431
     81          1           0        3.737559    6.452807   -0.075557
     82          1           0        5.903743    7.596356    0.008776
     83          1           0        5.880025    7.340305   -1.734257
     84          1           0        7.298778    8.126989   -1.128804
     85          1           0       10.463503    2.012394    1.461742
     86          1           0       10.824958   -0.226768   -0.558551
     87          1           0       11.710187    3.146777   -0.168167
     88          1           0       10.510520    3.029324   -1.369947
     89          1           0       11.699559    1.846800   -1.410736
     90          1           0       10.597901   -1.208325    2.207165
     91          1           0       11.622480    0.231040    2.189127
     92          1           0       12.438236   -1.707365    0.111092
     93          1           0       12.462752   -2.258445    1.898092
     94          1           0       13.266059   -0.828605    1.420304
     95          1           0        8.163451   -4.629316    1.893146
     96          1           0        8.414250   -4.824010    0.056003
     97          1           0        7.079799   -5.676334    0.908745
     98          1           0        2.556717   -3.628425    1.271099
     99          1           0       -0.415847   -4.341096   -2.062054
    100          1           0       -0.308587   -5.768846   -1.131114
    101          1           0        1.011289   -5.341422   -2.336681
    102          1           0       -2.999802   -3.925930   -0.370355
    103          1           0       -3.217051   -3.300695   -1.933086
    104          1           0       -4.523922   -1.296912   -0.290139
    105          1           0       -6.905401   -4.862495   -0.465852
    106          1           0       -5.918778   -4.799534    0.966685
    107          1           0       -5.197257   -4.935266   -0.656535
    108          1           0       -6.540205   -1.365244    1.106477
    109          1           0       -7.461482   -2.797647    0.899799
    110          1           0       -8.667524   -1.805023   -0.777088
    111          1           0       -7.223820   -1.516074   -1.694269
    112          1           0       -7.339559    0.835212   -1.139236
    113          1           0       -7.725988    0.445903    0.521665
    114          1           0       -9.986296   -0.142362   -0.088366
    115          1           0      -10.933589    0.692008   -2.317165
    116          1           0       -9.671316   -0.553365   -2.370113
    117          1           0       -9.270967    1.111362   -2.896874
    118          1           0      -10.649116    2.350763   -0.809362
    119          1           0       -8.967485    2.720813   -0.461379
    120          1           0       -9.224881    2.520360    1.674905
    121          1           0      -10.270714    1.141266    1.772283
    122          1           0      -11.566675    3.715762    0.885856
    123          1           0      -10.917290    3.735212    2.474443
    124          1           0      -12.538384    1.358644    1.775394
    125          1           0      -13.752684    3.322719    3.700348
    126          1           0      -12.250680    2.741579    4.232425
    127          1           0      -13.481209    1.564724    3.882676
    128          1           0      -13.520329    3.210498    0.145059
    129          1           0      -14.325582    3.798552    1.561275
    130          1           0      -15.808267    2.264992    1.741928
    131          1           0      -14.647456    1.035225    1.815613
    132          1           0      -15.165302    2.135631   -0.894640
    133          1           0      -16.524047    1.427451   -0.094984
    134          1           0      -14.427634   -0.498235    0.064924
    135          1           0      -13.029729    0.956217   -1.479813
    136          1           0      -14.279082    0.392052   -2.586635
    137          1           0      -13.189944   -0.763490   -1.776943
    138          1           0      -16.977451   -0.386278   -1.295732
    139          1           0      -16.065819   -1.754240   -0.634250
    140          1           0      -15.620037   -1.281310   -2.230246
 ---------------------------------------------------------------------

 SCF Done:  E(RZINDO/S) =  -474.297030394     A.U. after   21 cycles

 Excitation energies and oscillator strengths:

 Excited State   1:      Singlet-A      1.2372 eV 1002.14 nm  f=0.6226  <S**2>=0.000
     175 ->178         0.19788
     176 ->177         0.66113
 This state for optimization and/or second-order correction.
 Total Energy, E(CIS/TDA) =  -474.251564458
 Copying the excited state density for this state as the 1-particle RhoCI density.

 Excited State   2:      Singlet-A      1.9343 eV  640.96 nm  f=0.0606  <S**2>=0.000
     175 ->177         0.55363
     176 ->178        -0.41697

 Excited State   3:      Singlet-A      2.9791 eV  416.18 nm  f=0.0446  <S**2>=0.000
     169 ->177         0.32078
     169 ->178        -0.11501
     169 ->179         0.27830
     169 ->180         0.26049
     169 ->182        -0.16522
     169 ->185         0.18031
     170 ->177         0.16705
     170 ->179         0.14909
     170 ->180         0.13723
     176 ->178         0.10491

 Excited State   4:      Singlet-A      3.0420 eV  407.57 nm  f=0.6360  <S**2>=0.000
     168 ->177         0.16416
     168 ->179        -0.27155
     168 ->180         0.18742
     168 ->185        -0.13369
     175 ->177         0.28118
     176 ->178         0.38397
     176 ->179         0.19107

 Excited State   5:      Singlet-A      3.0575 eV  405.51 nm  f=0.6222  <S**2>=0.000
     168 ->177        -0.18329
     168 ->179         0.27325
     168 ->180        -0.19547
     168 ->185         0.13258
     175 ->177         0.27182
     176 ->178         0.37388
     176 ->179        -0.20116

 The electronic state is 1-A.
 Alpha  occ. eigenvalues --   -1.84292  -1.80585  -1.78110  -1.72534  -1.72199
 Alpha  occ. eigenvalues --   -1.68994  -1.65201  -1.62031  -1.59115  -1.58009
 Alpha  occ. eigenvalues --   -1.54508  -1.52362  -1.49876  -1.48819  -1.47819
 Alpha  occ. eigenvalues --   -1.44768  -1.43428  -1.39772  -1.39364  -1.39029
 Alpha  occ. eigenvalues --   -1.36266  -1.35603  -1.32727  -1.31946  -1.27786
 Alpha  occ. eigenvalues --   -1.27331  -1.25002  -1.22172  -1.20504  -1.18174
 Alpha  occ. eigenvalues --   -1.17443  -1.15915  -1.15250  -1.13552  -1.13179
 Alpha  occ. eigenvalues --   -1.12828  -1.11287  -1.10888  -1.04199  -1.04025
 Alpha  occ. eigenvalues --   -1.03136  -1.00767  -0.99527  -0.98328  -0.96799
 Alpha  occ. eigenvalues --   -0.94495  -0.94166  -0.93241  -0.92712  -0.91890
 Alpha  occ. eigenvalues --   -0.90961  -0.90668  -0.89263  -0.88885  -0.86522
 Alpha  occ. eigenvalues --   -0.86294  -0.83704  -0.82646  -0.81617  -0.80986
 Alpha  occ. eigenvalues --   -0.79655  -0.79132  -0.77437  -0.76685  -0.76078
 Alpha  occ. eigenvalues --   -0.75740  -0.75459  -0.74900  -0.74447  -0.73206
 Alpha  occ. eigenvalues --   -0.73140  -0.72669  -0.71953  -0.71514  -0.70464
 Alpha  occ. eigenvalues --   -0.70258  -0.69258  -0.68935  -0.68219  -0.67974
 Alpha  occ. eigenvalues --   -0.67744  -0.67301  -0.66777  -0.66403  -0.65842
 Alpha  occ. eigenvalues --   -0.65622  -0.64845  -0.64677  -0.64038  -0.63915
 Alpha  occ. eigenvalues --   -0.63662  -0.62708  -0.62407  -0.62150  -0.61515
 Alpha  occ. eigenvalues --   -0.61342  -0.61133  -0.60772  -0.59997  -0.59390
 Alpha  occ. eigenvalues --   -0.59233  -0.58830  -0.58676  -0.58121  -0.57922
 Alpha  occ. eigenvalues --   -0.57730  -0.57415  -0.56881  -0.56501  -0.56446
 Alpha  occ. eigenvalues --   -0.56118  -0.55718  -0.55050  -0.54761  -0.54190
 Alpha  occ. eigenvalues --   -0.54124  -0.53863  -0.52926  -0.52668  -0.52333
 Alpha  occ. eigenvalues --   -0.52085  -0.52007  -0.51945  -0.51609  -0.51533
 Alpha  occ. eigenvalues --   -0.51049  -0.50695  -0.50413  -0.50239  -0.50070
 Alpha  occ. eigenvalues --   -0.49954  -0.49760  -0.49569  -0.49395  -0.49256
 Alpha  occ. eigenvalues --   -0.48825  -0.48643  -0.48415  -0.47940  -0.47694
 Alpha  occ. eigenvalues --   -0.47425  -0.47359  -0.47184  -0.46835  -0.46228
 Alpha  occ. eigenvalues --   -0.45959  -0.45785  -0.45587  -0.45177  -0.44959
 Alpha  occ. eigenvalues --   -0.44775  -0.44670  -0.44497  -0.44085  -0.43528
 Alpha  occ. eigenvalues --   -0.43158  -0.42820  -0.42431  -0.42196  -0.42018
 Alpha  occ. eigenvalues --   -0.41684  -0.41413  -0.41352  -0.38880  -0.38656
 Alpha  occ. eigenvalues --   -0.38190  -0.37174  -0.35670  -0.34659  -0.34448
 Alpha  occ. eigenvalues --   -0.33127  -0.33073  -0.32823  -0.32185  -0.26614
 Alpha  occ. eigenvalues --   -0.21788
 Alpha virt. eigenvalues --   -0.08677  -0.01951  -0.00374   0.01275   0.01529
 Alpha virt. eigenvalues --    0.02327   0.02943   0.03341   0.04930   0.05648
 Alpha virt. eigenvalues --    0.06417   0.07017   0.07275   0.08036   0.08255

 Mulliken charges:
               1
     1  Mg   0.421808
     2  C   -0.049104
     3  C   -0.067981
     4  C   -0.056780
     5  C   -0.094381
     6  N   -0.278260
     7  C    0.126556
     8  C   -0.005131
     9  C    0.010780
    10  C    0.126718
    11  C   -0.056011
    12  C   -0.011795
    13  C    0.014499
    14  C    0.470487
    15  O   -0.517103
    16  O   -0.285863
    17  N   -0.329167
    18  C    0.111589
    19  C    0.003285
    20  C   -0.056741
    21  C    0.123075
    22  C   -0.049819
    23  C    0.337111
    24  O   -0.523860
    25  C   -0.033031
    26  N   -0.269454
    27  C    0.135909
    28  C    0.002419
    29  C   -0.002593
    30  C    0.142273
    31  C   -0.065061
    32  C   -0.033337
    33  C   -0.060080
    34  N   -0.315950
    35  C    0.079046
    36  C    0.040656
    37  C   -0.071602
    38  C    0.120395
    39  C   -0.033061
    40  C    0.345251
    41  O   -0.526945
    42  C    0.055864
    43  C    0.500487
    44  O   -0.520176
    45  O   -0.274939
    46  C    0.067365
    47  C    0.111943
    48  C   -0.066437
    49  C   -0.004513
    50  C   -0.049310
    51  C   -0.021304
    52  C   -0.034265
    53  C   -0.037344
    54  C   -0.005941
    55  C   -0.058261
    56  C   -0.028534
    57  C   -0.044320
    58  C   -0.043287
    59  C   -0.019608
    60  C   -0.051810
    61  C   -0.040619
    62  C   -0.031398
    63  C   -0.026710
    64  C   -0.001892
    65  C   -0.057957
    66  C   -0.056558
    67  H    0.026033
    68  H    0.046172
    69  H    0.034619
    70  H    0.046064
    71  H    0.027700
    72  H    0.018745
    73  H    0.012888
    74  H    0.037792
    75  H    0.030310
    76  H    0.028311
    77  H    0.031969
    78  H    0.036464
    79  H    0.018354
    80  H    0.035617
    81  H    0.031971
    82  H    0.049163
    83  H    0.028197
    84  H    0.039498
    85  H    0.045054
    86  H    0.040002
    87  H    0.017592
    88  H    0.025044
    89  H    0.026524
    90  H    0.023821
    91  H    0.018447
    92  H    0.032942
    93  H    0.022270
    94  H    0.012571
    95  H    0.038849
    96  H    0.040439
    97  H    0.037364
    98  H    0.057754
    99  H    0.046031
   100  H    0.029002
   101  H    0.054141
   102  H    0.045192
   103  H    0.040888
   104  H    0.023963
   105  H    0.025704
   106  H    0.033558
   107  H    0.012469
   108  H    0.023018
   109  H    0.016220
   110  H    0.015464
   111  H    0.020527
   112  H    0.020620
   113  H    0.015960
   114  H    0.031093
   115  H    0.021366
   116  H    0.010547
   117  H    0.030741
   118  H    0.012901
   119  H    0.026168
   120  H    0.005226
   121  H    0.027762
   122  H    0.012518
   123  H    0.020259
   124  H    0.016832
   125  H    0.018426
   126  H    0.012212
   127  H    0.018201
   128  H    0.024402
   129  H    0.013098
   130  H    0.012238
   131  H    0.017515
   132  H    0.012976
   133  H    0.012393
   134  H    0.008773
   135  H    0.019760
   136  H    0.010558
   137  H    0.016604
   138  H    0.029170
   139  H    0.013095
   140  H    0.024650
 Sum of Mulliken charges =  -0.00000

 Dipole moment (field-independent basis, Debye):
    X=             -3.2841    Y=              4.4977    Z=             -0.0253  Tot=              5.5691
 N-N= 4.256066322333D+03 E-N= 0.000000000000D+00  KE=-9.186689232810D+03
 Leave Link  601 at Thu May  5 01:07:16 2022, MaxMem=  6710886400 cpu:               0.7 elap:               0.0
 (Enter /sw/apps/gaussian-16.0/g16/l9999.exe)
 1\1\GINC-BP1-COMPUTE141\SP\RZINDO CIS\STO-3G\C55H74Mg1N4O6\OF15641\05-
 May-2022\0\\#p ZINDO=(nstates=5)\\step_451_chromophore_4 ZINDO\\0,1\Mg
 ,0,8.501,3.14,27.548\C,0,10.054,1.962,30.321\C,0,6.804,5.44,29.57\C,0,
 6.811,4.304,24.748\C,0,9.804,0.551,25.588\N,0,8.415,3.6,29.713\C,0,9.2
 39,3.05,30.621\C,0,9.056,3.723,32.044\C,0,7.911,4.752,31.756\C,0,7.664
 ,4.622,30.258\C,0,6.682,4.519,32.645\C,0,10.371,4.289,32.547\C,0,10.30
 1,4.974,33.866\C,0,10.833,4.302,35.096\O,0,12.011,4.323,35.468\O,0,9.8

 Normal termination of Gaussian 16 at Thu May  5 01:07:16 2022.
