 Gaussian 16, Revision A.03,
 Gaussian 16:  ES64L-G16RevA.03 25-Dec-2016

 ------------------------------
 #p blyp/Def2SVP td=(nstates=5)
 ------------------------------

 --------------------------------------------------
 step_451_chromophore_22 TDDFT with blyp functional
 --------------------------------------------------
 Symbolic Z-matrix:
 Charge =  0 Multiplicity = 1

                         Standard orientation:
 ---------------------------------------------------------------------
 Center     Atomic      Atomic             Coordinates (Angstroms)
 Number     Number       Type             X           Y           Z
 ---------------------------------------------------------------------
      1         12           0        6.235550    0.479406    0.054049
      2          6           0        3.717112   -1.779894   -0.604788
      3          6           0        4.319293    2.959128   -1.292906
      4          6           0        8.937568    2.561745    0.425912
      5          6           0        8.470955   -2.272971    0.365643
      6          7           0        4.109235    0.592686   -0.670513
      7          6           0        3.236944   -0.461939   -0.774759
      8          6           0        1.910746    0.012381   -1.261183
      9          6           0        2.246797    1.462588   -1.800430
     10          6           0        3.678443    1.690551   -1.245993
     11          6           0        2.350591    1.601935   -3.278348
     12          6           0        0.763781   -0.076410   -0.198168
     13          6           0       -0.552759   -0.672363   -0.659232
     14          6           0       -1.472415   -1.214082    0.394944
     15          8           0       -1.097311   -1.633123    1.488201
     16          8           0       -2.784552   -1.191707   -0.051833
     17          7           0        6.518595    2.479272   -0.164638
     18          6           0        5.611859    3.347739   -0.686557
     19          6           0        6.051487    4.773393   -0.537811
     20          6           0        7.367545    4.723000    0.011336
     21          6           0        7.676671    3.194757    0.142419
     22          6           0        5.172255    5.949215   -0.950642
     23          6           0        8.281995    5.878137    0.393463
     24          8           0        9.366978    5.663093    0.941291
     25          6           0        7.761301    7.273882    0.278140
     26          7           0        8.355595    0.137706    0.359945
     27          6           0        9.201649    1.184259    0.476975
     28          6           0       10.679522    0.683747    0.452386
     29          6           0       10.497025   -0.775288    0.843295
     30          6           0        9.066006   -0.985296    0.467470
     31          6           0       11.370765    1.049280   -0.881526
     32          6           0       10.809898   -1.000460    2.335962
     33          6           0       11.785778   -2.163509    2.702480
     34          7           0        6.149773   -1.610972   -0.127509
     35          6           0        7.127762   -2.508471    0.042191
     36          6           0        6.559686   -3.778370   -0.241483
     37          6           0        5.198786   -3.561468   -0.452906
     38          6           0        5.020997   -2.187501   -0.363273
     39          6           0        7.230519   -5.060299   -0.372558
     40          6           0        3.902356   -4.193510   -0.713774
     41          8           0        3.535912   -5.357322   -0.787839
     42          6           0        2.927829   -3.059115   -0.811192
     43          6           0        1.907740   -3.351658    0.253719
     44          8           0        1.977036   -3.016658    1.404620
     45          8           0        0.910368   -4.097563   -0.399243
     46          6           0       -0.023748   -4.817826    0.519722
     47          6           0       -3.727575   -1.556606    0.917880
     48          6           0       -5.119971   -1.417633    0.414108
     49          6           0       -5.963383   -2.413524    0.123679
     50          6           0       -5.882534   -3.890536    0.597384
     51          6           0       -7.115989   -2.021778   -0.682273
     52          6           0       -8.248354   -1.604478    0.136395
     53          6           0       -8.610420   -0.126173    0.061075
     54          6           0      -10.040773    0.063532   -0.511954
     55          6           0       -9.943555    0.248470   -2.038567
     56          6           0      -10.832607    1.290995    0.234538
     57          6           0      -11.835616    0.900422    1.337141
     58          6           0      -12.233916    2.076977    2.158369
     59          6           0      -13.670744    1.940093    2.656504
     60          6           0      -13.887671    2.373353    4.098341
     61          6           0      -14.736210    2.472171    1.699200
     62          6           0      -15.292197    1.360323    0.726154
     63          6           0      -14.889989    1.636593   -0.761863
     64          6           0      -15.215726    0.411090   -1.664528
     65          6           0      -14.036320    0.100296   -2.485075
     66          6           0      -16.505959    0.572864   -2.480908
     67          1           0        3.656618    3.676154   -1.782119
     68          1           0        9.703686    3.319389    0.606271
     69          1           0        9.134227   -3.140327    0.404235
     70          1           0        1.679623   -0.567899   -2.154799
     71          1           0        1.498101    2.152250   -1.410260
     72          1           0        1.527209    2.182619   -3.694745
     73          1           0        2.485492    0.714145   -3.897144
     74          1           0        3.211622    2.220615   -3.530825
     75          1           0        0.510795    0.961727    0.017340
     76          1           0        1.107613   -0.618233    0.683296
     77          1           0       -0.562302   -1.436608   -1.436866
     78          1           0       -1.165227    0.155822   -1.015969
     79          1           0        4.140024    5.797007   -1.265006
     80          1           0        5.588856    6.607776   -1.713348
     81          1           0        5.078921    6.485259   -0.006185
     82          1           0        6.886155    7.367160    0.922082
     83          1           0        7.424489    7.443172   -0.744193
     84          1           0        8.562991    8.001970    0.399736
     85          1           0       11.251075    1.287966    1.156572
     86          1           0       10.982706   -1.381948    0.078375
     87          1           0       12.034171    1.886426   -0.668246
     88          1           0       10.641125    1.445927   -1.586950
     89          1           0       12.036024    0.265027   -1.243827
     90          1           0        9.917800   -1.355202    2.852076
     91          1           0       11.355587   -0.178792    2.799196
     92          1           0       11.304091   -2.859590    3.387545
     93          1           0       12.689153   -1.743571    3.145145
     94          1           0       12.102545   -2.588549    1.750149
     95          1           0        6.538746   -5.745025   -0.862816
     96          1           0        7.762246   -5.389668    0.519844
     97          1           0        8.059761   -4.954313   -1.073208
     98          1           0        2.427939   -3.172891   -1.772719
     99          1           0       -0.962168   -4.282352    0.662592
    100          1           0        0.423105   -4.858067    1.512790
    101          1           0       -0.046237   -5.878672    0.270413
    102          1           0       -3.620162   -0.827616    1.720488
    103          1           0       -3.478005   -2.561359    1.259221
    104          1           0       -5.451081   -0.417119    0.134825
    105          1           0       -6.797485   -4.133667    1.136987
    106          1           0       -4.994035   -4.159235    1.168803
    107          1           0       -5.854449   -4.537380   -0.280302
    108          1           0       -7.456662   -2.789128   -1.377703
    109          1           0       -6.786536   -1.257730   -1.386708
    110          1           0       -7.996914   -1.847907    1.168159
    111          1           0       -9.099143   -2.260790   -0.043231
    112          1           0       -7.814125    0.417846   -0.446261
    113          1           0       -8.647704    0.412031    1.008119
    114          1           0      -10.585907   -0.865695   -0.342970
    115          1           0      -10.349238   -0.621645   -2.553869
    116          1           0       -8.947752    0.499027   -2.405668
    117          1           0      -10.579237    1.051199   -2.413026
    118          1           0      -11.377975    1.902641   -0.484081
    119          1           0      -10.028149    1.922126    0.610277
    120          1           0      -11.330878    0.170935    1.969540
    121          1           0      -12.701826    0.436730    0.863729
    122          1           0      -12.105326    3.044735    1.672815
    123          1           0      -11.611330    1.989428    3.048336
    124          1           0      -13.787071    0.863942    2.776278
    125          1           0      -13.009374    2.786209    4.593168
    126          1           0      -14.290632    1.541411    4.676704
    127          1           0      -14.550481    3.231585    4.210833
    128          1           0      -14.394399    3.320655    1.104497
    129          1           0      -15.559731    2.712466    2.371243
    130          1           0      -16.365885    1.388314    0.909818
    131          1           0      -14.949740    0.334836    0.868169
    132          1           0      -13.852799    1.965900   -0.720290
    133          1           0      -15.555561    2.419904   -1.125761
    134          1           0      -15.279674   -0.440597   -0.986862
    135          1           0      -13.248493   -0.094592   -1.757412
    136          1           0      -13.756333    0.909689   -3.158364
    137          1           0      -14.197349   -0.795646   -3.084335
    138          1           0      -17.213955   -0.179387   -2.133308
    139          1           0      -16.427608    0.183181   -3.495900
    140          1           0      -16.979382    1.537929   -2.660310
 ---------------------------------------------------------------------

 SCF Done:  E(RB-LYP) =  -3007.34296437     A.U. after   20 cycles

 Excitation energies and oscillator strengths:

 Excited State   1:      Singlet-A      1.8186 eV  681.76 nm  f=0.2982  <S**2>=0.000
     245 -> 248       -0.19434
     246 -> 247        0.68440
     246 <- 247       -0.14270
 This state for optimization and/or second-order correction.
 Total Energy, E(TD-HF/TD-DFT) =  -3007.27613273
 Copying the excited state density for this state as the 1-particle RhoCI density.

 Excited State   2:      Singlet-A      1.9949 eV  621.50 nm  f=0.0004  <S**2>=0.000
     244 -> 247        0.70342

 Excited State   3:      Singlet-A      2.0699 eV  599.00 nm  f=0.0659  <S**2>=0.000
     245 -> 247        0.63228
     246 -> 248        0.26657
     246 -> 249       -0.12267

 Excited State   4:      Singlet-A      2.2002 eV  563.51 nm  f=0.0008  <S**2>=0.000
     243 -> 247        0.70592

 Excited State   5:      Singlet-A      2.4561 eV  504.79 nm  f=0.0001  <S**2>=0.000
     242 -> 247        0.70617

 The electronic state is 1-A.
 Alpha  occ. eigenvalues --  -46.27331 -18.81790 -18.80957 -18.76992 -18.76775
 Alpha  occ. eigenvalues --  -18.75743 -18.75027 -14.02929 -14.02860 -14.01978
 Alpha  occ. eigenvalues --  -14.00028 -10.03912 -10.03180 -10.00169  -9.98896
 Alpha  occ. eigenvalues --   -9.96865  -9.96856  -9.96760  -9.96216  -9.96205
 Alpha  occ. eigenvalues --   -9.96141  -9.95991  -9.95804  -9.94864  -9.94331
 Alpha  occ. eigenvalues --   -9.93929  -9.93834  -9.93781  -9.93706  -9.93357
 Alpha  occ. eigenvalues --   -9.93276  -9.93171  -9.93097  -9.93040  -9.92909
 Alpha  occ. eigenvalues --   -9.92872  -9.92837  -9.92824  -9.92680  -9.92430
 Alpha  occ. eigenvalues --   -9.92418  -9.92351  -9.92291  -9.92235  -9.92069
 Alpha  occ. eigenvalues --   -9.91971  -9.91804  -9.91670  -9.91537  -9.91319
 Alpha  occ. eigenvalues --   -9.91272  -9.91182  -9.91140  -9.91100  -9.91089
 Alpha  occ. eigenvalues --   -9.91065  -9.91043  -9.90954  -9.90952  -9.90918
 Alpha  occ. eigenvalues --   -9.90801  -9.90604  -9.90503  -9.90411  -9.90305
 Alpha  occ. eigenvalues --   -9.89779  -2.91943  -1.72379  -1.71811  -1.71662
 Alpha  occ. eigenvalues --   -0.98307  -0.96167  -0.91122  -0.90929  -0.90279
 Alpha  occ. eigenvalues --   -0.89548  -0.88159  -0.86941  -0.86630  -0.84547
 Alpha  occ. eigenvalues --   -0.75835  -0.75024  -0.73623  -0.72929  -0.72342
 Alpha  occ. eigenvalues --   -0.72254  -0.71444  -0.71272  -0.70820  -0.70577
 Alpha  occ. eigenvalues --   -0.70078  -0.69557  -0.68305  -0.67369  -0.67275
 Alpha  occ. eigenvalues --   -0.66635  -0.66003  -0.65424  -0.64968  -0.64401
 Alpha  occ. eigenvalues --   -0.64024  -0.62734  -0.62465  -0.62093  -0.60942
 Alpha  occ. eigenvalues --   -0.60688  -0.60087  -0.59917  -0.59386  -0.59063
 Alpha  occ. eigenvalues --   -0.58554  -0.57307  -0.56319  -0.55665  -0.53763
 Alpha  occ. eigenvalues --   -0.53508  -0.53234  -0.52687  -0.52169  -0.51580
 Alpha  occ. eigenvalues --   -0.51444  -0.50914  -0.50872  -0.50241  -0.50013
 Alpha  occ. eigenvalues --   -0.49546  -0.49121  -0.48673  -0.47560  -0.46934
 Alpha  occ. eigenvalues --   -0.46398  -0.46167  -0.45689  -0.45354  -0.44441
 Alpha  occ. eigenvalues --   -0.44307  -0.43928  -0.43291  -0.43052  -0.42744
 Alpha  occ. eigenvalues --   -0.42428  -0.42095  -0.41801  -0.41531  -0.41159
 Alpha  occ. eigenvalues --   -0.41023  -0.40597  -0.40424  -0.40267  -0.40086
 Alpha  occ. eigenvalues --   -0.39855  -0.39769  -0.39539  -0.39244  -0.39059
 Alpha  occ. eigenvalues --   -0.38998  -0.38691  -0.38549  -0.38429  -0.38319
 Alpha  occ. eigenvalues --   -0.38309  -0.38234  -0.37962  -0.37757  -0.37361
 Alpha  occ. eigenvalues --   -0.37004  -0.36837  -0.36541  -0.36371  -0.36280
 Alpha  occ. eigenvalues --   -0.36163  -0.36083  -0.35736  -0.35643  -0.35573
 Alpha  occ. eigenvalues --   -0.35360  -0.35240  -0.35205  -0.34931  -0.34785
 Alpha  occ. eigenvalues --   -0.34698  -0.34383  -0.34342  -0.34312  -0.33991
 Alpha  occ. eigenvalues --   -0.33865  -0.33649  -0.33444  -0.33085  -0.32923
 Alpha  occ. eigenvalues --   -0.32792  -0.32578  -0.32432  -0.32339  -0.32026
 Alpha  occ. eigenvalues --   -0.31870  -0.31780  -0.31649  -0.31561  -0.31245
 Alpha  occ. eigenvalues --   -0.31035  -0.30799  -0.30654  -0.30525  -0.30398
 Alpha  occ. eigenvalues --   -0.30347  -0.30250  -0.29815  -0.29633  -0.29522
 Alpha  occ. eigenvalues --   -0.29312  -0.29067  -0.29041  -0.28945  -0.28614
 Alpha  occ. eigenvalues --   -0.28512  -0.28471  -0.28372  -0.28226  -0.27602
 Alpha  occ. eigenvalues --   -0.27322  -0.27095  -0.27086  -0.26589  -0.26344
 Alpha  occ. eigenvalues --   -0.26273  -0.25882  -0.25348  -0.25297  -0.25028
 Alpha  occ. eigenvalues --   -0.24923  -0.24502  -0.24351  -0.24123  -0.23378
 Alpha  occ. eigenvalues --   -0.22880  -0.22173  -0.21962  -0.21616  -0.21094
 Alpha  occ. eigenvalues --   -0.20194  -0.20037  -0.18995  -0.18255  -0.17024
 Alpha  occ. eigenvalues --   -0.15389
 Alpha virt. eigenvalues --   -0.11012  -0.06990  -0.05856  -0.04444  -0.02813
 Alpha virt. eigenvalues --   -0.02206  -0.02019  -0.01432  -0.00642   0.00260
 Alpha virt. eigenvalues --    0.01091   0.01577   0.02283   0.02664   0.03013

 Mulliken charges:
               1
     1  Mg   0.709547
     2  C    0.036116
     3  C   -0.035690
     4  C   -0.045409
     5  C   -0.110881
     6  N   -0.178223
     7  C   -0.127354
     8  C    0.072025
     9  C   -0.030730
    10  C   -0.028707
    11  C    0.140692
    12  C    0.147777
    13  C    0.117330
    14  C    0.064499
    15  O   -0.195686
    16  O   -0.261574
    17  N   -0.309210
    18  C    0.141695
    19  C   -0.126186
    20  C    0.008420
    21  C    0.059152
    22  C    0.155120
    23  C   -0.073359
    24  O   -0.171734
    25  C    0.146963
    26  N   -0.173527
    27  C    0.074169
    28  C   -0.064137
    29  C    0.131594
    30  C   -0.046342
    31  C    0.141346
    32  C    0.111699
    33  C    0.043276
    34  N   -0.172407
    35  C    0.133598
    36  C   -0.220274
    37  C    0.091780
    38  C    0.072094
    39  C    0.203703
    40  C   -0.082038
    41  O   -0.129401
    42  C    0.057972
    43  C    0.116007
    44  O   -0.138036
    45  O   -0.302362
    46  C    0.208028
    47  C    0.344398
    48  C   -0.104757
    49  C   -0.137783
    50  C    0.152351
    51  C    0.136807
    52  C    0.103740
    53  C    0.118527
    54  C   -0.085560
    55  C    0.104226
    56  C    0.071380
    57  C    0.067920
    58  C    0.161202
    59  C   -0.107407
    60  C    0.106670
    61  C    0.171258
    62  C    0.018024
    63  C    0.072384
    64  C   -0.050562
    65  C    0.090669
    66  C    0.123436
    67  H   -0.064756
    68  H   -0.042121
    69  H   -0.066786
    70  H   -0.038856
    71  H   -0.028362
    72  H   -0.020010
    73  H   -0.006237
    74  H   -0.021306
    75  H   -0.029182
    76  H    0.031887
    77  H    0.013620
    78  H   -0.015334
    79  H   -0.013796
    80  H    0.012989
    81  H   -0.001760
    82  H    0.022308
    83  H   -0.010727
    84  H   -0.004314
    85  H   -0.031638
    86  H   -0.040063
    87  H   -0.016223
    88  H    0.001297
    89  H   -0.009451
    90  H   -0.009474
    91  H   -0.006129
    92  H    0.003604
    93  H   -0.012163
    94  H   -0.017881
    95  H    0.007402
    96  H   -0.007090
    97  H   -0.025773
    98  H   -0.003327
    99  H    0.022587
   100  H    0.006838
   101  H    0.018581
   102  H   -0.029007
   103  H   -0.024277
   104  H   -0.043892
   105  H   -0.000125
   106  H   -0.009487
   107  H   -0.008255
   108  H   -0.046482
   109  H   -0.026718
   110  H   -0.031251
   111  H   -0.036150
   112  H   -0.033765
   113  H   -0.046228
   114  H   -0.032558
   115  H   -0.016588
   116  H   -0.016217
   117  H   -0.026988
   118  H   -0.034241
   119  H   -0.037031
   120  H   -0.034886
   121  H   -0.023796
   122  H   -0.034804
   123  H   -0.049386
   124  H   -0.048141
   125  H   -0.032895
   126  H   -0.012333
   127  H   -0.030838
   128  H   -0.026646
   129  H   -0.044418
   130  H   -0.033571
   131  H   -0.021178
   132  H   -0.018678
   133  H   -0.034323
   134  H   -0.043687
   135  H   -0.011148
   136  H   -0.014416
   137  H   -0.025906
   138  H   -0.026362
   139  H   -0.043520
   140  H   -0.006419
 Sum of Mulliken charges =  -0.00000

 Dipole moment (field-independent basis, Debye):
    X=             -2.9828    Y=              2.9719    Z=             -2.5043  Tot=              4.8990
 Quadrupole moment (field-independent basis, Debye-Ang):
   XX=           -370.1134   YY=           -410.1079   ZZ=           -409.5429
   XY=              2.3658   XZ=             -6.0578   YZ=            -10.3823

 Normal termination of Gaussian 16 at Fri Apr 29 20:20:34 2022.
