 Gaussian 16, Revision A.03,
 Gaussian 16:  ES64L-G16RevA.03 25-Dec-2016

 -----------------------------------
 #p cam-b3lyp/Def2SVP td=(nstates=5)
 -----------------------------------

 -------------------------------------------------------
 step_451_chromophore_22 TDDFT with cam-b3lyp functional
 -------------------------------------------------------
 Symbolic Z-matrix:
 Charge =  0 Multiplicity = 1

                         Standard orientation:
 ---------------------------------------------------------------------
 Center     Atomic      Atomic             Coordinates (Angstroms)
 Number     Number       Type             X           Y           Z
 ---------------------------------------------------------------------
      1         12           0        6.235550    0.479406    0.054049
      2          6           0        3.717112   -1.779894   -0.604788
      3          6           0        4.319293    2.959128   -1.292906
      4          6           0        8.937568    2.561745    0.425912
      5          6           0        8.470955   -2.272971    0.365643
      6          7           0        4.109235    0.592686   -0.670513
      7          6           0        3.236944   -0.461939   -0.774759
      8          6           0        1.910746    0.012381   -1.261183
      9          6           0        2.246797    1.462588   -1.800430
     10          6           0        3.678443    1.690551   -1.245993
     11          6           0        2.350591    1.601935   -3.278348
     12          6           0        0.763781   -0.076410   -0.198168
     13          6           0       -0.552759   -0.672363   -0.659232
     14          6           0       -1.472415   -1.214082    0.394944
     15          8           0       -1.097311   -1.633123    1.488201
     16          8           0       -2.784552   -1.191707   -0.051833
     17          7           0        6.518595    2.479272   -0.164638
     18          6           0        5.611859    3.347739   -0.686557
     19          6           0        6.051487    4.773393   -0.537811
     20          6           0        7.367545    4.723000    0.011336
     21          6           0        7.676671    3.194757    0.142419
     22          6           0        5.172255    5.949215   -0.950642
     23          6           0        8.281995    5.878137    0.393463
     24          8           0        9.366978    5.663093    0.941291
     25          6           0        7.761301    7.273882    0.278140
     26          7           0        8.355595    0.137706    0.359945
     27          6           0        9.201649    1.184259    0.476975
     28          6           0       10.679522    0.683747    0.452386
     29          6           0       10.497025   -0.775288    0.843295
     30          6           0        9.066006   -0.985296    0.467470
     31          6           0       11.370765    1.049280   -0.881526
     32          6           0       10.809898   -1.000460    2.335962
     33          6           0       11.785778   -2.163509    2.702480
     34          7           0        6.149773   -1.610972   -0.127509
     35          6           0        7.127762   -2.508471    0.042191
     36          6           0        6.559686   -3.778370   -0.241483
     37          6           0        5.198786   -3.561468   -0.452906
     38          6           0        5.020997   -2.187501   -0.363273
     39          6           0        7.230519   -5.060299   -0.372558
     40          6           0        3.902356   -4.193510   -0.713774
     41          8           0        3.535912   -5.357322   -0.787839
     42          6           0        2.927829   -3.059115   -0.811192
     43          6           0        1.907740   -3.351658    0.253719
     44          8           0        1.977036   -3.016658    1.404620
     45          8           0        0.910368   -4.097563   -0.399243
     46          6           0       -0.023748   -4.817826    0.519722
     47          6           0       -3.727575   -1.556606    0.917880
     48          6           0       -5.119971   -1.417633    0.414108
     49          6           0       -5.963383   -2.413524    0.123679
     50          6           0       -5.882534   -3.890536    0.597384
     51          6           0       -7.115989   -2.021778   -0.682273
     52          6           0       -8.248354   -1.604478    0.136395
     53          6           0       -8.610420   -0.126173    0.061075
     54          6           0      -10.040773    0.063532   -0.511954
     55          6           0       -9.943555    0.248470   -2.038567
     56          6           0      -10.832607    1.290995    0.234538
     57          6           0      -11.835616    0.900422    1.337141
     58          6           0      -12.233916    2.076977    2.158369
     59          6           0      -13.670744    1.940093    2.656504
     60          6           0      -13.887671    2.373353    4.098341
     61          6           0      -14.736210    2.472171    1.699200
     62          6           0      -15.292197    1.360323    0.726154
     63          6           0      -14.889989    1.636593   -0.761863
     64          6           0      -15.215726    0.411090   -1.664528
     65          6           0      -14.036320    0.100296   -2.485075
     66          6           0      -16.505959    0.572864   -2.480908
     67          1           0        3.656618    3.676154   -1.782119
     68          1           0        9.703686    3.319389    0.606271
     69          1           0        9.134227   -3.140327    0.404235
     70          1           0        1.679623   -0.567899   -2.154799
     71          1           0        1.498101    2.152250   -1.410260
     72          1           0        1.527209    2.182619   -3.694745
     73          1           0        2.485492    0.714145   -3.897144
     74          1           0        3.211622    2.220615   -3.530825
     75          1           0        0.510795    0.961727    0.017340
     76          1           0        1.107613   -0.618233    0.683296
     77          1           0       -0.562302   -1.436608   -1.436866
     78          1           0       -1.165227    0.155822   -1.015969
     79          1           0        4.140024    5.797007   -1.265006
     80          1           0        5.588856    6.607776   -1.713348
     81          1           0        5.078921    6.485259   -0.006185
     82          1           0        6.886155    7.367160    0.922082
     83          1           0        7.424489    7.443172   -0.744193
     84          1           0        8.562991    8.001970    0.399736
     85          1           0       11.251075    1.287966    1.156572
     86          1           0       10.982706   -1.381948    0.078375
     87          1           0       12.034171    1.886426   -0.668246
     88          1           0       10.641125    1.445927   -1.586950
     89          1           0       12.036024    0.265027   -1.243827
     90          1           0        9.917800   -1.355202    2.852076
     91          1           0       11.355587   -0.178792    2.799196
     92          1           0       11.304091   -2.859590    3.387545
     93          1           0       12.689153   -1.743571    3.145145
     94          1           0       12.102545   -2.588549    1.750149
     95          1           0        6.538746   -5.745025   -0.862816
     96          1           0        7.762246   -5.389668    0.519844
     97          1           0        8.059761   -4.954313   -1.073208
     98          1           0        2.427939   -3.172891   -1.772719
     99          1           0       -0.962168   -4.282352    0.662592
    100          1           0        0.423105   -4.858067    1.512790
    101          1           0       -0.046237   -5.878672    0.270413
    102          1           0       -3.620162   -0.827616    1.720488
    103          1           0       -3.478005   -2.561359    1.259221
    104          1           0       -5.451081   -0.417119    0.134825
    105          1           0       -6.797485   -4.133667    1.136987
    106          1           0       -4.994035   -4.159235    1.168803
    107          1           0       -5.854449   -4.537380   -0.280302
    108          1           0       -7.456662   -2.789128   -1.377703
    109          1           0       -6.786536   -1.257730   -1.386708
    110          1           0       -7.996914   -1.847907    1.168159
    111          1           0       -9.099143   -2.260790   -0.043231
    112          1           0       -7.814125    0.417846   -0.446261
    113          1           0       -8.647704    0.412031    1.008119
    114          1           0      -10.585907   -0.865695   -0.342970
    115          1           0      -10.349238   -0.621645   -2.553869
    116          1           0       -8.947752    0.499027   -2.405668
    117          1           0      -10.579237    1.051199   -2.413026
    118          1           0      -11.377975    1.902641   -0.484081
    119          1           0      -10.028149    1.922126    0.610277
    120          1           0      -11.330878    0.170935    1.969540
    121          1           0      -12.701826    0.436730    0.863729
    122          1           0      -12.105326    3.044735    1.672815
    123          1           0      -11.611330    1.989428    3.048336
    124          1           0      -13.787071    0.863942    2.776278
    125          1           0      -13.009374    2.786209    4.593168
    126          1           0      -14.290632    1.541411    4.676704
    127          1           0      -14.550481    3.231585    4.210833
    128          1           0      -14.394399    3.320655    1.104497
    129          1           0      -15.559731    2.712466    2.371243
    130          1           0      -16.365885    1.388314    0.909818
    131          1           0      -14.949740    0.334836    0.868169
    132          1           0      -13.852799    1.965900   -0.720290
    133          1           0      -15.555561    2.419904   -1.125761
    134          1           0      -15.279674   -0.440597   -0.986862
    135          1           0      -13.248493   -0.094592   -1.757412
    136          1           0      -13.756333    0.909689   -3.158364
    137          1           0      -14.197349   -0.795646   -3.084335
    138          1           0      -17.213955   -0.179387   -2.133308
    139          1           0      -16.427608    0.183181   -3.495900
    140          1           0      -16.979382    1.537929   -2.660310
 ---------------------------------------------------------------------

 SCF Done:  E(RCAM-B3LYP) =  -3007.15327231     A.U. after   17 cycles

 Excitation energies and oscillator strengths:

 Excited State   1:      Singlet-A      1.7317 eV  715.95 nm  f=0.3768  <S**2>=0.000
     245 -> 248       -0.18382
     246 -> 247        0.68313
     245 <- 248       -0.10582
 This state for optimization and/or second-order correction.
 Total Energy, E(TD-HF/TD-DFT) =  -3007.08963212
 Copying the excited state density for this state as the 1-particle RhoCI density.

 Excited State   2:      Singlet-A      2.2851 eV  542.58 nm  f=0.0780  <S**2>=0.000
     245 -> 247        0.61575
     246 -> 248        0.33278

 Excited State   3:      Singlet-A      3.4474 eV  359.64 nm  f=0.6688  <S**2>=0.000
     245 -> 247       -0.31866
     246 -> 248        0.61157
     245 <- 247        0.10636

 Excited State   4:      Singlet-A      3.6094 eV  343.50 nm  f=0.0248  <S**2>=0.000
     241 -> 247       -0.15579
     242 -> 247        0.16341
     244 -> 247        0.64464

 Excited State   5:      Singlet-A      3.6633 eV  338.45 nm  f=0.0006  <S**2>=0.000
     241 -> 247        0.13701
     242 -> 247        0.52193
     242 -> 249       -0.29106
     242 -> 250        0.23790
     242 -> 251       -0.10170
     244 -> 247       -0.16012

 The electronic state is 1-A.
 Alpha  occ. eigenvalues --  -46.88885 -19.24623 -19.23750 -19.19928 -19.19768
 Alpha  occ. eigenvalues --  -19.19267 -19.18043 -14.41741 -14.41655 -14.40661
 Alpha  occ. eigenvalues --  -14.38197 -10.39199 -10.38540 -10.35658 -10.33986
 Alpha  occ. eigenvalues --  -10.31707 -10.31535 -10.30795 -10.30784 -10.30569
 Alpha  occ. eigenvalues --  -10.30433 -10.30144 -10.29940 -10.29935 -10.28616
 Alpha  occ. eigenvalues --  -10.28123 -10.27937 -10.27885 -10.27796 -10.27567
 Alpha  occ. eigenvalues --  -10.27209 -10.27162 -10.27058 -10.27011 -10.26850
 Alpha  occ. eigenvalues --  -10.26780 -10.26776 -10.26647 -10.26638 -10.26512
 Alpha  occ. eigenvalues --  -10.26462 -10.26388 -10.26037 -10.26022 -10.25986
 Alpha  occ. eigenvalues --  -10.25765 -10.25454 -10.25316 -10.25092 -10.25027
 Alpha  occ. eigenvalues --  -10.25001 -10.24812 -10.24772 -10.24765 -10.24745
 Alpha  occ. eigenvalues --  -10.24659 -10.24616 -10.24605 -10.24592 -10.24482
 Alpha  occ. eigenvalues --  -10.24366 -10.24190 -10.24089 -10.23959 -10.23869
 Alpha  occ. eigenvalues --  -10.23543  -3.17398  -1.92311  -1.91831  -1.91715
 Alpha  occ. eigenvalues --   -1.16719  -1.14630  -1.09793  -1.09162  -1.08136
 Alpha  occ. eigenvalues --   -1.07315  -1.05706  -1.04600  -1.04290  -1.02268
 Alpha  occ. eigenvalues --   -0.92867  -0.91950  -0.90456  -0.89671  -0.88940
 Alpha  occ. eigenvalues --   -0.88931  -0.88151  -0.87878  -0.87523  -0.87278
 Alpha  occ. eigenvalues --   -0.86529  -0.85951  -0.84579  -0.83495  -0.83442
 Alpha  occ. eigenvalues --   -0.82708  -0.82381  -0.81369  -0.80884  -0.80138
 Alpha  occ. eigenvalues --   -0.79802  -0.78353  -0.78291  -0.77615  -0.76306
 Alpha  occ. eigenvalues --   -0.76056  -0.75363  -0.75149  -0.74661  -0.74292
 Alpha  occ. eigenvalues --   -0.73621  -0.72257  -0.71172  -0.70445  -0.68293
 Alpha  occ. eigenvalues --   -0.68106  -0.67721  -0.67195  -0.66497  -0.65731
 Alpha  occ. eigenvalues --   -0.65463  -0.65061  -0.64919  -0.64315  -0.64011
 Alpha  occ. eigenvalues --   -0.63519  -0.62862  -0.62541  -0.61197  -0.60502
 Alpha  occ. eigenvalues --   -0.60005  -0.59818  -0.59115  -0.58852  -0.57807
 Alpha  occ. eigenvalues --   -0.57789  -0.57403  -0.56535  -0.56063  -0.55875
 Alpha  occ. eigenvalues --   -0.55453  -0.55318  -0.54910  -0.54509  -0.53833
 Alpha  occ. eigenvalues --   -0.53731  -0.53396  -0.53216  -0.53178  -0.52781
 Alpha  occ. eigenvalues --   -0.52590  -0.52538  -0.52108  -0.51924  -0.51894
 Alpha  occ. eigenvalues --   -0.51495  -0.51208  -0.51136  -0.50891  -0.50833
 Alpha  occ. eigenvalues --   -0.50768  -0.50663  -0.50459  -0.50066  -0.49643
 Alpha  occ. eigenvalues --   -0.49571  -0.49225  -0.49028  -0.48791  -0.48592
 Alpha  occ. eigenvalues --   -0.48364  -0.48315  -0.48105  -0.47655  -0.47513
 Alpha  occ. eigenvalues --   -0.47485  -0.47256  -0.47101  -0.47009  -0.46736
 Alpha  occ. eigenvalues --   -0.46552  -0.46317  -0.46143  -0.46061  -0.45987
 Alpha  occ. eigenvalues --   -0.45747  -0.45673  -0.45124  -0.44878  -0.44523
 Alpha  occ. eigenvalues --   -0.44466  -0.44382  -0.44158  -0.43956  -0.43670
 Alpha  occ. eigenvalues --   -0.43502  -0.43415  -0.43269  -0.43113  -0.42805
 Alpha  occ. eigenvalues --   -0.42694  -0.42287  -0.42119  -0.41973  -0.41939
 Alpha  occ. eigenvalues --   -0.41732  -0.41661  -0.40950  -0.40907  -0.40770
 Alpha  occ. eigenvalues --   -0.40641  -0.40349  -0.40132  -0.40086  -0.39923
 Alpha  occ. eigenvalues --   -0.39712  -0.39614  -0.39406  -0.39320  -0.38490
 Alpha  occ. eigenvalues --   -0.38152  -0.37969  -0.37895  -0.37346  -0.37266
 Alpha  occ. eigenvalues --   -0.37032  -0.36642  -0.36362  -0.36255  -0.36041
 Alpha  occ. eigenvalues --   -0.35937  -0.35616  -0.34769  -0.34538  -0.34147
 Alpha  occ. eigenvalues --   -0.33884  -0.33612  -0.32652  -0.31636  -0.31340
 Alpha  occ. eigenvalues --   -0.30591  -0.30142  -0.29799  -0.29267  -0.23743
 Alpha  occ. eigenvalues --   -0.20609
 Alpha virt. eigenvalues --   -0.07975  -0.01753   0.00494   0.02448   0.03102
 Alpha virt. eigenvalues --    0.05076   0.05476   0.05915   0.06470   0.06823
 Alpha virt. eigenvalues --    0.08019   0.08470   0.08594   0.09088   0.09256

 Mulliken charges:
               1
     1  Mg   0.842280
     2  C    0.007252
     3  C   -0.053640
     4  C   -0.065193
     5  C   -0.107105
     6  N   -0.250602
     7  C   -0.078368
     8  C    0.019473
     9  C   -0.079034
    10  C   -0.009120
    11  C    0.075223
    12  C    0.090393
    13  C    0.044371
    14  C    0.147838
    15  O   -0.234787
    16  O   -0.324441
    17  N   -0.397919
    18  C    0.157124
    19  C   -0.134454
    20  C   -0.054413
    21  C    0.087623
    22  C    0.097560
    23  C    0.006636
    24  O   -0.210742
    25  C    0.062960
    26  N   -0.245299
    27  C    0.089317
    28  C   -0.112993
    29  C    0.060558
    30  C   -0.026961
    31  C    0.083927
    32  C    0.055552
    33  C   -0.014190
    34  N   -0.267500
    35  C    0.132073
    36  C   -0.208426
    37  C    0.003386
    38  C    0.107149
    39  C    0.140104
    40  C    0.021565
    41  O   -0.169219
    42  C   -0.014899
    43  C    0.200330
    44  O   -0.173972
    45  O   -0.366337
    46  C    0.175132
    47  C    0.304751
    48  C   -0.122129
    49  C   -0.161466
    50  C    0.096229
    51  C    0.067841
    52  C    0.045939
    53  C    0.064347
    54  C   -0.138861
    55  C    0.049076
    56  C    0.024862
    57  C    0.019614
    58  C    0.102498
    59  C   -0.164391
    60  C    0.046412
    61  C    0.107914
    62  C   -0.028467
    63  C    0.023578
    64  C   -0.113428
    65  C    0.041023
    66  C    0.057120
    67  H   -0.030808
    68  H   -0.000604
    69  H   -0.030470
    70  H   -0.002768
    71  H    0.006653
    72  H    0.006499
    73  H    0.021077
    74  H    0.006563
    75  H    0.000445
    76  H    0.064248
    77  H    0.044829
    78  H    0.018773
    79  H    0.017572
    80  H    0.039402
    81  H    0.023801
    82  H    0.049187
    83  H    0.017569
    84  H    0.032120
    85  H    0.004349
    86  H   -0.003040
    87  H    0.007994
    88  H    0.027300
    89  H    0.015482
    90  H    0.020513
    91  H    0.021229
    92  H    0.026423
    93  H    0.010799
    94  H    0.004475
    95  H    0.034847
    96  H    0.018704
    97  H    0.000662
    98  H    0.039974
    99  H    0.039418
   100  H    0.032661
   101  H    0.041339
   102  H    0.000879
   103  H    0.003250
   104  H   -0.010602
   105  H    0.022871
   106  H    0.014944
   107  H    0.016580
   108  H   -0.012357
   109  H    0.005258
   110  H   -0.000330
   111  H   -0.006289
   112  H   -0.007869
   113  H   -0.015260
   114  H   -0.002268
   115  H    0.006689
   116  H    0.006752
   117  H   -0.003243
   118  H   -0.009674
   119  H   -0.009206
   120  H   -0.006863
   121  H   -0.003301
   122  H   -0.006051
   123  H   -0.017370
   124  H   -0.012919
   125  H   -0.006487
   126  H    0.011941
   127  H   -0.005665
   128  H    0.001683
   129  H   -0.011315
   130  H   -0.004483
   131  H    0.002083
   132  H    0.003336
   133  H   -0.006161
   134  H   -0.010520
   135  H    0.004945
   136  H    0.008348
   137  H   -0.000592
   138  H   -0.000704
   139  H   -0.016272
   140  H    0.018350
 Sum of Mulliken charges =  -0.00000

 Dipole moment (field-independent basis, Debye):
    X=             -2.8575    Y=              4.0734    Z=             -2.7338  Tot=              5.6773
 Quadrupole moment (field-independent basis, Debye-Ang):
   XX=           -367.7976   YY=           -403.8271   ZZ=           -409.4681
   XY=              8.9517   XZ=             -6.4729   YZ=            -11.2097

 Normal termination of Gaussian 16 at Fri Apr 29 19:21:25 2022.
