 Gaussian 16, Revision A.03,
 Gaussian 16:  ES64L-G16RevA.03 25-Dec-2016

 ---------------------------------
 #p PBE1PBE/Def2SVP td=(nstates=5)
 ---------------------------------

 -----------------------------------------------------
 step_451_chromophore_22 TDDFT with PBE1PBE functional
 -----------------------------------------------------
 Symbolic Z-matrix:
 Charge =  0 Multiplicity = 1

                         Standard orientation:
 ---------------------------------------------------------------------
 Center     Atomic      Atomic             Coordinates (Angstroms)
 Number     Number       Type             X           Y           Z
 ---------------------------------------------------------------------
      1         12           0        6.235550    0.479406    0.054049
      2          6           0        3.717112   -1.779894   -0.604788
      3          6           0        4.319293    2.959128   -1.292906
      4          6           0        8.937568    2.561745    0.425912
      5          6           0        8.470955   -2.272971    0.365643
      6          7           0        4.109235    0.592686   -0.670513
      7          6           0        3.236944   -0.461939   -0.774759
      8          6           0        1.910746    0.012381   -1.261183
      9          6           0        2.246797    1.462588   -1.800430
     10          6           0        3.678443    1.690551   -1.245993
     11          6           0        2.350591    1.601935   -3.278348
     12          6           0        0.763781   -0.076410   -0.198168
     13          6           0       -0.552759   -0.672363   -0.659232
     14          6           0       -1.472415   -1.214082    0.394944
     15          8           0       -1.097311   -1.633123    1.488201
     16          8           0       -2.784552   -1.191707   -0.051833
     17          7           0        6.518595    2.479272   -0.164638
     18          6           0        5.611859    3.347739   -0.686557
     19          6           0        6.051487    4.773393   -0.537811
     20          6           0        7.367545    4.723000    0.011336
     21          6           0        7.676671    3.194757    0.142419
     22          6           0        5.172255    5.949215   -0.950642
     23          6           0        8.281995    5.878137    0.393463
     24          8           0        9.366978    5.663093    0.941291
     25          6           0        7.761301    7.273882    0.278140
     26          7           0        8.355595    0.137706    0.359945
     27          6           0        9.201649    1.184259    0.476975
     28          6           0       10.679522    0.683747    0.452386
     29          6           0       10.497025   -0.775288    0.843295
     30          6           0        9.066006   -0.985296    0.467470
     31          6           0       11.370765    1.049280   -0.881526
     32          6           0       10.809898   -1.000460    2.335962
     33          6           0       11.785778   -2.163509    2.702480
     34          7           0        6.149773   -1.610972   -0.127509
     35          6           0        7.127762   -2.508471    0.042191
     36          6           0        6.559686   -3.778370   -0.241483
     37          6           0        5.198786   -3.561468   -0.452906
     38          6           0        5.020997   -2.187501   -0.363273
     39          6           0        7.230519   -5.060299   -0.372558
     40          6           0        3.902356   -4.193510   -0.713774
     41          8           0        3.535912   -5.357322   -0.787839
     42          6           0        2.927829   -3.059115   -0.811192
     43          6           0        1.907740   -3.351658    0.253719
     44          8           0        1.977036   -3.016658    1.404620
     45          8           0        0.910368   -4.097563   -0.399243
     46          6           0       -0.023748   -4.817826    0.519722
     47          6           0       -3.727575   -1.556606    0.917880
     48          6           0       -5.119971   -1.417633    0.414108
     49          6           0       -5.963383   -2.413524    0.123679
     50          6           0       -5.882534   -3.890536    0.597384
     51          6           0       -7.115989   -2.021778   -0.682273
     52          6           0       -8.248354   -1.604478    0.136395
     53          6           0       -8.610420   -0.126173    0.061075
     54          6           0      -10.040773    0.063532   -0.511954
     55          6           0       -9.943555    0.248470   -2.038567
     56          6           0      -10.832607    1.290995    0.234538
     57          6           0      -11.835616    0.900422    1.337141
     58          6           0      -12.233916    2.076977    2.158369
     59          6           0      -13.670744    1.940093    2.656504
     60          6           0      -13.887671    2.373353    4.098341
     61          6           0      -14.736210    2.472171    1.699200
     62          6           0      -15.292197    1.360323    0.726154
     63          6           0      -14.889989    1.636593   -0.761863
     64          6           0      -15.215726    0.411090   -1.664528
     65          6           0      -14.036320    0.100296   -2.485075
     66          6           0      -16.505959    0.572864   -2.480908
     67          1           0        3.656618    3.676154   -1.782119
     68          1           0        9.703686    3.319389    0.606271
     69          1           0        9.134227   -3.140327    0.404235
     70          1           0        1.679623   -0.567899   -2.154799
     71          1           0        1.498101    2.152250   -1.410260
     72          1           0        1.527209    2.182619   -3.694745
     73          1           0        2.485492    0.714145   -3.897144
     74          1           0        3.211622    2.220615   -3.530825
     75          1           0        0.510795    0.961727    0.017340
     76          1           0        1.107613   -0.618233    0.683296
     77          1           0       -0.562302   -1.436608   -1.436866
     78          1           0       -1.165227    0.155822   -1.015969
     79          1           0        4.140024    5.797007   -1.265006
     80          1           0        5.588856    6.607776   -1.713348
     81          1           0        5.078921    6.485259   -0.006185
     82          1           0        6.886155    7.367160    0.922082
     83          1           0        7.424489    7.443172   -0.744193
     84          1           0        8.562991    8.001970    0.399736
     85          1           0       11.251075    1.287966    1.156572
     86          1           0       10.982706   -1.381948    0.078375
     87          1           0       12.034171    1.886426   -0.668246
     88          1           0       10.641125    1.445927   -1.586950
     89          1           0       12.036024    0.265027   -1.243827
     90          1           0        9.917800   -1.355202    2.852076
     91          1           0       11.355587   -0.178792    2.799196
     92          1           0       11.304091   -2.859590    3.387545
     93          1           0       12.689153   -1.743571    3.145145
     94          1           0       12.102545   -2.588549    1.750149
     95          1           0        6.538746   -5.745025   -0.862816
     96          1           0        7.762246   -5.389668    0.519844
     97          1           0        8.059761   -4.954313   -1.073208
     98          1           0        2.427939   -3.172891   -1.772719
     99          1           0       -0.962168   -4.282352    0.662592
    100          1           0        0.423105   -4.858067    1.512790
    101          1           0       -0.046237   -5.878672    0.270413
    102          1           0       -3.620162   -0.827616    1.720488
    103          1           0       -3.478005   -2.561359    1.259221
    104          1           0       -5.451081   -0.417119    0.134825
    105          1           0       -6.797485   -4.133667    1.136987
    106          1           0       -4.994035   -4.159235    1.168803
    107          1           0       -5.854449   -4.537380   -0.280302
    108          1           0       -7.456662   -2.789128   -1.377703
    109          1           0       -6.786536   -1.257730   -1.386708
    110          1           0       -7.996914   -1.847907    1.168159
    111          1           0       -9.099143   -2.260790   -0.043231
    112          1           0       -7.814125    0.417846   -0.446261
    113          1           0       -8.647704    0.412031    1.008119
    114          1           0      -10.585907   -0.865695   -0.342970
    115          1           0      -10.349238   -0.621645   -2.553869
    116          1           0       -8.947752    0.499027   -2.405668
    117          1           0      -10.579237    1.051199   -2.413026
    118          1           0      -11.377975    1.902641   -0.484081
    119          1           0      -10.028149    1.922126    0.610277
    120          1           0      -11.330878    0.170935    1.969540
    121          1           0      -12.701826    0.436730    0.863729
    122          1           0      -12.105326    3.044735    1.672815
    123          1           0      -11.611330    1.989428    3.048336
    124          1           0      -13.787071    0.863942    2.776278
    125          1           0      -13.009374    2.786209    4.593168
    126          1           0      -14.290632    1.541411    4.676704
    127          1           0      -14.550481    3.231585    4.210833
    128          1           0      -14.394399    3.320655    1.104497
    129          1           0      -15.559731    2.712466    2.371243
    130          1           0      -16.365885    1.388314    0.909818
    131          1           0      -14.949740    0.334836    0.868169
    132          1           0      -13.852799    1.965900   -0.720290
    133          1           0      -15.555561    2.419904   -1.125761
    134          1           0      -15.279674   -0.440597   -0.986862
    135          1           0      -13.248493   -0.094592   -1.757412
    136          1           0      -13.756333    0.909689   -3.158364
    137          1           0      -14.197349   -0.795646   -3.084335
    138          1           0      -17.213955   -0.179387   -2.133308
    139          1           0      -16.427608    0.183181   -3.495900
    140          1           0      -16.979382    1.537929   -2.660310
 ---------------------------------------------------------------------

 SCF Done:  E(RPBE1PBE) =  -3005.34335661     A.U. after   15 cycles

 Excitation energies and oscillator strengths:

 Excited State   1:      Singlet-A      1.8773 eV  660.45 nm  f=0.3676  <S**2>=0.000
     245 -> 248       -0.17685
     246 -> 247        0.68955
     246 <- 247       -0.10150
 This state for optimization and/or second-order correction.
 Total Energy, E(TD-HF/TD-DFT) =  -3005.27436800
 Copying the excited state density for this state as the 1-particle RhoCI density.

 Excited State   2:      Singlet-A      2.2925 eV  540.81 nm  f=0.0820  <S**2>=0.000
     245 -> 247        0.63100
     246 -> 248        0.30114

 Excited State   3:      Singlet-A      3.1086 eV  398.84 nm  f=0.0001  <S**2>=0.000
     242 -> 247        0.64601
     242 -> 249        0.16267
     242 -> 250       -0.11274
     243 -> 247        0.15887
     244 -> 247        0.10277

 Excited State   4:      Singlet-A      3.2044 eV  386.91 nm  f=0.1405  <S**2>=0.000
     242 -> 247       -0.10080
     244 -> 247        0.45581
     245 -> 247        0.16616
     246 -> 248       -0.45334
     246 -> 249       -0.14793

 Excited State   5:      Singlet-A      3.2285 eV  384.04 nm  f=0.1837  <S**2>=0.000
     241 -> 247       -0.10617
     243 -> 247        0.10292
     244 -> 247        0.48907
     245 -> 247       -0.18069
     246 -> 248        0.38387
     246 -> 249        0.19727

 The electronic state is 1-A.
 Alpha  occ. eigenvalues --  -46.92273 -19.25308 -19.24483 -19.20199 -19.20010
 Alpha  occ. eigenvalues --  -19.19310 -19.18386 -14.41236 -14.41155 -14.40217
 Alpha  occ. eigenvalues --  -14.37893 -10.36229 -10.35603 -10.32622 -10.31239
 Alpha  occ. eigenvalues --  -10.29282 -10.29048 -10.28385 -10.28280 -10.28206
 Alpha  occ. eigenvalues --  -10.28146 -10.27807 -10.27401 -10.27386 -10.26165
 Alpha  occ. eigenvalues --  -10.26029 -10.25706 -10.25640 -10.25244 -10.25174
 Alpha  occ. eigenvalues --  -10.25047 -10.24965 -10.24719 -10.24674 -10.24589
 Alpha  occ. eigenvalues --  -10.24558 -10.24479 -10.24307 -10.24083 -10.24071
 Alpha  occ. eigenvalues --  -10.23903 -10.23844 -10.23782 -10.23769 -10.23727
 Alpha  occ. eigenvalues --  -10.23210 -10.22958 -10.22919 -10.22624 -10.22566
 Alpha  occ. eigenvalues --  -10.22557 -10.22406 -10.22350 -10.22323 -10.22311
 Alpha  occ. eigenvalues --  -10.22291 -10.22187 -10.22168 -10.22156 -10.22011
 Alpha  occ. eigenvalues --  -10.21755 -10.21629 -10.21583 -10.21444 -10.21297
 Alpha  occ. eigenvalues --  -10.21279  -3.14367  -1.87220  -1.86718  -1.86606
 Alpha  occ. eigenvalues --   -1.11544  -1.09395  -1.04353  -1.04005  -1.02987
 Alpha  occ. eigenvalues --   -1.02200  -1.00546  -0.99257  -0.98943  -0.96794
 Alpha  occ. eigenvalues --   -0.87337  -0.86119  -0.84551  -0.83922  -0.83271
 Alpha  occ. eigenvalues --   -0.83051  -0.82422  -0.82039  -0.81721  -0.81529
 Alpha  occ. eigenvalues --   -0.80920  -0.80231  -0.78764  -0.77810  -0.77709
 Alpha  occ. eigenvalues --   -0.76937  -0.76458  -0.75557  -0.75133  -0.74390
 Alpha  occ. eigenvalues --   -0.74158  -0.72645  -0.72491  -0.71934  -0.70486
 Alpha  occ. eigenvalues --   -0.70144  -0.69723  -0.69533  -0.68827  -0.68471
 Alpha  occ. eigenvalues --   -0.67938  -0.66739  -0.65628  -0.64773  -0.62765
 Alpha  occ. eigenvalues --   -0.62444  -0.61986  -0.61601  -0.60757  -0.60157
 Alpha  occ. eigenvalues --   -0.59928  -0.59509  -0.59280  -0.58588  -0.58414
 Alpha  occ. eigenvalues --   -0.57673  -0.57386  -0.56751  -0.55826  -0.54867
 Alpha  occ. eigenvalues --   -0.54502  -0.54375  -0.53697  -0.53479  -0.52370
 Alpha  occ. eigenvalues --   -0.52090  -0.51869  -0.51044  -0.50610  -0.50205
 Alpha  occ. eigenvalues --   -0.49952  -0.49836  -0.49489  -0.49066  -0.48382
 Alpha  occ. eigenvalues --   -0.48292  -0.47987  -0.47680  -0.47522  -0.47327
 Alpha  occ. eigenvalues --   -0.47153  -0.47061  -0.46676  -0.46487  -0.46432
 Alpha  occ. eigenvalues --   -0.46008  -0.45809  -0.45701  -0.45493  -0.45450
 Alpha  occ. eigenvalues --   -0.45322  -0.45159  -0.44978  -0.44597  -0.44244
 Alpha  occ. eigenvalues --   -0.44107  -0.43837  -0.43635  -0.43317  -0.43189
 Alpha  occ. eigenvalues --   -0.42951  -0.42879  -0.42701  -0.42325  -0.42234
 Alpha  occ. eigenvalues --   -0.42161  -0.41916  -0.41714  -0.41646  -0.41441
 Alpha  occ. eigenvalues --   -0.41157  -0.41056  -0.40953  -0.40680  -0.40631
 Alpha  occ. eigenvalues --   -0.40473  -0.40373  -0.39814  -0.39631  -0.39267
 Alpha  occ. eigenvalues --   -0.39196  -0.39136  -0.38984  -0.38767  -0.38475
 Alpha  occ. eigenvalues --   -0.38247  -0.38151  -0.38086  -0.37897  -0.37677
 Alpha  occ. eigenvalues --   -0.37440  -0.37111  -0.36845  -0.36798  -0.36676
 Alpha  occ. eigenvalues --   -0.36422  -0.36385  -0.35778  -0.35739  -0.35627
 Alpha  occ. eigenvalues --   -0.35463  -0.35230  -0.35039  -0.34843  -0.34726
 Alpha  occ. eigenvalues --   -0.34570  -0.34440  -0.34291  -0.34262  -0.33263
 Alpha  occ. eigenvalues --   -0.32940  -0.32913  -0.32702  -0.32278  -0.32092
 Alpha  occ. eigenvalues --   -0.31830  -0.31706  -0.31341  -0.31273  -0.31001
 Alpha  occ. eigenvalues --   -0.30788  -0.30477  -0.29759  -0.29502  -0.29032
 Alpha  occ. eigenvalues --   -0.28948  -0.28675  -0.28164  -0.26877  -0.26234
 Alpha  occ. eigenvalues --   -0.26113  -0.25109  -0.25065  -0.25043  -0.20677
 Alpha  occ. eigenvalues --   -0.18265
 Alpha virt. eigenvalues --   -0.10508  -0.05276  -0.03651  -0.01895   0.00217
 Alpha virt. eigenvalues --    0.00567   0.00951   0.01776   0.02206   0.03024
 Alpha virt. eigenvalues --    0.03792   0.04659   0.05194   0.05679   0.05935

 Mulliken charges:
               1
     1  Mg   0.986202
     2  C   -0.001762
     3  C   -0.041018
     4  C   -0.056627
     5  C   -0.085130
     6  N   -0.357609
     7  C    0.007331
     8  C   -0.047861
     9  C   -0.158575
    10  C    0.025513
    11  C    0.021908
    12  C    0.037312
    13  C   -0.031496
    14  C    0.214762
    15  O   -0.266861
    16  O   -0.356339
    17  N   -0.511501
    18  C    0.179483
    19  C   -0.163953
    20  C   -0.096366
    21  C    0.117825
    22  C    0.037875
    23  C    0.054493
    24  O   -0.248636
    25  C   -0.011295
    26  N   -0.349706
    27  C    0.115013
    28  C   -0.182896
    29  C   -0.030251
    30  C    0.017485
    31  C    0.028694
    32  C    0.001135
    33  C   -0.083903
    34  N   -0.413962
    35  C    0.153068
    36  C   -0.226234
    37  C   -0.043267
    38  C    0.156411
    39  C    0.083305
    40  C    0.119326
    41  O   -0.215005
    42  C   -0.119962
    43  C    0.289921
    44  O   -0.210143
    45  O   -0.395845
    46  C    0.119113
    47  C    0.259832
    48  C   -0.129990
    49  C   -0.210599
    50  C    0.035100
    51  C    0.001597
    52  C   -0.011593
    53  C    0.010927
    54  C   -0.225614
    55  C   -0.003687
    56  C   -0.030884
    57  C   -0.052262
    58  C    0.047885
    59  C   -0.249938
    60  C   -0.011542
    61  C    0.047716
    62  C   -0.086317
    63  C   -0.036392
    64  C   -0.208271
    65  C   -0.028058
    66  C   -0.000074
    67  H    0.001340
    68  H    0.030686
    69  H    0.000830
    70  H    0.036480
    71  H    0.041385
    72  H    0.034560
    73  H    0.047515
    74  H    0.035510
    75  H    0.034787
    76  H    0.096120
    77  H    0.074903
    78  H    0.051982
    79  H    0.043004
    80  H    0.064897
    81  H    0.051971
    82  H    0.075508
    83  H    0.045335
    84  H    0.058694
    85  H    0.040840
    86  H    0.034040
    87  H    0.035662
    88  H    0.055700
    89  H    0.042562
    90  H    0.053187
    91  H    0.053017
    92  H    0.053054
    93  H    0.038843
    94  H    0.032380
    95  H    0.063139
    96  H    0.047329
    97  H    0.030584
    98  H    0.076636
    99  H    0.064281
   100  H    0.053584
   101  H    0.062956
   102  H    0.029831
   103  H    0.031664
   104  H    0.020434
   105  H    0.049977
   106  H    0.041017
   107  H    0.044517
   108  H    0.021008
   109  H    0.037644
   110  H    0.034181
   111  H    0.024736
   112  H    0.022742
   113  H    0.018256
   114  H    0.034496
   115  H    0.033449
   116  H    0.033099
   117  H    0.023729
   118  H    0.023374
   119  H    0.023694
   120  H    0.027097
   121  H    0.035768
   122  H    0.025342
   123  H    0.017191
   124  H    0.027581
   125  H    0.020621
   126  H    0.039042
   127  H    0.021506
   128  H    0.032743
   129  H    0.023243
   130  H    0.028835
   131  H    0.030480
   132  H    0.040372
   133  H    0.028338
   134  H    0.027146
   135  H    0.039439
   136  H    0.036185
   137  H    0.028064
   138  H    0.027040
   139  H    0.011355
   140  H    0.043653
 Sum of Mulliken charges =  -0.00000

 Dipole moment (field-independent basis, Debye):
    X=             -2.9001    Y=              3.6171    Z=             -2.7347  Tot=              5.3826
 Quadrupole moment (field-independent basis, Debye-Ang):
   XX=           -361.9751   YY=           -401.5829   ZZ=           -406.8099
   XY=              5.3284   XZ=             -6.0022   YZ=            -11.3551

 Normal termination of Gaussian 16 at Fri Apr 29 19:41:09 2022.
