 Gaussian 16, Revision A.03,
 Gaussian 16:  ES64L-G16RevA.03 25-Dec-2016

 --------------------------------
 #p wB97XD/Def2SVP td=(nstates=5)
 --------------------------------

 ----------------------------------------------------
 step_451_chromophore_22 TDDFT with wB97XD functional
 ----------------------------------------------------
 Symbolic Z-matrix:
 Charge =  0 Multiplicity = 1

                         Standard orientation:
 ---------------------------------------------------------------------
 Center     Atomic      Atomic             Coordinates (Angstroms)
 Number     Number       Type             X           Y           Z
 ---------------------------------------------------------------------
      1         12           0        6.235550    0.479406    0.054049
      2          6           0        3.717112   -1.779894   -0.604788
      3          6           0        4.319293    2.959128   -1.292906
      4          6           0        8.937568    2.561745    0.425912
      5          6           0        8.470955   -2.272971    0.365643
      6          7           0        4.109235    0.592686   -0.670513
      7          6           0        3.236944   -0.461939   -0.774759
      8          6           0        1.910746    0.012381   -1.261183
      9          6           0        2.246797    1.462588   -1.800430
     10          6           0        3.678443    1.690551   -1.245993
     11          6           0        2.350591    1.601935   -3.278348
     12          6           0        0.763781   -0.076410   -0.198168
     13          6           0       -0.552759   -0.672363   -0.659232
     14          6           0       -1.472415   -1.214082    0.394944
     15          8           0       -1.097311   -1.633123    1.488201
     16          8           0       -2.784552   -1.191707   -0.051833
     17          7           0        6.518595    2.479272   -0.164638
     18          6           0        5.611859    3.347739   -0.686557
     19          6           0        6.051487    4.773393   -0.537811
     20          6           0        7.367545    4.723000    0.011336
     21          6           0        7.676671    3.194757    0.142419
     22          6           0        5.172255    5.949215   -0.950642
     23          6           0        8.281995    5.878137    0.393463
     24          8           0        9.366978    5.663093    0.941291
     25          6           0        7.761301    7.273882    0.278140
     26          7           0        8.355595    0.137706    0.359945
     27          6           0        9.201649    1.184259    0.476975
     28          6           0       10.679522    0.683747    0.452386
     29          6           0       10.497025   -0.775288    0.843295
     30          6           0        9.066006   -0.985296    0.467470
     31          6           0       11.370765    1.049280   -0.881526
     32          6           0       10.809898   -1.000460    2.335962
     33          6           0       11.785778   -2.163509    2.702480
     34          7           0        6.149773   -1.610972   -0.127509
     35          6           0        7.127762   -2.508471    0.042191
     36          6           0        6.559686   -3.778370   -0.241483
     37          6           0        5.198786   -3.561468   -0.452906
     38          6           0        5.020997   -2.187501   -0.363273
     39          6           0        7.230519   -5.060299   -0.372558
     40          6           0        3.902356   -4.193510   -0.713774
     41          8           0        3.535912   -5.357322   -0.787839
     42          6           0        2.927829   -3.059115   -0.811192
     43          6           0        1.907740   -3.351658    0.253719
     44          8           0        1.977036   -3.016658    1.404620
     45          8           0        0.910368   -4.097563   -0.399243
     46          6           0       -0.023748   -4.817826    0.519722
     47          6           0       -3.727575   -1.556606    0.917880
     48          6           0       -5.119971   -1.417633    0.414108
     49          6           0       -5.963383   -2.413524    0.123679
     50          6           0       -5.882534   -3.890536    0.597384
     51          6           0       -7.115989   -2.021778   -0.682273
     52          6           0       -8.248354   -1.604478    0.136395
     53          6           0       -8.610420   -0.126173    0.061075
     54          6           0      -10.040773    0.063532   -0.511954
     55          6           0       -9.943555    0.248470   -2.038567
     56          6           0      -10.832607    1.290995    0.234538
     57          6           0      -11.835616    0.900422    1.337141
     58          6           0      -12.233916    2.076977    2.158369
     59          6           0      -13.670744    1.940093    2.656504
     60          6           0      -13.887671    2.373353    4.098341
     61          6           0      -14.736210    2.472171    1.699200
     62          6           0      -15.292197    1.360323    0.726154
     63          6           0      -14.889989    1.636593   -0.761863
     64          6           0      -15.215726    0.411090   -1.664528
     65          6           0      -14.036320    0.100296   -2.485075
     66          6           0      -16.505959    0.572864   -2.480908
     67          1           0        3.656618    3.676154   -1.782119
     68          1           0        9.703686    3.319389    0.606271
     69          1           0        9.134227   -3.140327    0.404235
     70          1           0        1.679623   -0.567899   -2.154799
     71          1           0        1.498101    2.152250   -1.410260
     72          1           0        1.527209    2.182619   -3.694745
     73          1           0        2.485492    0.714145   -3.897144
     74          1           0        3.211622    2.220615   -3.530825
     75          1           0        0.510795    0.961727    0.017340
     76          1           0        1.107613   -0.618233    0.683296
     77          1           0       -0.562302   -1.436608   -1.436866
     78          1           0       -1.165227    0.155822   -1.015969
     79          1           0        4.140024    5.797007   -1.265006
     80          1           0        5.588856    6.607776   -1.713348
     81          1           0        5.078921    6.485259   -0.006185
     82          1           0        6.886155    7.367160    0.922082
     83          1           0        7.424489    7.443172   -0.744193
     84          1           0        8.562991    8.001970    0.399736
     85          1           0       11.251075    1.287966    1.156572
     86          1           0       10.982706   -1.381948    0.078375
     87          1           0       12.034171    1.886426   -0.668246
     88          1           0       10.641125    1.445927   -1.586950
     89          1           0       12.036024    0.265027   -1.243827
     90          1           0        9.917800   -1.355202    2.852076
     91          1           0       11.355587   -0.178792    2.799196
     92          1           0       11.304091   -2.859590    3.387545
     93          1           0       12.689153   -1.743571    3.145145
     94          1           0       12.102545   -2.588549    1.750149
     95          1           0        6.538746   -5.745025   -0.862816
     96          1           0        7.762246   -5.389668    0.519844
     97          1           0        8.059761   -4.954313   -1.073208
     98          1           0        2.427939   -3.172891   -1.772719
     99          1           0       -0.962168   -4.282352    0.662592
    100          1           0        0.423105   -4.858067    1.512790
    101          1           0       -0.046237   -5.878672    0.270413
    102          1           0       -3.620162   -0.827616    1.720488
    103          1           0       -3.478005   -2.561359    1.259221
    104          1           0       -5.451081   -0.417119    0.134825
    105          1           0       -6.797485   -4.133667    1.136987
    106          1           0       -4.994035   -4.159235    1.168803
    107          1           0       -5.854449   -4.537380   -0.280302
    108          1           0       -7.456662   -2.789128   -1.377703
    109          1           0       -6.786536   -1.257730   -1.386708
    110          1           0       -7.996914   -1.847907    1.168159
    111          1           0       -9.099143   -2.260790   -0.043231
    112          1           0       -7.814125    0.417846   -0.446261
    113          1           0       -8.647704    0.412031    1.008119
    114          1           0      -10.585907   -0.865695   -0.342970
    115          1           0      -10.349238   -0.621645   -2.553869
    116          1           0       -8.947752    0.499027   -2.405668
    117          1           0      -10.579237    1.051199   -2.413026
    118          1           0      -11.377975    1.902641   -0.484081
    119          1           0      -10.028149    1.922126    0.610277
    120          1           0      -11.330878    0.170935    1.969540
    121          1           0      -12.701826    0.436730    0.863729
    122          1           0      -12.105326    3.044735    1.672815
    123          1           0      -11.611330    1.989428    3.048336
    124          1           0      -13.787071    0.863942    2.776278
    125          1           0      -13.009374    2.786209    4.593168
    126          1           0      -14.290632    1.541411    4.676704
    127          1           0      -14.550481    3.231585    4.210833
    128          1           0      -14.394399    3.320655    1.104497
    129          1           0      -15.559731    2.712466    2.371243
    130          1           0      -16.365885    1.388314    0.909818
    131          1           0      -14.949740    0.334836    0.868169
    132          1           0      -13.852799    1.965900   -0.720290
    133          1           0      -15.555561    2.419904   -1.125761
    134          1           0      -15.279674   -0.440597   -0.986862
    135          1           0      -13.248493   -0.094592   -1.757412
    136          1           0      -13.756333    0.909689   -3.158364
    137          1           0      -14.197349   -0.795646   -3.084335
    138          1           0      -17.213955   -0.179387   -2.133308
    139          1           0      -16.427608    0.183181   -3.495900
    140          1           0      -16.979382    1.537929   -2.660310
 ---------------------------------------------------------------------

 SCF Done:  E(RwB97XD) =  -3007.85164540     A.U. after   17 cycles

 Excitation energies and oscillator strengths:

 Excited State   1:      Singlet-A      1.6804 eV  737.83 nm  f=0.3743  <S**2>=0.000
     245 -> 248       -0.18921
     246 -> 247        0.68102
     245 <- 248       -0.11499
 This state for optimization and/or second-order correction.
 Total Energy, E(TD-HF/TD-DFT) =  -3007.78989182
 Copying the excited state density for this state as the 1-particle RhoCI density.

 Excited State   2:      Singlet-A      2.2325 eV  555.36 nm  f=0.0764  <S**2>=0.000
     245 -> 247        0.61471
     246 -> 248        0.33376

 Excited State   3:      Singlet-A      3.4741 eV  356.89 nm  f=0.7125  <S**2>=0.000
     241 -> 247       -0.10465
     244 -> 247       -0.10404
     245 -> 247       -0.31992
     246 -> 248        0.60924
     245 <- 247        0.11323

 Excited State   4:      Singlet-A      3.6532 eV  339.39 nm  f=0.0253  <S**2>=0.000
     241 -> 247       -0.21564
     242 -> 247        0.15896
     244 -> 247        0.61978

 Excited State   5:      Singlet-A      3.7021 eV  334.91 nm  f=0.0008  <S**2>=0.000
     241 -> 247        0.10904
     242 -> 247        0.50478
     242 -> 249       -0.31099
     242 -> 250       -0.27907
     244 -> 247       -0.16667

 The electronic state is 1-A.
 Alpha  occ. eigenvalues --  -46.95213 -19.29848 -19.28959 -19.24820 -19.24655
 Alpha  occ. eigenvalues --  -19.24342 -19.23037 -14.46318 -14.46216 -14.45291
 Alpha  occ. eigenvalues --  -14.42719 -10.42975 -10.42370 -10.39668 -10.37948
 Alpha  occ. eigenvalues --  -10.35857 -10.35675 -10.34829 -10.34649 -10.34628
 Alpha  occ. eigenvalues --  -10.34428 -10.34177 -10.33888 -10.33873 -10.32803
 Alpha  occ. eigenvalues --  -10.32054 -10.31983 -10.31884 -10.31851 -10.31691
 Alpha  occ. eigenvalues --  -10.31285 -10.31086 -10.31004 -10.30945 -10.30875
 Alpha  occ. eigenvalues --  -10.30823 -10.30785 -10.30627 -10.30548 -10.30541
 Alpha  occ. eigenvalues --  -10.30395 -10.30355 -10.30036 -10.30012 -10.29957
 Alpha  occ. eigenvalues --  -10.29630 -10.29311 -10.29248 -10.28995 -10.28919
 Alpha  occ. eigenvalues --  -10.28890 -10.28753 -10.28703 -10.28672 -10.28587
 Alpha  occ. eigenvalues --  -10.28573 -10.28555 -10.28550 -10.28514 -10.28381
 Alpha  occ. eigenvalues --  -10.28179 -10.28016 -10.28006 -10.27753 -10.27689
 Alpha  occ. eigenvalues --  -10.27527  -3.21168  -1.94770  -1.94267  -1.94153
 Alpha  occ. eigenvalues --   -1.18887  -1.16738  -1.12051  -1.11339  -1.10296
 Alpha  occ. eigenvalues --   -1.09494  -1.07697  -1.06595  -1.06291  -1.04352
 Alpha  occ. eigenvalues --   -0.94824  -0.93758  -0.92209  -0.91516  -0.90795
 Alpha  occ. eigenvalues --   -0.90697  -0.90089  -0.89692  -0.89464  -0.89184
 Alpha  occ. eigenvalues --   -0.88431  -0.87854  -0.86417  -0.85408  -0.85314
 Alpha  occ. eigenvalues --   -0.84575  -0.84327  -0.83213  -0.82760  -0.82014
 Alpha  occ. eigenvalues --   -0.81764  -0.80342  -0.80183  -0.79513  -0.78143
 Alpha  occ. eigenvalues --   -0.77832  -0.77272  -0.77078  -0.76492  -0.76127
 Alpha  occ. eigenvalues --   -0.75533  -0.74240  -0.73145  -0.72361  -0.70282
 Alpha  occ. eigenvalues --   -0.70022  -0.69595  -0.69190  -0.68371  -0.67666
 Alpha  occ. eigenvalues --   -0.67379  -0.66923  -0.66913  -0.66112  -0.66009
 Alpha  occ. eigenvalues --   -0.65330  -0.64823  -0.64373  -0.63175  -0.62384
 Alpha  occ. eigenvalues --   -0.62000  -0.61794  -0.61086  -0.60848  -0.59789
 Alpha  occ. eigenvalues --   -0.59619  -0.59330  -0.58503  -0.57990  -0.57737
 Alpha  occ. eigenvalues --   -0.57403  -0.57240  -0.56842  -0.56437  -0.55731
 Alpha  occ. eigenvalues --   -0.55624  -0.55304  -0.55164  -0.55056  -0.54728
 Alpha  occ. eigenvalues --   -0.54494  -0.54433  -0.53996  -0.53807  -0.53776
 Alpha  occ. eigenvalues --   -0.53372  -0.53191  -0.53059  -0.52807  -0.52732
 Alpha  occ. eigenvalues --   -0.52654  -0.52553  -0.52375  -0.51944  -0.51598
 Alpha  occ. eigenvalues --   -0.51501  -0.51115  -0.50939  -0.50773  -0.50474
 Alpha  occ. eigenvalues --   -0.50295  -0.50185  -0.50031  -0.49559  -0.49436
 Alpha  occ. eigenvalues --   -0.49372  -0.49173  -0.49025  -0.48879  -0.48664
 Alpha  occ. eigenvalues --   -0.48397  -0.48229  -0.48052  -0.47911  -0.47888
 Alpha  occ. eigenvalues --   -0.47677  -0.47570  -0.46997  -0.46784  -0.46407
 Alpha  occ. eigenvalues --   -0.46369  -0.46296  -0.46055  -0.45889  -0.45586
 Alpha  occ. eigenvalues --   -0.45441  -0.45293  -0.45183  -0.45012  -0.44710
 Alpha  occ. eigenvalues --   -0.44595  -0.44287  -0.44046  -0.43923  -0.43848
 Alpha  occ. eigenvalues --   -0.43594  -0.43515  -0.42817  -0.42793  -0.42684
 Alpha  occ. eigenvalues --   -0.42548  -0.42258  -0.42029  -0.41941  -0.41771
 Alpha  occ. eigenvalues --   -0.41610  -0.41480  -0.41269  -0.41214  -0.40320
 Alpha  occ. eigenvalues --   -0.39988  -0.39852  -0.39738  -0.39221  -0.39166
 Alpha  occ. eigenvalues --   -0.38864  -0.38691  -0.38368  -0.38223  -0.38007
 Alpha  occ. eigenvalues --   -0.37773  -0.37475  -0.36624  -0.36368  -0.36045
 Alpha  occ. eigenvalues --   -0.35820  -0.35585  -0.34887  -0.33622  -0.33556
 Alpha  occ. eigenvalues --   -0.32815  -0.32074  -0.31799  -0.31389  -0.25666
 Alpha  occ. eigenvalues --   -0.22422
 Alpha virt. eigenvalues --   -0.06313   0.00166   0.02540   0.04600   0.06261
 Alpha virt. eigenvalues --    0.07307   0.07776   0.08601   0.08829   0.09330
 Alpha virt. eigenvalues --    0.10431   0.11522   0.11781   0.12500   0.12608

 Mulliken charges:
               1
     1  Mg   0.978137
     2  C   -0.003798
     3  C   -0.066263
     4  C   -0.074023
     5  C   -0.106912
     6  N   -0.321163
     7  C   -0.032442
     8  C   -0.023734
     9  C   -0.132318
    10  C    0.019230
    11  C    0.028737
    12  C    0.052302
    13  C   -0.016148
    14  C    0.201895
    15  O   -0.262176
    16  O   -0.355334
    17  N   -0.481537
    18  C    0.175929
    19  C   -0.152968
    20  C   -0.092341
    21  C    0.111527
    22  C    0.050655
    23  C    0.051854
    24  O   -0.241521
    25  C    0.001602
    26  N   -0.316073
    27  C    0.104475
    28  C   -0.157500
    29  C    0.002485
    30  C   -0.000548
    31  C    0.036812
    32  C    0.009980
    33  C   -0.067358
    34  N   -0.365714
    35  C    0.143357
    36  C   -0.220286
    37  C   -0.042168
    38  C    0.138435
    39  C    0.090814
    40  C    0.098356
    41  O   -0.206025
    42  C   -0.079295
    43  C    0.262538
    44  O   -0.202416
    45  O   -0.395581
    46  C    0.136975
    47  C    0.276565
    48  C   -0.141562
    49  C   -0.191624
    50  C    0.048147
    51  C    0.021654
    52  C    0.000693
    53  C    0.026987
    54  C   -0.194302
    55  C    0.005572
    56  C   -0.010177
    57  C   -0.023374
    58  C    0.057469
    59  C   -0.214461
    60  C   -0.000963
    61  C    0.060678
    62  C   -0.067471
    63  C   -0.014318
    64  C   -0.175797
    65  C   -0.006577
    66  C    0.007547
    67  H   -0.006103
    68  H    0.026795
    69  H   -0.003492
    70  H    0.021998
    71  H    0.032833
    72  H    0.029927
    73  H    0.043714
    74  H    0.027016
    75  H    0.025821
    76  H    0.085990
    77  H    0.070310
    78  H    0.045333
    79  H    0.041268
    80  H    0.061547
    81  H    0.045033
    82  H    0.070292
    83  H    0.038219
    84  H    0.058780
    85  H    0.030497
    86  H    0.021990
    87  H    0.030108
    88  H    0.048918
    89  H    0.037971
    90  H    0.044969
    91  H    0.044774
    92  H    0.048139
    93  H    0.032729
    94  H    0.024814
    95  H    0.059472
    96  H    0.042144
    97  H    0.023384
    98  H    0.070050
    99  H    0.057869
   100  H    0.049024
   101  H    0.060124
   102  H    0.024498
   103  H    0.022685
   104  H    0.016111
   105  H    0.044433
   106  H    0.036100
   107  H    0.038656
   108  H    0.014844
   109  H    0.027118
   110  H    0.023754
   111  H    0.017373
   112  H    0.011380
   113  H    0.008682
   114  H    0.020631
   115  H    0.028215
   116  H    0.027277
   117  H    0.016968
   118  H    0.010526
   119  H    0.013557
   120  H    0.018603
   121  H    0.013439
   122  H    0.017010
   123  H    0.008221
   124  H    0.012225
   125  H    0.014874
   126  H    0.034311
   127  H    0.014963
   128  H    0.024779
   129  H    0.014451
   130  H    0.021756
   131  H    0.018557
   132  H    0.020454
   133  H    0.018261
   134  H    0.015349
   135  H    0.024428
   136  H    0.029642
   137  H    0.022472
   138  H    0.021502
   139  H    0.005224
   140  H    0.039271
 Sum of Mulliken charges =  -0.00000

 Dipole moment (field-independent basis, Debye):
    X=             -2.8663    Y=              4.2318    Z=             -2.7771  Tot=              5.8169
 Quadrupole moment (field-independent basis, Debye-Ang):
   XX=           -362.5374   YY=           -398.9020   ZZ=           -406.4895
   XY=              9.8119   XZ=             -6.1445   YZ=            -11.4169

 Normal termination of Gaussian 16 at Fri Apr 29 20:09:32 2022.
