 Gaussian 16, Revision A.03,
 Gaussian 16:  ES64L-G16RevA.03 25-Dec-2016

 --------------------
 #p ZINDO=(nstates=5)
 --------------------

 -----------------------------
 step_451_chromophore_22 ZINDO
 -----------------------------
 Symbolic Z-matrix:
 Charge =  0 Multiplicity = 1

                         Standard orientation:
 ---------------------------------------------------------------------
 Center     Atomic      Atomic             Coordinates (Angstroms)
 Number     Number       Type             X           Y           Z
 ---------------------------------------------------------------------
      1         12           0        6.235550    0.479406    0.054049
      2          6           0        3.717112   -1.779894   -0.604788
      3          6           0        4.319293    2.959128   -1.292906
      4          6           0        8.937568    2.561745    0.425912
      5          6           0        8.470955   -2.272971    0.365643
      6          7           0        4.109235    0.592686   -0.670513
      7          6           0        3.236944   -0.461939   -0.774759
      8          6           0        1.910746    0.012381   -1.261183
      9          6           0        2.246797    1.462588   -1.800430
     10          6           0        3.678443    1.690551   -1.245993
     11          6           0        2.350591    1.601935   -3.278348
     12          6           0        0.763781   -0.076410   -0.198168
     13          6           0       -0.552759   -0.672363   -0.659232
     14          6           0       -1.472415   -1.214082    0.394944
     15          8           0       -1.097311   -1.633123    1.488201
     16          8           0       -2.784552   -1.191707   -0.051833
     17          7           0        6.518595    2.479272   -0.164638
     18          6           0        5.611859    3.347739   -0.686557
     19          6           0        6.051487    4.773393   -0.537811
     20          6           0        7.367545    4.723000    0.011336
     21          6           0        7.676671    3.194757    0.142419
     22          6           0        5.172255    5.949215   -0.950642
     23          6           0        8.281995    5.878137    0.393463
     24          8           0        9.366978    5.663093    0.941291
     25          6           0        7.761301    7.273882    0.278140
     26          7           0        8.355595    0.137706    0.359945
     27          6           0        9.201649    1.184259    0.476975
     28          6           0       10.679522    0.683747    0.452386
     29          6           0       10.497025   -0.775288    0.843295
     30          6           0        9.066006   -0.985296    0.467470
     31          6           0       11.370765    1.049280   -0.881526
     32          6           0       10.809898   -1.000460    2.335962
     33          6           0       11.785778   -2.163509    2.702480
     34          7           0        6.149773   -1.610972   -0.127509
     35          6           0        7.127762   -2.508471    0.042191
     36          6           0        6.559686   -3.778370   -0.241483
     37          6           0        5.198786   -3.561468   -0.452906
     38          6           0        5.020997   -2.187501   -0.363273
     39          6           0        7.230519   -5.060299   -0.372558
     40          6           0        3.902356   -4.193510   -0.713774
     41          8           0        3.535912   -5.357322   -0.787839
     42          6           0        2.927829   -3.059115   -0.811192
     43          6           0        1.907740   -3.351658    0.253719
     44          8           0        1.977036   -3.016658    1.404620
     45          8           0        0.910368   -4.097563   -0.399243
     46          6           0       -0.023748   -4.817826    0.519722
     47          6           0       -3.727575   -1.556606    0.917880
     48          6           0       -5.119971   -1.417633    0.414108
     49          6           0       -5.963383   -2.413524    0.123679
     50          6           0       -5.882534   -3.890536    0.597384
     51          6           0       -7.115989   -2.021778   -0.682273
     52          6           0       -8.248354   -1.604478    0.136395
     53          6           0       -8.610420   -0.126173    0.061075
     54          6           0      -10.040773    0.063532   -0.511954
     55          6           0       -9.943555    0.248470   -2.038567
     56          6           0      -10.832607    1.290995    0.234538
     57          6           0      -11.835616    0.900422    1.337141
     58          6           0      -12.233916    2.076977    2.158369
     59          6           0      -13.670744    1.940093    2.656504
     60          6           0      -13.887671    2.373353    4.098341
     61          6           0      -14.736210    2.472171    1.699200
     62          6           0      -15.292197    1.360323    0.726154
     63          6           0      -14.889989    1.636593   -0.761863
     64          6           0      -15.215726    0.411090   -1.664528
     65          6           0      -14.036320    0.100296   -2.485075
     66          6           0      -16.505959    0.572864   -2.480908
     67          1           0        3.656618    3.676154   -1.782119
     68          1           0        9.703686    3.319389    0.606271
     69          1           0        9.134227   -3.140327    0.404235
     70          1           0        1.679623   -0.567899   -2.154799
     71          1           0        1.498101    2.152250   -1.410260
     72          1           0        1.527209    2.182619   -3.694745
     73          1           0        2.485492    0.714145   -3.897144
     74          1           0        3.211622    2.220615   -3.530825
     75          1           0        0.510795    0.961727    0.017340
     76          1           0        1.107613   -0.618233    0.683296
     77          1           0       -0.562302   -1.436608   -1.436866
     78          1           0       -1.165227    0.155822   -1.015969
     79          1           0        4.140024    5.797007   -1.265006
     80          1           0        5.588856    6.607776   -1.713348
     81          1           0        5.078921    6.485259   -0.006185
     82          1           0        6.886155    7.367160    0.922082
     83          1           0        7.424489    7.443172   -0.744193
     84          1           0        8.562991    8.001970    0.399736
     85          1           0       11.251075    1.287966    1.156572
     86          1           0       10.982706   -1.381948    0.078375
     87          1           0       12.034171    1.886426   -0.668246
     88          1           0       10.641125    1.445927   -1.586950
     89          1           0       12.036024    0.265027   -1.243827
     90          1           0        9.917800   -1.355202    2.852076
     91          1           0       11.355587   -0.178792    2.799196
     92          1           0       11.304091   -2.859590    3.387545
     93          1           0       12.689153   -1.743571    3.145145
     94          1           0       12.102545   -2.588549    1.750149
     95          1           0        6.538746   -5.745025   -0.862816
     96          1           0        7.762246   -5.389668    0.519844
     97          1           0        8.059761   -4.954313   -1.073208
     98          1           0        2.427939   -3.172891   -1.772719
     99          1           0       -0.962168   -4.282352    0.662592
    100          1           0        0.423105   -4.858067    1.512790
    101          1           0       -0.046237   -5.878672    0.270413
    102          1           0       -3.620162   -0.827616    1.720488
    103          1           0       -3.478005   -2.561359    1.259221
    104          1           0       -5.451081   -0.417119    0.134825
    105          1           0       -6.797485   -4.133667    1.136987
    106          1           0       -4.994035   -4.159235    1.168803
    107          1           0       -5.854449   -4.537380   -0.280302
    108          1           0       -7.456662   -2.789128   -1.377703
    109          1           0       -6.786536   -1.257730   -1.386708
    110          1           0       -7.996914   -1.847907    1.168159
    111          1           0       -9.099143   -2.260790   -0.043231
    112          1           0       -7.814125    0.417846   -0.446261
    113          1           0       -8.647704    0.412031    1.008119
    114          1           0      -10.585907   -0.865695   -0.342970
    115          1           0      -10.349238   -0.621645   -2.553869
    116          1           0       -8.947752    0.499027   -2.405668
    117          1           0      -10.579237    1.051199   -2.413026
    118          1           0      -11.377975    1.902641   -0.484081
    119          1           0      -10.028149    1.922126    0.610277
    120          1           0      -11.330878    0.170935    1.969540
    121          1           0      -12.701826    0.436730    0.863729
    122          1           0      -12.105326    3.044735    1.672815
    123          1           0      -11.611330    1.989428    3.048336
    124          1           0      -13.787071    0.863942    2.776278
    125          1           0      -13.009374    2.786209    4.593168
    126          1           0      -14.290632    1.541411    4.676704
    127          1           0      -14.550481    3.231585    4.210833
    128          1           0      -14.394399    3.320655    1.104497
    129          1           0      -15.559731    2.712466    2.371243
    130          1           0      -16.365885    1.388314    0.909818
    131          1           0      -14.949740    0.334836    0.868169
    132          1           0      -13.852799    1.965900   -0.720290
    133          1           0      -15.555561    2.419904   -1.125761
    134          1           0      -15.279674   -0.440597   -0.986862
    135          1           0      -13.248493   -0.094592   -1.757412
    136          1           0      -13.756333    0.909689   -3.158364
    137          1           0      -14.197349   -0.795646   -3.084335
    138          1           0      -17.213955   -0.179387   -2.133308
    139          1           0      -16.427608    0.183181   -3.495900
    140          1           0      -16.979382    1.537929   -2.660310
 ---------------------------------------------------------------------

 SCF Done:  E(RZINDO/S) =  -474.791174652     A.U. after   20 cycles

 Excitation energies and oscillator strengths:

 Excited State   1:      Singlet-A      1.2607 eV  983.49 nm  f=0.5697  <S**2>=0.000
     175 ->178        -0.18531
     176 ->177         0.66390
 This state for optimization and/or second-order correction.
 Total Energy, E(CIS/TDA) =  -474.744846244
 Copying the excited state density for this state as the 1-particle RhoCI density.

 Excited State   2:      Singlet-A      1.9136 eV  647.90 nm  f=0.0109  <S**2>=0.000
     175 ->177         0.50478
     176 ->178         0.46757

 Excited State   3:      Singlet-A      2.8846 eV  429.81 nm  f=0.2441  <S**2>=0.000
     175 ->177        -0.21908
     176 ->178         0.31463
     176 ->179         0.54165

 Excited State   4:      Singlet-A      2.9944 eV  414.05 nm  f=0.2722  <S**2>=0.000
     167 ->177        -0.26002
     167 ->178         0.17610
     167 ->179         0.35262
     167 ->180        -0.22490
     167 ->184        -0.13076
     167 ->186         0.14592
     168 ->179        -0.11581
     175 ->177         0.20839
     176 ->178        -0.22200
     176 ->179         0.11650

 Excited State   5:      Singlet-A      3.0010 eV  413.15 nm  f=0.6365  <S**2>=0.000
     167 ->177         0.13773
     167 ->179        -0.18787
     167 ->180         0.12396
     175 ->177         0.31961
     176 ->178        -0.31879
     176 ->179         0.34934
     176 ->180         0.15868

 The electronic state is 1-A.
 Alpha  occ. eigenvalues --   -1.88752  -1.82924  -1.80179  -1.75354  -1.71988
 Alpha  occ. eigenvalues --   -1.71008  -1.67497  -1.63729  -1.58444  -1.57562
 Alpha  occ. eigenvalues --   -1.57179  -1.52725  -1.50032  -1.49228  -1.46296
 Alpha  occ. eigenvalues --   -1.44368  -1.42584  -1.40492  -1.39203  -1.38681
 Alpha  occ. eigenvalues --   -1.37552  -1.35308  -1.32992  -1.31991  -1.29364
 Alpha  occ. eigenvalues --   -1.28655  -1.24921  -1.22660  -1.21505  -1.17877
 Alpha  occ. eigenvalues --   -1.17778  -1.16853  -1.15587  -1.14835  -1.13672
 Alpha  occ. eigenvalues --   -1.12023  -1.11412  -1.10656  -1.05171  -1.03000
 Alpha  occ. eigenvalues --   -1.02213  -1.00655  -0.98629  -0.97139  -0.96555
 Alpha  occ. eigenvalues --   -0.95379  -0.94165  -0.93132  -0.92359  -0.91834
 Alpha  occ. eigenvalues --   -0.90346  -0.90008  -0.89864  -0.88959  -0.86868
 Alpha  occ. eigenvalues --   -0.86794  -0.83585  -0.82897  -0.82324  -0.81293
 Alpha  occ. eigenvalues --   -0.80518  -0.79379  -0.78474  -0.77103  -0.76393
 Alpha  occ. eigenvalues --   -0.75452  -0.74605  -0.74440  -0.73821  -0.73364
 Alpha  occ. eigenvalues --   -0.72940  -0.72592  -0.71939  -0.71288  -0.70726
 Alpha  occ. eigenvalues --   -0.70428  -0.69929  -0.69663  -0.68893  -0.68563
 Alpha  occ. eigenvalues --   -0.68437  -0.67365  -0.66592  -0.66526  -0.65981
 Alpha  occ. eigenvalues --   -0.65578  -0.64746  -0.64556  -0.63926  -0.62914
 Alpha  occ. eigenvalues --   -0.62723  -0.62291  -0.62126  -0.61965  -0.61586
 Alpha  occ. eigenvalues --   -0.61349  -0.60971  -0.60253  -0.60145  -0.59748
 Alpha  occ. eigenvalues --   -0.59653  -0.59486  -0.58916  -0.58738  -0.58535
 Alpha  occ. eigenvalues --   -0.58099  -0.57910  -0.57145  -0.56696  -0.56222
 Alpha  occ. eigenvalues --   -0.55795  -0.55652  -0.55093  -0.54370  -0.54200
 Alpha  occ. eigenvalues --   -0.54049  -0.53608  -0.52891  -0.52629  -0.52443
 Alpha  occ. eigenvalues --   -0.52192  -0.51897  -0.51677  -0.51211  -0.51035
 Alpha  occ. eigenvalues --   -0.50992  -0.50585  -0.50192  -0.49978  -0.49912
 Alpha  occ. eigenvalues --   -0.49356  -0.49243  -0.48915  -0.48803  -0.48444
 Alpha  occ. eigenvalues --   -0.48220  -0.48047  -0.47701  -0.47347  -0.46864
 Alpha  occ. eigenvalues --   -0.46643  -0.46579  -0.46320  -0.46171  -0.45756
 Alpha  occ. eigenvalues --   -0.45694  -0.45247  -0.45194  -0.45085  -0.45060
 Alpha  occ. eigenvalues --   -0.44805  -0.44746  -0.44208  -0.44177  -0.43256
 Alpha  occ. eigenvalues --   -0.42595  -0.42520  -0.42326  -0.42247  -0.42222
 Alpha  occ. eigenvalues --   -0.41703  -0.41102  -0.40827  -0.38307  -0.38229
 Alpha  occ. eigenvalues --   -0.37372  -0.36299  -0.35698  -0.34273  -0.33955
 Alpha  occ. eigenvalues --   -0.33878  -0.32186  -0.31612  -0.31172  -0.26346
 Alpha  occ. eigenvalues --   -0.21176
 Alpha virt. eigenvalues --   -0.07823  -0.02016  -0.00541   0.01448   0.02104
 Alpha virt. eigenvalues --    0.02512   0.03357   0.03903   0.05016   0.05171
 Alpha virt. eigenvalues --    0.06049   0.06894   0.07361   0.07842   0.08177

 Mulliken charges:
               1
     1  Mg   0.429371
     2  C   -0.040161
     3  C   -0.119147
     4  C   -0.071676
     5  C   -0.077985
     6  N   -0.280264
     7  C    0.101340
     8  C    0.003636
     9  C    0.006231
    10  C    0.159154
    11  C   -0.046303
    12  C   -0.017068
    13  C    0.007003
    14  C    0.462909
    15  O   -0.511327
    16  O   -0.271517
    17  N   -0.306820
    18  C    0.127224
    19  C    0.018593
    20  C   -0.046648
    21  C    0.122750
    22  C   -0.040203
    23  C    0.334573
    24  O   -0.520279
    25  C   -0.026753
    26  N   -0.259558
    27  C    0.146147
    28  C   -0.002651
    29  C    0.013735
    30  C    0.108232
    31  C   -0.052455
    32  C   -0.035027
    33  C   -0.067375
    34  N   -0.298845
    35  C    0.080443
    36  C    0.024244
    37  C   -0.075857
    38  C    0.120244
    39  C   -0.041632
    40  C    0.339197
    41  O   -0.533696
    42  C    0.053433
    43  C    0.495270
    44  O   -0.501265
    45  O   -0.283132
    46  C    0.062001
    47  C    0.112242
    48  C   -0.105424
    49  C    0.010158
    50  C   -0.042364
    51  C   -0.007263
    52  C   -0.017893
    53  C   -0.031892
    54  C   -0.019698
    55  C   -0.058830
    56  C   -0.047164
    57  C   -0.027954
    58  C   -0.027392
    59  C   -0.012040
    60  C   -0.060003
    61  C   -0.035560
    62  C   -0.051143
    63  C   -0.042792
    64  C   -0.001232
    65  C   -0.048043
    66  C   -0.062215
    67  H    0.028147
    68  H    0.052082
    69  H    0.028218
    70  H    0.022119
    71  H    0.032846
    72  H    0.011532
    73  H    0.026629
    74  H    0.015617
    75  H    0.023501
    76  H    0.055700
    77  H    0.052309
    78  H    0.027741
    79  H    0.028963
    80  H    0.033096
    81  H    0.027185
    82  H    0.049083
    83  H    0.026361
    84  H    0.041772
    85  H    0.025225
    86  H    0.032950
    87  H    0.014406
    88  H    0.030209
    89  H    0.024928
    90  H    0.032257
    91  H    0.032373
    92  H    0.028608
    93  H    0.016181
    94  H    0.018280
    95  H    0.035357
    96  H    0.036025
    97  H    0.014350
    98  H    0.053722
    99  H    0.050434
   100  H    0.040931
   101  H    0.043694
   102  H    0.036234
   103  H    0.047609
   104  H    0.027377
   105  H    0.030779
   106  H    0.028590
   107  H    0.023044
   108  H    0.010187
   109  H    0.015457
   110  H    0.012247
   111  H    0.016294
   112  H    0.022754
   113  H    0.012493
   114  H    0.023445
   115  H    0.015322
   116  H    0.021717
   117  H    0.010660
   118  H    0.016097
   119  H    0.017909
   120  H    0.018189
   121  H    0.023862
   122  H    0.024598
   123  H    0.014429
   124  H    0.012413
   125  H    0.013615
   126  H    0.019445
   127  H    0.011223
   128  H    0.029290
   129  H    0.017320
   130  H    0.016767
   131  H    0.025931
   132  H    0.030319
   133  H    0.016275
   134  H    0.019697
   135  H    0.012644
   136  H    0.018680
   137  H    0.010509
   138  H    0.013537
   139  H    0.007224
   140  H    0.031408
 Sum of Mulliken charges =  -0.00000

 Dipole moment (field-independent basis, Debye):
    X=             -2.9593    Y=              7.4994    Z=             -6.1333  Tot=             10.1300
 N-N= 4.224507974701D+03 E-N= 0.000000000000D+00  KE=-9.124457463035D+03
 Leave Link  601 at Fri Apr 29 20:20:42 2022, MaxMem=  6710886400 cpu:               3.9 elap:               0.2
 (Enter /sw/apps/gaussian-16.0/g16/l9999.exe)
 1\1\GINC-BP1-COMPUTE132\SP\RZINDO CIS\STO-3G\C55H74Mg1N4O6\OF15641\29-
 Apr-2022\0\\#p ZINDO=(nstates=5)\\step_451_chromophore_22 ZINDO\\0,1\M
 g,0,9.086,46.733,24.819\C,0,7.081,47.039,27.606\C,0,11.651,48.173,26.5
 46\C,0,10.872,46.708,21.889\C,0,6.132,46.318,22.877\N,0,9.381,47.335,2
 6.966\C,0,8.427,47.294,27.952\C,0,9.008,47.739,29.25\C,0,10.363,48.422
 ,28.798\C,0,10.471,47.977,27.315\C,0,10.371,49.91,28.783\C,0,9.135,46.
 605,30.323\C,0,8.657,46.932,31.725\C,0,8.309,45.781,32.622\O,0,7.939,4

 Normal termination of Gaussian 16 at Fri Apr 29 20:20:42 2022.
