 Gaussian 16, Revision A.03,
 Gaussian 16:  ES64L-G16RevA.03 25-Dec-2016

 ------------------------------
 #p blyp/Def2SVP td=(nstates=5)
 ------------------------------

 --------------------------------------------------
 step_551_chromophore_11 TDDFT with blyp functional
 --------------------------------------------------
 Symbolic Z-matrix:
 Charge =  0 Multiplicity = 1

                         Standard orientation:
 ---------------------------------------------------------------------
 Center     Atomic      Atomic             Coordinates (Angstroms)
 Number     Number       Type             X           Y           Z
 ---------------------------------------------------------------------
      1         12           0       -4.380855    1.601368    0.588152
      2          6           0       -5.279855   -1.865037    0.322545
      3          6           0       -2.715237    0.738902    3.456132
      4          6           0       -2.878553    4.523021    0.397445
      5          6           0       -6.183565    2.199601   -2.213767
      6          7           0       -3.988389   -0.435941    1.736956
      7          6           0       -4.507365   -1.632922    1.474156
      8          6           0       -4.073429   -2.697445    2.547775
      9          6           0       -3.437899   -1.774537    3.686695
     10          6           0       -3.372699   -0.387626    2.973230
     11          6           0       -4.117937   -1.666089    5.021225
     12          6           0       -3.222280   -3.884282    2.107257
     13          6           0       -1.912821   -3.535688    1.376369
     14          6           0       -1.383654   -4.394754    0.171966
     15          8           0       -1.977332   -5.202141   -0.475873
     16          8           0       -0.067428   -3.917853   -0.038593
     17          7           0       -2.983720    2.506118    1.808582
     18          6           0       -2.427973    2.054017    2.932737
     19          6           0       -1.471688    2.979469    3.417633
     20          6           0       -1.564139    4.149595    2.668004
     21          6           0       -2.518984    3.797119    1.627600
     22          6           0       -0.657586    2.702811    4.628175
     23          6           0       -0.749908    5.404729    2.876953
     24          8           0        0.106461    5.558023    3.814562
     25          6           0       -0.826203    6.641924    2.000664
     26          7           0       -4.341855    3.006714   -0.787661
     27          6           0       -3.769042    4.219354   -0.659268
     28          6           0       -3.974151    5.142437   -1.798327
     29          6           0       -5.073057    4.405180   -2.633942
     30          6           0       -5.197714    3.110874   -1.859863
     31          6           0       -4.259530    6.623170   -1.357661
     32          6           0       -4.838672    4.242519   -4.158641
     33          6           0       -5.683450    5.081145   -5.134338
     34          7           0       -5.634546    0.455897   -0.708433
     35          6           0       -6.268032    0.827250   -1.788695
     36          6           0       -7.143842   -0.193478   -2.260611
     37          6           0       -6.742839   -1.329900   -1.424275
     38          6           0       -5.817548   -0.840766   -0.538923
     39          6           0       -8.006105   -0.151840   -3.431154
     40          6           0       -7.054270   -2.759127   -1.079247
     41          8           0       -7.903078   -3.555188   -1.511399
     42          6           0       -5.971201   -3.189970   -0.104533
     43          6           0       -5.102063   -4.022878   -0.954839
     44          8           0       -4.224715   -3.638241   -1.700361
     45          8           0       -5.617739   -5.276796   -0.957638
     46          6           0       -4.897391   -6.162497   -1.855485
     47          6           0        0.692966   -4.656197   -1.029602
     48          6           0        2.212250   -4.052428   -1.035348
     49          6           0        3.069115   -3.924484    0.027446
     50          6           0        2.798564   -4.336492    1.402129
     51          6           0        4.371272   -3.234470   -0.074128
     52          6           0        4.316557   -1.814259   -0.390007
     53          6           0        5.360402   -1.305943   -1.361742
     54          6           0        6.020667   -0.020606   -0.857030
     55          6           0        5.140803    1.198029   -1.077805
     56          6           0        7.425142    0.258957   -1.444107
     57          6           0        8.558090   -0.529488   -0.888692
     58          6           0        9.380291    0.412818    0.009999
     59          6           0       10.484839   -0.366434    0.648563
     60          6           0       10.250942   -0.858492    2.091470
     61          6           0       11.837887    0.349137    0.577925
     62          6           0       12.523998    0.356704   -0.903557
     63          6           0       14.044296   -0.031519   -0.939795
     64          6           0       14.980646    1.217195   -1.162220
     65          6           0       14.722281    1.690449   -2.587086
     66          6           0       16.395164    0.625071   -1.033137
     67          1           0       -2.281561    0.634098    4.453198
     68          1           0       -2.346937    5.457210    0.205261
     69          1           0       -6.777297    2.358017   -3.116272
     70          1           0       -4.993029   -3.111399    2.960715
     71          1           0       -2.372603   -1.961871    3.817619
     72          1           0       -3.352960   -1.742096    5.794658
     73          1           0       -4.746131   -2.541130    5.187330
     74          1           0       -4.725377   -0.766265    5.122799
     75          1           0       -3.881802   -4.566661    1.571201
     76          1           0       -2.910102   -4.495732    2.953601
     77          1           0       -1.201842   -3.586017    2.200029
     78          1           0       -2.014896   -2.534554    0.955773
     79          1           0       -0.661075    1.660634    4.946984
     80          1           0       -1.070200    3.294169    5.446170
     81          1           0        0.389956    2.932969    4.432469
     82          1           0       -0.329327    6.396305    1.061508
     83          1           0       -0.452796    7.530318    2.510066
     84          1           0       -1.891256    6.788043    1.822642
     85          1           0       -3.051454    5.297512   -2.358266
     86          1           0       -5.978346    4.909230   -2.294630
     87          1           0       -4.240504    6.650887   -0.268244
     88          1           0       -5.276937    6.846832   -1.679095
     89          1           0       -3.547133    7.308390   -1.817410
     90          1           0       -4.801464    3.208243   -4.499178
     91          1           0       -3.800162    4.572299   -4.176889
     92          1           0       -6.575667    5.316559   -4.553609
     93          1           0       -5.984756    4.492534   -6.000640
     94          1           0       -5.116617    5.927143   -5.523719
     95          1           0       -7.778338    0.585339   -4.201383
     96          1           0       -9.020924    0.069014   -3.101872
     97          1           0       -7.925346   -1.099373   -3.962774
     98          1           0       -6.360770   -3.677032    0.789503
     99          1           0       -4.967111   -7.197456   -1.518831
    100          1           0       -3.848913   -5.948158   -2.060932
    101          1           0       -5.398837   -6.282248   -2.816546
    102          1           0        0.347758   -4.279892   -1.992689
    103          1           0        0.581869   -5.735174   -0.924377
    104          1           0        2.418321   -3.593307   -2.002039
    105          1           0        2.498819   -3.583141    2.130516
    106          1           0        3.679865   -4.776387    1.867503
    107          1           0        2.085483   -5.159932    1.445695
    108          1           0        4.961135   -3.730767   -0.843756
    109          1           0        4.940190   -3.332216    0.850044
    110          1           0        4.279634   -1.161568    0.481306
    111          1           0        3.353491   -1.542743   -0.823043
    112          1           0        4.932001   -1.207839   -2.359946
    113          1           0        6.116550   -2.077509   -1.504555
    114          1           0        6.189652   -0.006179    0.219205
    115          1           0        4.084902    1.002547   -1.264734
    116          1           0        5.483394    1.982856   -1.751873
    117          1           0        5.097974    1.737037   -0.131371
    118          1           0        7.701013    1.313993   -1.444323
    119          1           0        7.429083    0.032609   -2.510779
    120          1           0        9.102538   -0.973570   -1.721914
    121          1           0        8.221414   -1.374735   -0.289326
    122          1           0        8.648786    0.732637    0.751713
    123          1           0        9.626171    1.352188   -0.484338
    124          1           0       10.573955   -1.328476    0.145309
    125          1           0       10.217285    0.001621    2.759414
    126          1           0       11.084553   -1.512453    2.344719
    127          1           0        9.316871   -1.372978    2.316525
    128          1           0       12.535347   -0.082959    1.295582
    129          1           0       11.567417    1.317059    0.999492
    130          1           0       12.290182    1.257718   -1.471005
    131          1           0       12.032055   -0.278956   -1.639197
    132          1           0       14.208085   -0.771629   -1.723381
    133          1           0       14.424940   -0.479785   -0.021520
    134          1           0       14.730536    1.916656   -0.364548
    135          1           0       15.684802    1.962731   -3.018890
    136          1           0       14.178248    2.634812   -2.610259
    137          1           0       14.189965    1.002848   -3.243591
    138          1           0       16.683034    1.054414   -0.073538
    139          1           0       17.081480    1.096792   -1.736503
    140          1           0       16.481228   -0.441432   -0.823903
 ---------------------------------------------------------------------

 SCF Done:  E(RB-LYP) =  -3007.33482054     A.U. after   21 cycles

 Excitation energies and oscillator strengths:

 Excited State   1:      Singlet-A      1.5520 eV  798.88 nm  f=0.0002  <S**2>=0.000
     244 -> 247        0.70133
 This state for optimization and/or second-order correction.
 Total Energy, E(TD-HF/TD-DFT) =  -3007.27778669
 Copying the excited state density for this state as the 1-particle RhoCI density.

 Excited State   2:      Singlet-A      1.8042 eV  687.22 nm  f=0.2712  <S**2>=0.000
     243 -> 247       -0.21462
     245 -> 247       -0.15043
     245 -> 248       -0.14709
     246 -> 247        0.64289
     246 <- 247       -0.14587

 Excited State   3:      Singlet-A      1.8090 eV  685.38 nm  f=0.0705  <S**2>=0.000
     243 -> 247        0.54410
     245 -> 247        0.35143
     246 -> 247        0.26127

 Excited State   4:      Singlet-A      2.0054 eV  618.24 nm  f=0.0855  <S**2>=0.000
     243 -> 247       -0.39045
     245 -> 247        0.54204
     246 -> 248        0.15990
     246 -> 249        0.11852

 Excited State   5:      Singlet-A      2.1511 eV  576.39 nm  f=0.0003  <S**2>=0.000
     241 -> 247        0.68717
     242 -> 247       -0.16633

 The electronic state is 1-A.
 Alpha  occ. eigenvalues --  -46.27391 -18.81439 -18.81199 -18.78107 -18.75802
 Alpha  occ. eigenvalues --  -18.75659 -18.74860 -14.03414 -14.03297 -14.01357
 Alpha  occ. eigenvalues --  -14.00261 -10.04340 -10.02997  -9.99913  -9.99909
 Alpha  occ. eigenvalues --   -9.97930  -9.96796  -9.96743  -9.96741  -9.96688
 Alpha  occ. eigenvalues --   -9.96673  -9.95558  -9.95257  -9.94763  -9.94680
 Alpha  occ. eigenvalues --   -9.94275  -9.94259  -9.94180  -9.94132  -9.93989
 Alpha  occ. eigenvalues --   -9.93846  -9.93383  -9.93248  -9.93225  -9.93144
 Alpha  occ. eigenvalues --   -9.93136  -9.93059  -9.93054  -9.93004  -9.92919
 Alpha  occ. eigenvalues --   -9.92825  -9.92714  -9.92524  -9.92357  -9.92295
 Alpha  occ. eigenvalues --   -9.92086  -9.91893  -9.91743  -9.91580  -9.91569
 Alpha  occ. eigenvalues --   -9.91498  -9.91379  -9.91259  -9.91238  -9.91115
 Alpha  occ. eigenvalues --   -9.91013  -9.90892  -9.90877  -9.90596  -9.90569
 Alpha  occ. eigenvalues --   -9.90423  -9.90384  -9.90368  -9.90366  -9.90183
 Alpha  occ. eigenvalues --   -9.89974  -2.92158  -1.72568  -1.72056  -1.71871
 Alpha  occ. eigenvalues --   -0.97833  -0.97368  -0.90927  -0.90297  -0.89377
 Alpha  occ. eigenvalues --   -0.88393  -0.88229  -0.87259  -0.86577  -0.85687
 Alpha  occ. eigenvalues --   -0.75616  -0.74560  -0.73321  -0.73153  -0.72811
 Alpha  occ. eigenvalues --   -0.72023  -0.71899  -0.71251  -0.71182  -0.70538
 Alpha  occ. eigenvalues --   -0.69982  -0.69130  -0.68291  -0.68040  -0.67283
 Alpha  occ. eigenvalues --   -0.66228  -0.65851  -0.65032  -0.64594  -0.64324
 Alpha  occ. eigenvalues --   -0.64112  -0.62480  -0.62214  -0.61961  -0.60466
 Alpha  occ. eigenvalues --   -0.60362  -0.60173  -0.60092  -0.59428  -0.58457
 Alpha  occ. eigenvalues --   -0.58219  -0.57641  -0.56783  -0.55646  -0.55241
 Alpha  occ. eigenvalues --   -0.53950  -0.53666  -0.53215  -0.52926  -0.52119
 Alpha  occ. eigenvalues --   -0.51682  -0.51435  -0.50949  -0.50239  -0.49703
 Alpha  occ. eigenvalues --   -0.48907  -0.48719  -0.48489  -0.48196  -0.46718
 Alpha  occ. eigenvalues --   -0.46151  -0.46129  -0.45550  -0.45024  -0.44774
 Alpha  occ. eigenvalues --   -0.44345  -0.43839  -0.43579  -0.43222  -0.42929
 Alpha  occ. eigenvalues --   -0.42514  -0.41938  -0.41505  -0.41439  -0.41034
 Alpha  occ. eigenvalues --   -0.40795  -0.40519  -0.40424  -0.40211  -0.40126
 Alpha  occ. eigenvalues --   -0.39768  -0.39619  -0.39389  -0.39249  -0.39112
 Alpha  occ. eigenvalues --   -0.38976  -0.38553  -0.38493  -0.38275  -0.38093
 Alpha  occ. eigenvalues --   -0.38073  -0.37833  -0.37398  -0.37348  -0.37278
 Alpha  occ. eigenvalues --   -0.37015  -0.36872  -0.36453  -0.36397  -0.36328
 Alpha  occ. eigenvalues --   -0.36300  -0.35879  -0.35815  -0.35508  -0.35395
 Alpha  occ. eigenvalues --   -0.35143  -0.35046  -0.34817  -0.34630  -0.34283
 Alpha  occ. eigenvalues --   -0.34266  -0.34094  -0.34019  -0.33943  -0.33768
 Alpha  occ. eigenvalues --   -0.33708  -0.33575  -0.33355  -0.33329  -0.33020
 Alpha  occ. eigenvalues --   -0.32893  -0.32712  -0.32515  -0.32411  -0.32125
 Alpha  occ. eigenvalues --   -0.31912  -0.31810  -0.31622  -0.31553  -0.31496
 Alpha  occ. eigenvalues --   -0.31441  -0.30966  -0.30809  -0.30594  -0.30430
 Alpha  occ. eigenvalues --   -0.30377  -0.30297  -0.30110  -0.29983  -0.29780
 Alpha  occ. eigenvalues --   -0.29720  -0.29312  -0.29108  -0.29039  -0.28967
 Alpha  occ. eigenvalues --   -0.28903  -0.28487  -0.28460  -0.28323  -0.27997
 Alpha  occ. eigenvalues --   -0.27702  -0.27160  -0.26863  -0.26687  -0.26384
 Alpha  occ. eigenvalues --   -0.26224  -0.25995  -0.25786  -0.25604  -0.24944
 Alpha  occ. eigenvalues --   -0.24501  -0.24022  -0.23974  -0.23765  -0.23554
 Alpha  occ. eigenvalues --   -0.23253  -0.22864  -0.22153  -0.21405  -0.21062
 Alpha  occ. eigenvalues --   -0.19915  -0.19891  -0.18691  -0.17655  -0.17177
 Alpha  occ. eigenvalues --   -0.16188
 Alpha virt. eigenvalues --   -0.12010  -0.07026  -0.06067  -0.05094  -0.03024
 Alpha virt. eigenvalues --   -0.02907  -0.02253  -0.01609  -0.01566  -0.00392
 Alpha virt. eigenvalues --    0.01252   0.01657   0.02406   0.02908   0.03030

 Mulliken charges:
               1
     1  Mg   0.719453
     2  C   -0.018460
     3  C   -0.047972
     4  C   -0.074042
     5  C   -0.060424
     6  N   -0.163734
     7  C   -0.117936
     8  C    0.081547
     9  C   -0.017428
    10  C   -0.023577
    11  C    0.159196
    12  C    0.126108
    13  C    0.054411
    14  C    0.112989
    15  O   -0.135494
    16  O   -0.301019
    17  N   -0.270514
    18  C    0.102575
    19  C   -0.150935
    20  C    0.085878
    21  C    0.108912
    22  C    0.198101
    23  C   -0.098786
    24  O   -0.222430
    25  C    0.148489
    26  N   -0.278091
    27  C    0.031617
    28  C   -0.051873
    29  C    0.113399
    30  C    0.008664
    31  C    0.132928
    32  C    0.108122
    33  C    0.079783
    34  N   -0.176458
    35  C    0.038820
    36  C   -0.149783
    37  C    0.027686
    38  C    0.092470
    39  C    0.165498
    40  C   -0.040337
    41  O   -0.144160
    42  C    0.073224
    43  C    0.131100
    44  O   -0.177461
    45  O   -0.245271
    46  C    0.211841
    47  C    0.285534
    48  C   -0.120187
    49  C   -0.108095
    50  C    0.158255
    51  C    0.184173
    52  C    0.079308
    53  C    0.123037
    54  C   -0.048051
    55  C    0.106806
    56  C    0.114764
    57  C    0.043232
    58  C    0.114434
    59  C   -0.032639
    60  C    0.086742
    61  C    0.108063
    62  C    0.101474
    63  C    0.043440
    64  C   -0.113656
    65  C    0.128688
    66  C    0.134068
    67  H   -0.068363
    68  H   -0.079740
    69  H   -0.066545
    70  H   -0.041637
    71  H   -0.018652
    72  H   -0.008994
    73  H   -0.016452
    74  H    0.003751
    75  H   -0.014112
    76  H   -0.030420
    77  H    0.008172
    78  H    0.033537
    79  H   -0.030946
    80  H    0.008640
    81  H    0.006087
    82  H    0.021334
    83  H    0.001648
    84  H   -0.004486
    85  H   -0.009444
    86  H   -0.030747
    87  H   -0.001133
    88  H   -0.019094
    89  H   -0.004274
    90  H   -0.006599
    91  H   -0.038420
    92  H   -0.003907
    93  H   -0.008982
    94  H    0.002430
    95  H   -0.017441
    96  H    0.003897
    97  H    0.012369
    98  H   -0.002461
    99  H   -0.011006
   100  H    0.039357
   101  H   -0.005697
   102  H   -0.010443
   103  H    0.013179
   104  H   -0.028506
   105  H    0.005064
   106  H   -0.024941
   107  H   -0.024142
   108  H   -0.022064
   109  H   -0.043782
   110  H   -0.042870
   111  H   -0.035441
   112  H   -0.032660
   113  H   -0.045231
   114  H   -0.042069
   115  H   -0.024070
   116  H   -0.017323
   117  H   -0.036037
   118  H   -0.047723
   119  H   -0.059381
   120  H   -0.033417
   121  H   -0.031689
   122  H   -0.048096
   123  H   -0.028554
   124  H   -0.039447
   125  H   -0.029015
   126  H   -0.012277
   127  H   -0.025348
   128  H   -0.043676
   129  H   -0.035267
   130  H   -0.041693
   131  H   -0.045706
   132  H   -0.029670
   133  H   -0.032401
   134  H   -0.020471
   135  H   -0.031951
   136  H   -0.023668
   137  H   -0.008104
   138  H   -0.035494
   139  H   -0.019079
   140  H   -0.004223
 Sum of Mulliken charges =  -0.00000

 Dipole moment (field-independent basis, Debye):
    X=              0.6895    Y=              2.0634    Z=             -0.1136  Tot=              2.1785
 Quadrupole moment (field-independent basis, Debye-Ang):
   XX=           -420.8748   YY=           -404.9499   ZZ=           -395.8043
   XY=            -41.9820   XZ=            -10.4890   YZ=            -37.6834

 Normal termination of Gaussian 16 at Sat Apr 30 02:46:05 2022.
