 Gaussian 16, Revision A.03,
 Gaussian 16:  ES64L-G16RevA.03 25-Dec-2016

 -----------------------------------
 #p cam-b3lyp/Def2SVP td=(nstates=5)
 -----------------------------------

 -------------------------------------------------------
 step_551_chromophore_11 TDDFT with cam-b3lyp functional
 -------------------------------------------------------
 Symbolic Z-matrix:
 Charge =  0 Multiplicity = 1

                         Standard orientation:
 ---------------------------------------------------------------------
 Center     Atomic      Atomic             Coordinates (Angstroms)
 Number     Number       Type             X           Y           Z
 ---------------------------------------------------------------------
      1         12           0       -4.380855    1.601368    0.588152
      2          6           0       -5.279855   -1.865037    0.322545
      3          6           0       -2.715237    0.738902    3.456132
      4          6           0       -2.878553    4.523021    0.397445
      5          6           0       -6.183565    2.199601   -2.213767
      6          7           0       -3.988389   -0.435941    1.736956
      7          6           0       -4.507365   -1.632922    1.474156
      8          6           0       -4.073429   -2.697445    2.547775
      9          6           0       -3.437899   -1.774537    3.686695
     10          6           0       -3.372699   -0.387626    2.973230
     11          6           0       -4.117937   -1.666089    5.021225
     12          6           0       -3.222280   -3.884282    2.107257
     13          6           0       -1.912821   -3.535688    1.376369
     14          6           0       -1.383654   -4.394754    0.171966
     15          8           0       -1.977332   -5.202141   -0.475873
     16          8           0       -0.067428   -3.917853   -0.038593
     17          7           0       -2.983720    2.506118    1.808582
     18          6           0       -2.427973    2.054017    2.932737
     19          6           0       -1.471688    2.979469    3.417633
     20          6           0       -1.564139    4.149595    2.668004
     21          6           0       -2.518984    3.797119    1.627600
     22          6           0       -0.657586    2.702811    4.628175
     23          6           0       -0.749908    5.404729    2.876953
     24          8           0        0.106461    5.558023    3.814562
     25          6           0       -0.826203    6.641924    2.000664
     26          7           0       -4.341855    3.006714   -0.787661
     27          6           0       -3.769042    4.219354   -0.659268
     28          6           0       -3.974151    5.142437   -1.798327
     29          6           0       -5.073057    4.405180   -2.633942
     30          6           0       -5.197714    3.110874   -1.859863
     31          6           0       -4.259530    6.623170   -1.357661
     32          6           0       -4.838672    4.242519   -4.158641
     33          6           0       -5.683450    5.081145   -5.134338
     34          7           0       -5.634546    0.455897   -0.708433
     35          6           0       -6.268032    0.827250   -1.788695
     36          6           0       -7.143842   -0.193478   -2.260611
     37          6           0       -6.742839   -1.329900   -1.424275
     38          6           0       -5.817548   -0.840766   -0.538923
     39          6           0       -8.006105   -0.151840   -3.431154
     40          6           0       -7.054270   -2.759127   -1.079247
     41          8           0       -7.903078   -3.555188   -1.511399
     42          6           0       -5.971201   -3.189970   -0.104533
     43          6           0       -5.102063   -4.022878   -0.954839
     44          8           0       -4.224715   -3.638241   -1.700361
     45          8           0       -5.617739   -5.276796   -0.957638
     46          6           0       -4.897391   -6.162497   -1.855485
     47          6           0        0.692966   -4.656197   -1.029602
     48          6           0        2.212250   -4.052428   -1.035348
     49          6           0        3.069115   -3.924484    0.027446
     50          6           0        2.798564   -4.336492    1.402129
     51          6           0        4.371272   -3.234470   -0.074128
     52          6           0        4.316557   -1.814259   -0.390007
     53          6           0        5.360402   -1.305943   -1.361742
     54          6           0        6.020667   -0.020606   -0.857030
     55          6           0        5.140803    1.198029   -1.077805
     56          6           0        7.425142    0.258957   -1.444107
     57          6           0        8.558090   -0.529488   -0.888692
     58          6           0        9.380291    0.412818    0.009999
     59          6           0       10.484839   -0.366434    0.648563
     60          6           0       10.250942   -0.858492    2.091470
     61          6           0       11.837887    0.349137    0.577925
     62          6           0       12.523998    0.356704   -0.903557
     63          6           0       14.044296   -0.031519   -0.939795
     64          6           0       14.980646    1.217195   -1.162220
     65          6           0       14.722281    1.690449   -2.587086
     66          6           0       16.395164    0.625071   -1.033137
     67          1           0       -2.281561    0.634098    4.453198
     68          1           0       -2.346937    5.457210    0.205261
     69          1           0       -6.777297    2.358017   -3.116272
     70          1           0       -4.993029   -3.111399    2.960715
     71          1           0       -2.372603   -1.961871    3.817619
     72          1           0       -3.352960   -1.742096    5.794658
     73          1           0       -4.746131   -2.541130    5.187330
     74          1           0       -4.725377   -0.766265    5.122799
     75          1           0       -3.881802   -4.566661    1.571201
     76          1           0       -2.910102   -4.495732    2.953601
     77          1           0       -1.201842   -3.586017    2.200029
     78          1           0       -2.014896   -2.534554    0.955773
     79          1           0       -0.661075    1.660634    4.946984
     80          1           0       -1.070200    3.294169    5.446170
     81          1           0        0.389956    2.932969    4.432469
     82          1           0       -0.329327    6.396305    1.061508
     83          1           0       -0.452796    7.530318    2.510066
     84          1           0       -1.891256    6.788043    1.822642
     85          1           0       -3.051454    5.297512   -2.358266
     86          1           0       -5.978346    4.909230   -2.294630
     87          1           0       -4.240504    6.650887   -0.268244
     88          1           0       -5.276937    6.846832   -1.679095
     89          1           0       -3.547133    7.308390   -1.817410
     90          1           0       -4.801464    3.208243   -4.499178
     91          1           0       -3.800162    4.572299   -4.176889
     92          1           0       -6.575667    5.316559   -4.553609
     93          1           0       -5.984756    4.492534   -6.000640
     94          1           0       -5.116617    5.927143   -5.523719
     95          1           0       -7.778338    0.585339   -4.201383
     96          1           0       -9.020924    0.069014   -3.101872
     97          1           0       -7.925346   -1.099373   -3.962774
     98          1           0       -6.360770   -3.677032    0.789503
     99          1           0       -4.967111   -7.197456   -1.518831
    100          1           0       -3.848913   -5.948158   -2.060932
    101          1           0       -5.398837   -6.282248   -2.816546
    102          1           0        0.347758   -4.279892   -1.992689
    103          1           0        0.581869   -5.735174   -0.924377
    104          1           0        2.418321   -3.593307   -2.002039
    105          1           0        2.498819   -3.583141    2.130516
    106          1           0        3.679865   -4.776387    1.867503
    107          1           0        2.085483   -5.159932    1.445695
    108          1           0        4.961135   -3.730767   -0.843756
    109          1           0        4.940190   -3.332216    0.850044
    110          1           0        4.279634   -1.161568    0.481306
    111          1           0        3.353491   -1.542743   -0.823043
    112          1           0        4.932001   -1.207839   -2.359946
    113          1           0        6.116550   -2.077509   -1.504555
    114          1           0        6.189652   -0.006179    0.219205
    115          1           0        4.084902    1.002547   -1.264734
    116          1           0        5.483394    1.982856   -1.751873
    117          1           0        5.097974    1.737037   -0.131371
    118          1           0        7.701013    1.313993   -1.444323
    119          1           0        7.429083    0.032609   -2.510779
    120          1           0        9.102538   -0.973570   -1.721914
    121          1           0        8.221414   -1.374735   -0.289326
    122          1           0        8.648786    0.732637    0.751713
    123          1           0        9.626171    1.352188   -0.484338
    124          1           0       10.573955   -1.328476    0.145309
    125          1           0       10.217285    0.001621    2.759414
    126          1           0       11.084553   -1.512453    2.344719
    127          1           0        9.316871   -1.372978    2.316525
    128          1           0       12.535347   -0.082959    1.295582
    129          1           0       11.567417    1.317059    0.999492
    130          1           0       12.290182    1.257718   -1.471005
    131          1           0       12.032055   -0.278956   -1.639197
    132          1           0       14.208085   -0.771629   -1.723381
    133          1           0       14.424940   -0.479785   -0.021520
    134          1           0       14.730536    1.916656   -0.364548
    135          1           0       15.684802    1.962731   -3.018890
    136          1           0       14.178248    2.634812   -2.610259
    137          1           0       14.189965    1.002848   -3.243591
    138          1           0       16.683034    1.054414   -0.073538
    139          1           0       17.081480    1.096792   -1.736503
    140          1           0       16.481228   -0.441432   -0.823903
 ---------------------------------------------------------------------

 SCF Done:  E(RCAM-B3LYP) =  -3007.13569812     A.U. after   17 cycles

 Excitation energies and oscillator strengths:

 Excited State   1:      Singlet-A      1.6896 eV  733.82 nm  f=0.3990  <S**2>=0.000
     245 -> 248        0.16005
     246 -> 247        0.68857
 This state for optimization and/or second-order correction.
 Total Energy, E(TD-HF/TD-DFT) =  -3007.07360724
 Copying the excited state density for this state as the 1-particle RhoCI density.

 Excited State   2:      Singlet-A      2.1423 eV  578.74 nm  f=0.1735  <S**2>=0.000
     245 -> 247        0.66770
     246 -> 248       -0.21292

 Excited State   3:      Singlet-A      3.0982 eV  400.18 nm  f=0.0107  <S**2>=0.000
     244 -> 247        0.68888

 Excited State   4:      Singlet-A      3.3059 eV  375.04 nm  f=0.0002  <S**2>=0.000
     242 -> 247        0.50408
     242 -> 248        0.24821
     242 -> 249       -0.25387
     242 -> 250       -0.26737

 Excited State   5:      Singlet-A      3.3769 eV  367.16 nm  f=0.0027  <S**2>=0.000
     239 -> 247       -0.14066
     239 -> 249       -0.10634
     240 -> 247       -0.32774
     240 -> 249       -0.22062
     240 -> 250        0.13298
     241 -> 247        0.47676
     241 -> 249        0.13400

 The electronic state is 1-A.
 Alpha  occ. eigenvalues --  -46.88972 -19.24376 -19.23995 -19.21133 -19.18962
 Alpha  occ. eigenvalues --  -19.18897 -19.18080 -14.42430 -14.42129 -14.39906
 Alpha  occ. eigenvalues --  -14.38563 -10.39717 -10.38461 -10.35299 -10.35213
 Alpha  occ. eigenvalues --  -10.32008 -10.31459 -10.31296 -10.31277 -10.31227
 Alpha  occ. eigenvalues --  -10.31070 -10.29541 -10.29450 -10.28892 -10.28875
 Alpha  occ. eigenvalues --  -10.28599 -10.28397 -10.28349 -10.28251 -10.28136
 Alpha  occ. eigenvalues --  -10.28084 -10.27766 -10.27493 -10.27468 -10.27431
 Alpha  occ. eigenvalues --  -10.27344 -10.27143 -10.27104 -10.26901 -10.26897
 Alpha  occ. eigenvalues --  -10.26672 -10.26477 -10.26277 -10.26246 -10.26104
 Alpha  occ. eigenvalues --  -10.25978 -10.25637 -10.25414 -10.25409 -10.25343
 Alpha  occ. eigenvalues --  -10.25249 -10.25118 -10.25112 -10.24980 -10.24710
 Alpha  occ. eigenvalues --  -10.24657 -10.24546 -10.24476 -10.24207 -10.24177
 Alpha  occ. eigenvalues --  -10.23964 -10.23945 -10.23944 -10.23923 -10.23734
 Alpha  occ. eigenvalues --  -10.23587  -3.17648  -1.92530  -1.92125  -1.91945
 Alpha  occ. eigenvalues --   -1.16441  -1.15842  -1.08749  -1.08674  -1.07365
 Alpha  occ. eigenvalues --   -1.06679  -1.05932  -1.04930  -1.04313  -1.03434
 Alpha  occ. eigenvalues --   -0.92878  -0.91434  -0.90136  -0.89794  -0.89675
 Alpha  occ. eigenvalues --   -0.88726  -0.88592  -0.87927  -0.87798  -0.87265
 Alpha  occ. eigenvalues --   -0.86433  -0.85577  -0.84556  -0.84212  -0.83507
 Alpha  occ. eigenvalues --   -0.82270  -0.81931  -0.81030  -0.80395  -0.80224
 Alpha  occ. eigenvalues --   -0.79950  -0.78049  -0.77821  -0.77635  -0.75853
 Alpha  occ. eigenvalues --   -0.75676  -0.75532  -0.75395  -0.74714  -0.73643
 Alpha  occ. eigenvalues --   -0.73303  -0.72647  -0.71708  -0.70482  -0.69811
 Alpha  occ. eigenvalues --   -0.68611  -0.68212  -0.67780  -0.67362  -0.66175
 Alpha  occ. eigenvalues --   -0.65938  -0.65640  -0.64903  -0.64340  -0.63684
 Alpha  occ. eigenvalues --   -0.62863  -0.62410  -0.62363  -0.61951  -0.60361
 Alpha  occ. eigenvalues --   -0.59780  -0.59554  -0.59059  -0.58787  -0.58225
 Alpha  occ. eigenvalues --   -0.57856  -0.57193  -0.56872  -0.56389  -0.56032
 Alpha  occ. eigenvalues --   -0.55526  -0.55048  -0.54722  -0.54222  -0.53882
 Alpha  occ. eigenvalues --   -0.53852  -0.53463  -0.53167  -0.53032  -0.52892
 Alpha  occ. eigenvalues --   -0.52529  -0.52412  -0.52114  -0.52015  -0.51668
 Alpha  occ. eigenvalues --   -0.51592  -0.51209  -0.50971  -0.50730  -0.50524
 Alpha  occ. eigenvalues --   -0.50344  -0.50241  -0.49835  -0.49625  -0.49562
 Alpha  occ. eigenvalues --   -0.49213  -0.49180  -0.48774  -0.48734  -0.48581
 Alpha  occ. eigenvalues --   -0.48372  -0.48189  -0.47969  -0.47748  -0.47627
 Alpha  occ. eigenvalues --   -0.47447  -0.47069  -0.46989  -0.46551  -0.46386
 Alpha  occ. eigenvalues --   -0.46040  -0.45968  -0.45874  -0.45807  -0.45540
 Alpha  occ. eigenvalues --   -0.45423  -0.45380  -0.45229  -0.44979  -0.44765
 Alpha  occ. eigenvalues --   -0.44511  -0.44488  -0.44248  -0.44056  -0.43822
 Alpha  occ. eigenvalues --   -0.43660  -0.43453  -0.43247  -0.43119  -0.43101
 Alpha  occ. eigenvalues --   -0.42850  -0.42554  -0.42349  -0.42127  -0.41984
 Alpha  occ. eigenvalues --   -0.41687  -0.41590  -0.41523  -0.41378  -0.41033
 Alpha  occ. eigenvalues --   -0.40910  -0.40800  -0.40514  -0.40249  -0.40155
 Alpha  occ. eigenvalues --   -0.40085  -0.39646  -0.39522  -0.39310  -0.39084
 Alpha  occ. eigenvalues --   -0.38572  -0.38107  -0.38008  -0.37476  -0.37153
 Alpha  occ. eigenvalues --   -0.37032  -0.36678  -0.36579  -0.36358  -0.35926
 Alpha  occ. eigenvalues --   -0.35493  -0.35378  -0.34689  -0.34517  -0.34442
 Alpha  occ. eigenvalues --   -0.33857  -0.33611  -0.33163  -0.31498  -0.30689
 Alpha  occ. eigenvalues --   -0.30448  -0.30157  -0.29494  -0.29058  -0.23880
 Alpha  occ. eigenvalues --   -0.21695
 Alpha virt. eigenvalues --   -0.09395  -0.01406   0.00251   0.01724   0.02153
 Alpha virt. eigenvalues --    0.04387   0.04963   0.05792   0.05844   0.06975
 Alpha virt. eigenvalues --    0.07530   0.08700   0.08898   0.09084   0.09229

 Mulliken charges:
               1
     1  Mg   0.853038
     2  C   -0.027199
     3  C   -0.058506
     4  C   -0.096204
     5  C   -0.065945
     6  N   -0.225940
     7  C   -0.084177
     8  C    0.032332
     9  C   -0.066033
    10  C   -0.007385
    11  C    0.095046
    12  C    0.074536
    13  C   -0.010503
    14  C    0.193651
    15  O   -0.177021
    16  O   -0.363536
    17  N   -0.358425
    18  C    0.109451
    19  C   -0.152448
    20  C    0.006456
    21  C    0.139747
    22  C    0.139635
    23  C   -0.018765
    24  O   -0.261772
    25  C    0.070805
    26  N   -0.358811
    27  C    0.055466
    28  C   -0.099608
    29  C    0.041480
    30  C    0.036894
    31  C    0.073960
    32  C    0.048155
    33  C    0.019227
    34  N   -0.268086
    35  C    0.047075
    36  C   -0.146214
    37  C   -0.041407
    38  C    0.121918
    39  C    0.105005
    40  C    0.054539
    41  O   -0.180248
    42  C   -0.006344
    43  C    0.214175
    44  O   -0.211083
    45  O   -0.305883
    46  C    0.172128
    47  C    0.252077
    48  C   -0.137938
    49  C   -0.129510
    50  C    0.093037
    51  C    0.115229
    52  C    0.024847
    53  C    0.068695
    54  C   -0.105516
    55  C    0.044980
    56  C    0.057558
    57  C   -0.005760
    58  C    0.057112
    59  C   -0.095017
    60  C    0.033927
    61  C    0.058602
    62  C    0.044605
    63  C   -0.008812
    64  C   -0.167243
    65  C    0.062792
    66  C    0.067447
    67  H   -0.032449
    68  H   -0.044981
    69  H   -0.034546
    70  H   -0.004493
    71  H    0.015529
    72  H    0.016006
    73  H    0.009366
    74  H    0.030455
    75  H    0.014822
    76  H    0.001876
    77  H    0.037616
    78  H    0.063091
    79  H   -0.003965
    80  H    0.036584
    81  H    0.035692
    82  H    0.047351
    83  H    0.036728
    84  H    0.020276
    85  H    0.025334
    86  H    0.005007
    87  H    0.023780
    88  H    0.006460
    89  H    0.020566
    90  H    0.024195
    91  H   -0.008862
    92  H    0.017338
    93  H    0.015363
    94  H    0.025066
    95  H    0.008268
    96  H    0.030176
    97  H    0.038131
    98  H    0.041351
    99  H    0.012760
   100  H    0.063728
   101  H    0.017330
   102  H    0.018766
   103  H    0.039527
   104  H    0.002016
   105  H    0.029714
   106  H    0.000971
   107  H    0.000909
   108  H    0.009940
   109  H   -0.011425
   110  H   -0.012838
   111  H   -0.004553
   112  H   -0.002953
   113  H   -0.017133
   114  H   -0.011048
   115  H    0.001153
   116  H    0.008072
   117  H   -0.010377
   118  H   -0.017028
   119  H   -0.027672
   120  H   -0.004909
   121  H   -0.005788
   122  H   -0.019000
   123  H    0.000315
   124  H   -0.007597
   125  H   -0.005750
   126  H    0.011524
   127  H   -0.000084
   128  H   -0.014295
   129  H   -0.008155
   130  H   -0.012577
   131  H   -0.016700
   132  H   -0.000569
   133  H   -0.004893
   134  H    0.009830
   135  H   -0.006813
   136  H    0.001362
   137  H    0.015636
   138  H   -0.009606
   139  H    0.006206
   140  H    0.020586
 Sum of Mulliken charges =  -0.00000

 Dipole moment (field-independent basis, Debye):
    X=              0.8335    Y=              2.2265    Z=              0.2681  Tot=              2.3925
 Quadrupole moment (field-independent basis, Debye-Ang):
   XX=           -423.4715   YY=           -401.3271   ZZ=           -393.5961
   XY=            -42.4058   XZ=            -11.5163   YZ=            -39.0784

 Normal termination of Gaussian 16 at Sat Apr 30 01:49:27 2022.
