 Gaussian 16, Revision A.03,
 Gaussian 16:  ES64L-G16RevA.03 25-Dec-2016

 ---------------------------------
 #p PBE1PBE/Def2SVP td=(nstates=5)
 ---------------------------------

 -----------------------------------------------------
 step_551_chromophore_11 TDDFT with PBE1PBE functional
 -----------------------------------------------------
 Symbolic Z-matrix:
 Charge =  0 Multiplicity = 1

                         Standard orientation:
 ---------------------------------------------------------------------
 Center     Atomic      Atomic             Coordinates (Angstroms)
 Number     Number       Type             X           Y           Z
 ---------------------------------------------------------------------
      1         12           0       -4.380855    1.601368    0.588152
      2          6           0       -5.279855   -1.865037    0.322545
      3          6           0       -2.715237    0.738902    3.456132
      4          6           0       -2.878553    4.523021    0.397445
      5          6           0       -6.183565    2.199601   -2.213767
      6          7           0       -3.988389   -0.435941    1.736956
      7          6           0       -4.507365   -1.632922    1.474156
      8          6           0       -4.073429   -2.697445    2.547775
      9          6           0       -3.437899   -1.774537    3.686695
     10          6           0       -3.372699   -0.387626    2.973230
     11          6           0       -4.117937   -1.666089    5.021225
     12          6           0       -3.222280   -3.884282    2.107257
     13          6           0       -1.912821   -3.535688    1.376369
     14          6           0       -1.383654   -4.394754    0.171966
     15          8           0       -1.977332   -5.202141   -0.475873
     16          8           0       -0.067428   -3.917853   -0.038593
     17          7           0       -2.983720    2.506118    1.808582
     18          6           0       -2.427973    2.054017    2.932737
     19          6           0       -1.471688    2.979469    3.417633
     20          6           0       -1.564139    4.149595    2.668004
     21          6           0       -2.518984    3.797119    1.627600
     22          6           0       -0.657586    2.702811    4.628175
     23          6           0       -0.749908    5.404729    2.876953
     24          8           0        0.106461    5.558023    3.814562
     25          6           0       -0.826203    6.641924    2.000664
     26          7           0       -4.341855    3.006714   -0.787661
     27          6           0       -3.769042    4.219354   -0.659268
     28          6           0       -3.974151    5.142437   -1.798327
     29          6           0       -5.073057    4.405180   -2.633942
     30          6           0       -5.197714    3.110874   -1.859863
     31          6           0       -4.259530    6.623170   -1.357661
     32          6           0       -4.838672    4.242519   -4.158641
     33          6           0       -5.683450    5.081145   -5.134338
     34          7           0       -5.634546    0.455897   -0.708433
     35          6           0       -6.268032    0.827250   -1.788695
     36          6           0       -7.143842   -0.193478   -2.260611
     37          6           0       -6.742839   -1.329900   -1.424275
     38          6           0       -5.817548   -0.840766   -0.538923
     39          6           0       -8.006105   -0.151840   -3.431154
     40          6           0       -7.054270   -2.759127   -1.079247
     41          8           0       -7.903078   -3.555188   -1.511399
     42          6           0       -5.971201   -3.189970   -0.104533
     43          6           0       -5.102063   -4.022878   -0.954839
     44          8           0       -4.224715   -3.638241   -1.700361
     45          8           0       -5.617739   -5.276796   -0.957638
     46          6           0       -4.897391   -6.162497   -1.855485
     47          6           0        0.692966   -4.656197   -1.029602
     48          6           0        2.212250   -4.052428   -1.035348
     49          6           0        3.069115   -3.924484    0.027446
     50          6           0        2.798564   -4.336492    1.402129
     51          6           0        4.371272   -3.234470   -0.074128
     52          6           0        4.316557   -1.814259   -0.390007
     53          6           0        5.360402   -1.305943   -1.361742
     54          6           0        6.020667   -0.020606   -0.857030
     55          6           0        5.140803    1.198029   -1.077805
     56          6           0        7.425142    0.258957   -1.444107
     57          6           0        8.558090   -0.529488   -0.888692
     58          6           0        9.380291    0.412818    0.009999
     59          6           0       10.484839   -0.366434    0.648563
     60          6           0       10.250942   -0.858492    2.091470
     61          6           0       11.837887    0.349137    0.577925
     62          6           0       12.523998    0.356704   -0.903557
     63          6           0       14.044296   -0.031519   -0.939795
     64          6           0       14.980646    1.217195   -1.162220
     65          6           0       14.722281    1.690449   -2.587086
     66          6           0       16.395164    0.625071   -1.033137
     67          1           0       -2.281561    0.634098    4.453198
     68          1           0       -2.346937    5.457210    0.205261
     69          1           0       -6.777297    2.358017   -3.116272
     70          1           0       -4.993029   -3.111399    2.960715
     71          1           0       -2.372603   -1.961871    3.817619
     72          1           0       -3.352960   -1.742096    5.794658
     73          1           0       -4.746131   -2.541130    5.187330
     74          1           0       -4.725377   -0.766265    5.122799
     75          1           0       -3.881802   -4.566661    1.571201
     76          1           0       -2.910102   -4.495732    2.953601
     77          1           0       -1.201842   -3.586017    2.200029
     78          1           0       -2.014896   -2.534554    0.955773
     79          1           0       -0.661075    1.660634    4.946984
     80          1           0       -1.070200    3.294169    5.446170
     81          1           0        0.389956    2.932969    4.432469
     82          1           0       -0.329327    6.396305    1.061508
     83          1           0       -0.452796    7.530318    2.510066
     84          1           0       -1.891256    6.788043    1.822642
     85          1           0       -3.051454    5.297512   -2.358266
     86          1           0       -5.978346    4.909230   -2.294630
     87          1           0       -4.240504    6.650887   -0.268244
     88          1           0       -5.276937    6.846832   -1.679095
     89          1           0       -3.547133    7.308390   -1.817410
     90          1           0       -4.801464    3.208243   -4.499178
     91          1           0       -3.800162    4.572299   -4.176889
     92          1           0       -6.575667    5.316559   -4.553609
     93          1           0       -5.984756    4.492534   -6.000640
     94          1           0       -5.116617    5.927143   -5.523719
     95          1           0       -7.778338    0.585339   -4.201383
     96          1           0       -9.020924    0.069014   -3.101872
     97          1           0       -7.925346   -1.099373   -3.962774
     98          1           0       -6.360770   -3.677032    0.789503
     99          1           0       -4.967111   -7.197456   -1.518831
    100          1           0       -3.848913   -5.948158   -2.060932
    101          1           0       -5.398837   -6.282248   -2.816546
    102          1           0        0.347758   -4.279892   -1.992689
    103          1           0        0.581869   -5.735174   -0.924377
    104          1           0        2.418321   -3.593307   -2.002039
    105          1           0        2.498819   -3.583141    2.130516
    106          1           0        3.679865   -4.776387    1.867503
    107          1           0        2.085483   -5.159932    1.445695
    108          1           0        4.961135   -3.730767   -0.843756
    109          1           0        4.940190   -3.332216    0.850044
    110          1           0        4.279634   -1.161568    0.481306
    111          1           0        3.353491   -1.542743   -0.823043
    112          1           0        4.932001   -1.207839   -2.359946
    113          1           0        6.116550   -2.077509   -1.504555
    114          1           0        6.189652   -0.006179    0.219205
    115          1           0        4.084902    1.002547   -1.264734
    116          1           0        5.483394    1.982856   -1.751873
    117          1           0        5.097974    1.737037   -0.131371
    118          1           0        7.701013    1.313993   -1.444323
    119          1           0        7.429083    0.032609   -2.510779
    120          1           0        9.102538   -0.973570   -1.721914
    121          1           0        8.221414   -1.374735   -0.289326
    122          1           0        8.648786    0.732637    0.751713
    123          1           0        9.626171    1.352188   -0.484338
    124          1           0       10.573955   -1.328476    0.145309
    125          1           0       10.217285    0.001621    2.759414
    126          1           0       11.084553   -1.512453    2.344719
    127          1           0        9.316871   -1.372978    2.316525
    128          1           0       12.535347   -0.082959    1.295582
    129          1           0       11.567417    1.317059    0.999492
    130          1           0       12.290182    1.257718   -1.471005
    131          1           0       12.032055   -0.278956   -1.639197
    132          1           0       14.208085   -0.771629   -1.723381
    133          1           0       14.424940   -0.479785   -0.021520
    134          1           0       14.730536    1.916656   -0.364548
    135          1           0       15.684802    1.962731   -3.018890
    136          1           0       14.178248    2.634812   -2.610259
    137          1           0       14.189965    1.002848   -3.243591
    138          1           0       16.683034    1.054414   -0.073538
    139          1           0       17.081480    1.096792   -1.736503
    140          1           0       16.481228   -0.441432   -0.823903
 ---------------------------------------------------------------------

 SCF Done:  E(RPBE1PBE) =  -3005.32672580     A.U. after   15 cycles

 Excitation energies and oscillator strengths:

 Excited State   1:      Singlet-A      1.8468 eV  671.35 nm  f=0.3839  <S**2>=0.000
     245 -> 248        0.14697
     246 -> 247        0.69609
     246 <- 247       -0.11551
 This state for optimization and/or second-order correction.
 Total Energy, E(TD-HF/TD-DFT) =  -3005.25885766
 Copying the excited state density for this state as the 1-particle RhoCI density.

 Excited State   2:      Singlet-A      2.1563 eV  574.98 nm  f=0.1528  <S**2>=0.000
     245 -> 247        0.67284
     246 -> 248       -0.18829

 Excited State   3:      Singlet-A      2.7593 eV  449.34 nm  f=0.0002  <S**2>=0.000
     242 -> 247        0.66019
     242 -> 248        0.15888
     242 -> 249        0.10523
     242 -> 250       -0.12377

 Excited State   4:      Singlet-A      2.7949 eV  443.61 nm  f=0.0096  <S**2>=0.000
     243 -> 247        0.38519
     244 -> 247        0.57275

 Excited State   5:      Singlet-A      2.8742 eV  431.37 nm  f=0.0010  <S**2>=0.000
     241 -> 247        0.67354
     241 -> 249       -0.14599

 The electronic state is 1-A.
 Alpha  occ. eigenvalues --  -46.92371 -19.24993 -19.24652 -19.21277 -19.19138
 Alpha  occ. eigenvalues --  -19.19129 -19.18344 -14.41762 -14.41753 -14.39515
 Alpha  occ. eigenvalues --  -14.38193 -10.36673 -10.35404 -10.32478 -10.32391
 Alpha  occ. eigenvalues --  -10.29396 -10.29088 -10.28983 -10.28953 -10.28923
 Alpha  occ. eigenvalues --  -10.28852 -10.27195 -10.26681 -10.26645 -10.26606
 Alpha  occ. eigenvalues --  -10.26274 -10.26128 -10.26048 -10.26030 -10.25937
 Alpha  occ. eigenvalues --  -10.25821 -10.25321 -10.25293 -10.25048 -10.24963
 Alpha  occ. eigenvalues --  -10.24899 -10.24854 -10.24677 -10.24579 -10.24485
 Alpha  occ. eigenvalues --  -10.24206 -10.24022 -10.23886 -10.23873 -10.23565
 Alpha  occ. eigenvalues --  -10.23274 -10.23186 -10.23119 -10.23066 -10.22920
 Alpha  occ. eigenvalues --  -10.22730 -10.22672 -10.22544 -10.22457 -10.22292
 Alpha  occ. eigenvalues --  -10.22198 -10.22148 -10.21998 -10.21696 -10.21589
 Alpha  occ. eigenvalues --  -10.21465 -10.21433 -10.21363 -10.21306 -10.21124
 Alpha  occ. eigenvalues --  -10.21096  -3.14624  -1.87447  -1.87022  -1.86842
 Alpha  occ. eigenvalues --   -1.11166  -1.10564  -1.03575  -1.03401  -1.02131
 Alpha  occ. eigenvalues --   -1.01377  -1.00688  -0.99621  -0.98949  -0.97995
 Alpha  occ. eigenvalues --   -0.87194  -0.85545  -0.84224  -0.84138  -0.83836
 Alpha  occ. eigenvalues --   -0.83057  -0.82677  -0.82191  -0.81908  -0.81578
 Alpha  occ. eigenvalues --   -0.80797  -0.79790  -0.78700  -0.78541  -0.77751
 Alpha  occ. eigenvalues --   -0.76521  -0.76089  -0.75200  -0.74758  -0.74464
 Alpha  occ. eigenvalues --   -0.74068  -0.72398  -0.72073  -0.71887  -0.70161
 Alpha  occ. eigenvalues --   -0.69865  -0.69743  -0.69608  -0.68835  -0.67809
 Alpha  occ. eigenvalues --   -0.67622  -0.67052  -0.66105  -0.64767  -0.64202
 Alpha  occ. eigenvalues --   -0.63034  -0.62450  -0.62232  -0.61551  -0.60640
 Alpha  occ. eigenvalues --   -0.60177  -0.59918  -0.59494  -0.58894  -0.57803
 Alpha  occ. eigenvalues --   -0.57022  -0.56904  -0.56537  -0.56520  -0.54909
 Alpha  occ. eigenvalues --   -0.54370  -0.53921  -0.53664  -0.53169  -0.52772
 Alpha  occ. eigenvalues --   -0.52385  -0.51570  -0.51169  -0.50955  -0.50578
 Alpha  occ. eigenvalues --   -0.49969  -0.49630  -0.49234  -0.48670  -0.48423
 Alpha  occ. eigenvalues --   -0.48359  -0.47914  -0.47654  -0.47599  -0.47307
 Alpha  occ. eigenvalues --   -0.47043  -0.46945  -0.46688  -0.46415  -0.46171
 Alpha  occ. eigenvalues --   -0.46073  -0.45772  -0.45513  -0.45314  -0.45032
 Alpha  occ. eigenvalues --   -0.44846  -0.44731  -0.44490  -0.44270  -0.44137
 Alpha  occ. eigenvalues --   -0.43859  -0.43778  -0.43412  -0.43384  -0.43202
 Alpha  occ. eigenvalues --   -0.42959  -0.42828  -0.42618  -0.42330  -0.42300
 Alpha  occ. eigenvalues --   -0.42105  -0.41713  -0.41597  -0.41180  -0.41047
 Alpha  occ. eigenvalues --   -0.40731  -0.40622  -0.40546  -0.40391  -0.40317
 Alpha  occ. eigenvalues --   -0.40063  -0.39997  -0.39978  -0.39593  -0.39528
 Alpha  occ. eigenvalues --   -0.39333  -0.39211  -0.39026  -0.38871  -0.38494
 Alpha  occ. eigenvalues --   -0.38464  -0.38220  -0.38024  -0.37852  -0.37791
 Alpha  occ. eigenvalues --   -0.37509  -0.37379  -0.37081  -0.36876  -0.36852
 Alpha  occ. eigenvalues --   -0.36552  -0.36418  -0.36261  -0.36105  -0.36065
 Alpha  occ. eigenvalues --   -0.35714  -0.35574  -0.35351  -0.35159  -0.34979
 Alpha  occ. eigenvalues --   -0.34795  -0.34550  -0.34272  -0.34062  -0.33970
 Alpha  occ. eigenvalues --   -0.33320  -0.33106  -0.32791  -0.32270  -0.32083
 Alpha  occ. eigenvalues --   -0.31946  -0.31666  -0.31416  -0.31179  -0.30778
 Alpha  occ. eigenvalues --   -0.30329  -0.30255  -0.29782  -0.29389  -0.29317
 Alpha  occ. eigenvalues --   -0.28828  -0.28559  -0.28542  -0.27080  -0.26124
 Alpha  occ. eigenvalues --   -0.25528  -0.24851  -0.24770  -0.24758  -0.20855
 Alpha  occ. eigenvalues --   -0.19232
 Alpha virt. eigenvalues --   -0.11738  -0.05105  -0.03883  -0.02655  -0.00611
 Alpha virt. eigenvalues --   -0.00031   0.01018   0.01279   0.01379   0.02617
 Alpha virt. eigenvalues --    0.04034   0.04753   0.05257   0.05731   0.05947

 Mulliken charges:
               1
     1  Mg   1.002213
     2  C   -0.022026
     3  C   -0.058253
     4  C   -0.087892
     5  C   -0.048810
     6  N   -0.327077
     7  C   -0.006954
     8  C   -0.039319
     9  C   -0.139056
    10  C    0.030841
    11  C    0.036492
    12  C    0.022181
    13  C   -0.086538
    14  C    0.257503
    15  O   -0.212370
    16  O   -0.389906
    17  N   -0.475439
    18  C    0.142126
    19  C   -0.184384
    20  C   -0.043609
    21  C    0.166940
    22  C    0.083521
    23  C    0.031755
    24  O   -0.293532
    25  C   -0.005814
    26  N   -0.467725
    27  C    0.081628
    28  C   -0.162346
    29  C   -0.045765
    30  C    0.070360
    31  C    0.014574
    32  C   -0.012589
    33  C   -0.054272
    34  N   -0.398799
    35  C    0.070582
    36  C   -0.163033
    37  C   -0.075598
    38  C    0.165956
    39  C    0.048699
    40  C    0.136069
    41  O   -0.223086
    42  C   -0.119535
    43  C    0.306145
    44  O   -0.244130
    45  O   -0.338172
    46  C    0.116005
    47  C    0.208761
    48  C   -0.145723
    49  C   -0.175757
    50  C    0.031388
    51  C    0.047244
    52  C   -0.030767
    53  C    0.014070
    54  C   -0.202217
    55  C   -0.008755
    56  C    0.003501
    57  C   -0.066769
    58  C    0.005316
    59  C   -0.186853
    60  C   -0.025552
    61  C    0.003772
    62  C   -0.010033
    63  C   -0.067138
    64  C   -0.261170
    65  C    0.003686
    66  C    0.005687
    67  H   -0.000447
    68  H   -0.009003
    69  H   -0.001259
    70  H    0.034099
    71  H    0.053179
    72  H    0.043102
    73  H    0.037390
    74  H    0.057493
    75  H    0.048954
    76  H    0.035308
    77  H    0.067556
    78  H    0.097196
    79  H    0.022519
    80  H    0.064387
    81  H    0.062884
    82  H    0.073642
    83  H    0.064035
    84  H    0.047167
    85  H    0.061346
    86  H    0.043991
    87  H    0.052282
    88  H    0.034655
    89  H    0.047417
    90  H    0.055251
    91  H    0.026166
    92  H    0.044899
    93  H    0.043225
    94  H    0.052331
    95  H    0.034693
    96  H    0.059183
    97  H    0.065811
    98  H    0.075343
    99  H    0.035646
   100  H    0.086310
   101  H    0.040228
   102  H    0.046432
   103  H    0.064326
   104  H    0.030431
   105  H    0.056936
   106  H    0.028997
   107  H    0.029708
   108  H    0.042992
   109  H    0.020579
   110  H    0.019565
   111  H    0.028692
   112  H    0.029134
   113  H    0.016154
   114  H    0.027643
   115  H    0.028767
   116  H    0.034498
   117  H    0.017597
   118  H    0.015223
   119  H    0.006702
   120  H    0.027406
   121  H    0.027525
   122  H    0.016316
   123  H    0.030990
   124  H    0.031747
   125  H    0.022519
   126  H    0.039265
   127  H    0.027523
   128  H    0.017344
   129  H    0.024783
   130  H    0.018590
   131  H    0.014923
   132  H    0.032150
   133  H    0.027963
   134  H    0.046125
   135  H    0.021380
   136  H    0.029472
   137  H    0.042122
   138  H    0.020042
   139  H    0.033651
   140  H    0.046559
 Sum of Mulliken charges =  -0.00000

 Dipole moment (field-independent basis, Debye):
    X=              0.7442    Y=              2.3517    Z=              0.0957  Tot=              2.4685
 Quadrupole moment (field-independent basis, Debye-Ang):
   XX=           -419.7742   YY=           -397.9161   ZZ=           -389.4517
   XY=            -43.0091   XZ=             -9.8720   YZ=            -40.3273

 Normal termination of Gaussian 16 at Sat Apr 30 02:06:03 2022.
