 Gaussian 16, Revision A.03,
 Gaussian 16:  ES64L-G16RevA.03 25-Dec-2016

 --------------------------------
 #p wB97XD/Def2SVP td=(nstates=5)
 --------------------------------

 ----------------------------------------------------
 step_551_chromophore_11 TDDFT with wB97XD functional
 ----------------------------------------------------
 Symbolic Z-matrix:
 Charge =  0 Multiplicity = 1

                         Standard orientation:
 ---------------------------------------------------------------------
 Center     Atomic      Atomic             Coordinates (Angstroms)
 Number     Number       Type             X           Y           Z
 ---------------------------------------------------------------------
      1         12           0       -4.380855    1.601368    0.588152
      2          6           0       -5.279855   -1.865037    0.322545
      3          6           0       -2.715237    0.738902    3.456132
      4          6           0       -2.878553    4.523021    0.397445
      5          6           0       -6.183565    2.199601   -2.213767
      6          7           0       -3.988389   -0.435941    1.736956
      7          6           0       -4.507365   -1.632922    1.474156
      8          6           0       -4.073429   -2.697445    2.547775
      9          6           0       -3.437899   -1.774537    3.686695
     10          6           0       -3.372699   -0.387626    2.973230
     11          6           0       -4.117937   -1.666089    5.021225
     12          6           0       -3.222280   -3.884282    2.107257
     13          6           0       -1.912821   -3.535688    1.376369
     14          6           0       -1.383654   -4.394754    0.171966
     15          8           0       -1.977332   -5.202141   -0.475873
     16          8           0       -0.067428   -3.917853   -0.038593
     17          7           0       -2.983720    2.506118    1.808582
     18          6           0       -2.427973    2.054017    2.932737
     19          6           0       -1.471688    2.979469    3.417633
     20          6           0       -1.564139    4.149595    2.668004
     21          6           0       -2.518984    3.797119    1.627600
     22          6           0       -0.657586    2.702811    4.628175
     23          6           0       -0.749908    5.404729    2.876953
     24          8           0        0.106461    5.558023    3.814562
     25          6           0       -0.826203    6.641924    2.000664
     26          7           0       -4.341855    3.006714   -0.787661
     27          6           0       -3.769042    4.219354   -0.659268
     28          6           0       -3.974151    5.142437   -1.798327
     29          6           0       -5.073057    4.405180   -2.633942
     30          6           0       -5.197714    3.110874   -1.859863
     31          6           0       -4.259530    6.623170   -1.357661
     32          6           0       -4.838672    4.242519   -4.158641
     33          6           0       -5.683450    5.081145   -5.134338
     34          7           0       -5.634546    0.455897   -0.708433
     35          6           0       -6.268032    0.827250   -1.788695
     36          6           0       -7.143842   -0.193478   -2.260611
     37          6           0       -6.742839   -1.329900   -1.424275
     38          6           0       -5.817548   -0.840766   -0.538923
     39          6           0       -8.006105   -0.151840   -3.431154
     40          6           0       -7.054270   -2.759127   -1.079247
     41          8           0       -7.903078   -3.555188   -1.511399
     42          6           0       -5.971201   -3.189970   -0.104533
     43          6           0       -5.102063   -4.022878   -0.954839
     44          8           0       -4.224715   -3.638241   -1.700361
     45          8           0       -5.617739   -5.276796   -0.957638
     46          6           0       -4.897391   -6.162497   -1.855485
     47          6           0        0.692966   -4.656197   -1.029602
     48          6           0        2.212250   -4.052428   -1.035348
     49          6           0        3.069115   -3.924484    0.027446
     50          6           0        2.798564   -4.336492    1.402129
     51          6           0        4.371272   -3.234470   -0.074128
     52          6           0        4.316557   -1.814259   -0.390007
     53          6           0        5.360402   -1.305943   -1.361742
     54          6           0        6.020667   -0.020606   -0.857030
     55          6           0        5.140803    1.198029   -1.077805
     56          6           0        7.425142    0.258957   -1.444107
     57          6           0        8.558090   -0.529488   -0.888692
     58          6           0        9.380291    0.412818    0.009999
     59          6           0       10.484839   -0.366434    0.648563
     60          6           0       10.250942   -0.858492    2.091470
     61          6           0       11.837887    0.349137    0.577925
     62          6           0       12.523998    0.356704   -0.903557
     63          6           0       14.044296   -0.031519   -0.939795
     64          6           0       14.980646    1.217195   -1.162220
     65          6           0       14.722281    1.690449   -2.587086
     66          6           0       16.395164    0.625071   -1.033137
     67          1           0       -2.281561    0.634098    4.453198
     68          1           0       -2.346937    5.457210    0.205261
     69          1           0       -6.777297    2.358017   -3.116272
     70          1           0       -4.993029   -3.111399    2.960715
     71          1           0       -2.372603   -1.961871    3.817619
     72          1           0       -3.352960   -1.742096    5.794658
     73          1           0       -4.746131   -2.541130    5.187330
     74          1           0       -4.725377   -0.766265    5.122799
     75          1           0       -3.881802   -4.566661    1.571201
     76          1           0       -2.910102   -4.495732    2.953601
     77          1           0       -1.201842   -3.586017    2.200029
     78          1           0       -2.014896   -2.534554    0.955773
     79          1           0       -0.661075    1.660634    4.946984
     80          1           0       -1.070200    3.294169    5.446170
     81          1           0        0.389956    2.932969    4.432469
     82          1           0       -0.329327    6.396305    1.061508
     83          1           0       -0.452796    7.530318    2.510066
     84          1           0       -1.891256    6.788043    1.822642
     85          1           0       -3.051454    5.297512   -2.358266
     86          1           0       -5.978346    4.909230   -2.294630
     87          1           0       -4.240504    6.650887   -0.268244
     88          1           0       -5.276937    6.846832   -1.679095
     89          1           0       -3.547133    7.308390   -1.817410
     90          1           0       -4.801464    3.208243   -4.499178
     91          1           0       -3.800162    4.572299   -4.176889
     92          1           0       -6.575667    5.316559   -4.553609
     93          1           0       -5.984756    4.492534   -6.000640
     94          1           0       -5.116617    5.927143   -5.523719
     95          1           0       -7.778338    0.585339   -4.201383
     96          1           0       -9.020924    0.069014   -3.101872
     97          1           0       -7.925346   -1.099373   -3.962774
     98          1           0       -6.360770   -3.677032    0.789503
     99          1           0       -4.967111   -7.197456   -1.518831
    100          1           0       -3.848913   -5.948158   -2.060932
    101          1           0       -5.398837   -6.282248   -2.816546
    102          1           0        0.347758   -4.279892   -1.992689
    103          1           0        0.581869   -5.735174   -0.924377
    104          1           0        2.418321   -3.593307   -2.002039
    105          1           0        2.498819   -3.583141    2.130516
    106          1           0        3.679865   -4.776387    1.867503
    107          1           0        2.085483   -5.159932    1.445695
    108          1           0        4.961135   -3.730767   -0.843756
    109          1           0        4.940190   -3.332216    0.850044
    110          1           0        4.279634   -1.161568    0.481306
    111          1           0        3.353491   -1.542743   -0.823043
    112          1           0        4.932001   -1.207839   -2.359946
    113          1           0        6.116550   -2.077509   -1.504555
    114          1           0        6.189652   -0.006179    0.219205
    115          1           0        4.084902    1.002547   -1.264734
    116          1           0        5.483394    1.982856   -1.751873
    117          1           0        5.097974    1.737037   -0.131371
    118          1           0        7.701013    1.313993   -1.444323
    119          1           0        7.429083    0.032609   -2.510779
    120          1           0        9.102538   -0.973570   -1.721914
    121          1           0        8.221414   -1.374735   -0.289326
    122          1           0        8.648786    0.732637    0.751713
    123          1           0        9.626171    1.352188   -0.484338
    124          1           0       10.573955   -1.328476    0.145309
    125          1           0       10.217285    0.001621    2.759414
    126          1           0       11.084553   -1.512453    2.344719
    127          1           0        9.316871   -1.372978    2.316525
    128          1           0       12.535347   -0.082959    1.295582
    129          1           0       11.567417    1.317059    0.999492
    130          1           0       12.290182    1.257718   -1.471005
    131          1           0       12.032055   -0.278956   -1.639197
    132          1           0       14.208085   -0.771629   -1.723381
    133          1           0       14.424940   -0.479785   -0.021520
    134          1           0       14.730536    1.916656   -0.364548
    135          1           0       15.684802    1.962731   -3.018890
    136          1           0       14.178248    2.634812   -2.610259
    137          1           0       14.189965    1.002848   -3.243591
    138          1           0       16.683034    1.054414   -0.073538
    139          1           0       17.081480    1.096792   -1.736503
    140          1           0       16.481228   -0.441432   -0.823903
 ---------------------------------------------------------------------

 SCF Done:  E(RwB97XD) =  -3007.83294835     A.U. after   18 cycles

 Excitation energies and oscillator strengths:

 Excited State   1:      Singlet-A      1.6308 eV  760.25 nm  f=0.3986  <S**2>=0.000
     245 -> 248        0.16634
     246 -> 247        0.68635
     245 <- 248        0.10845
 This state for optimization and/or second-order correction.
 Total Energy, E(TD-HF/TD-DFT) =  -3007.77301608
 Copying the excited state density for this state as the 1-particle RhoCI density.

 Excited State   2:      Singlet-A      2.0932 eV  592.33 nm  f=0.1693  <S**2>=0.000
     245 -> 247        0.66529
     246 -> 248       -0.21856

 Excited State   3:      Singlet-A      3.1322 eV  395.84 nm  f=0.0109  <S**2>=0.000
     244 -> 247        0.68284

 Excited State   4:      Singlet-A      3.3283 eV  372.51 nm  f=0.0002  <S**2>=0.000
     242 -> 247        0.48114
     242 -> 248        0.25409
     242 -> 249        0.29213
     242 -> 250       -0.29378

 Excited State   5:      Singlet-A      3.4112 eV  363.46 nm  f=0.0026  <S**2>=0.000
     240 -> 247        0.13965
     240 -> 249       -0.17980
     240 -> 250       -0.10002
     241 -> 247        0.55851
     241 -> 249       -0.22786
     241 -> 250       -0.14374

 The electronic state is 1-A.
 Alpha  occ. eigenvalues --  -46.95307 -19.29609 -19.29218 -19.26002 -19.23976
 Alpha  occ. eigenvalues --  -19.23902 -19.23137 -14.47057 -14.46704 -14.44497
 Alpha  occ. eigenvalues --  -14.43121 -10.43505 -10.42309 -10.39347 -10.39212
 Alpha  occ. eigenvalues --  -10.35897 -10.35545 -10.35306 -10.35294 -10.35275
 Alpha  occ. eigenvalues --  -10.35072 -10.33561 -10.33202 -10.32964 -10.32857
 Alpha  occ. eigenvalues --  -10.32785 -10.32450 -10.32327 -10.32311 -10.32179
 Alpha  occ. eigenvalues --  -10.32111 -10.31896 -10.31600 -10.31570 -10.31433
 Alpha  occ. eigenvalues --  -10.31332 -10.31155 -10.31111 -10.30854 -10.30833
 Alpha  occ. eigenvalues --  -10.30550 -10.30339 -10.30245 -10.30240 -10.29912
 Alpha  occ. eigenvalues --  -10.29847 -10.29494 -10.29483 -10.29336 -10.29269
 Alpha  occ. eigenvalues --  -10.29220 -10.29051 -10.28922 -10.28920 -10.28641
 Alpha  occ. eigenvalues --  -10.28541 -10.28497 -10.28385 -10.28082 -10.28035
 Alpha  occ. eigenvalues --  -10.27853 -10.27826 -10.27768 -10.27735 -10.27536
 Alpha  occ. eigenvalues --  -10.27496  -3.21420  -1.94992  -1.94563  -1.94387
 Alpha  occ. eigenvalues --   -1.18616  -1.17966  -1.10939  -1.10919  -1.09560
 Alpha  occ. eigenvalues --   -1.08888  -1.07963  -1.06951  -1.06356  -1.05468
 Alpha  occ. eigenvalues --   -0.94875  -0.93205  -0.91891  -0.91647  -0.91524
 Alpha  occ. eigenvalues --   -0.90643  -0.90344  -0.89846  -0.89568  -0.89247
 Alpha  occ. eigenvalues --   -0.88357  -0.87469  -0.86363  -0.86114  -0.85420
 Alpha  occ. eigenvalues --   -0.84169  -0.83776  -0.82920  -0.82356  -0.82135
 Alpha  occ. eigenvalues --   -0.81751  -0.79991  -0.79717  -0.79567  -0.77795
 Alpha  occ. eigenvalues --   -0.77504  -0.77336  -0.77304  -0.76517  -0.75475
 Alpha  occ. eigenvalues --   -0.75229  -0.74614  -0.73672  -0.72406  -0.71722
 Alpha  occ. eigenvalues --   -0.70605  -0.70073  -0.69789  -0.69199  -0.68092
 Alpha  occ. eigenvalues --   -0.67792  -0.67550  -0.66901  -0.66358  -0.65477
 Alpha  occ. eigenvalues --   -0.64678  -0.64382  -0.64184  -0.63957  -0.62343
 Alpha  occ. eigenvalues --   -0.61766  -0.61436  -0.61062  -0.60730  -0.60201
 Alpha  occ. eigenvalues --   -0.59850  -0.59091  -0.58713  -0.58356  -0.57961
 Alpha  occ. eigenvalues --   -0.57430  -0.57022  -0.56646  -0.56097  -0.55808
 Alpha  occ. eigenvalues --   -0.55770  -0.55343  -0.55040  -0.54942  -0.54743
 Alpha  occ. eigenvalues --   -0.54402  -0.54346  -0.54044  -0.53939  -0.53601
 Alpha  occ. eigenvalues --   -0.53460  -0.53146  -0.52853  -0.52646  -0.52393
 Alpha  occ. eigenvalues --   -0.52222  -0.52186  -0.51780  -0.51560  -0.51453
 Alpha  occ. eigenvalues --   -0.51130  -0.51081  -0.50701  -0.50643  -0.50481
 Alpha  occ. eigenvalues --   -0.50257  -0.50098  -0.49913  -0.49626  -0.49568
 Alpha  occ. eigenvalues --   -0.49385  -0.49026  -0.48888  -0.48440  -0.48319
 Alpha  occ. eigenvalues --   -0.47898  -0.47864  -0.47749  -0.47692  -0.47479
 Alpha  occ. eigenvalues --   -0.47261  -0.47236  -0.47181  -0.46827  -0.46666
 Alpha  occ. eigenvalues --   -0.46418  -0.46368  -0.46140  -0.45982  -0.45752
 Alpha  occ. eigenvalues --   -0.45576  -0.45378  -0.45160  -0.45045  -0.44979
 Alpha  occ. eigenvalues --   -0.44688  -0.44455  -0.44317  -0.43994  -0.43880
 Alpha  occ. eigenvalues --   -0.43589  -0.43490  -0.43426  -0.43308  -0.42940
 Alpha  occ. eigenvalues --   -0.42720  -0.42713  -0.42539  -0.42179  -0.42033
 Alpha  occ. eigenvalues --   -0.41914  -0.41543  -0.41360  -0.41148  -0.40991
 Alpha  occ. eigenvalues --   -0.40392  -0.40033  -0.39836  -0.39304  -0.39005
 Alpha  occ. eigenvalues --   -0.38967  -0.38714  -0.38491  -0.38226  -0.37834
 Alpha  occ. eigenvalues --   -0.37410  -0.37285  -0.36644  -0.36447  -0.36251
 Alpha  occ. eigenvalues --   -0.35779  -0.35444  -0.35439  -0.33698  -0.32796
 Alpha  occ. eigenvalues --   -0.32548  -0.32083  -0.31512  -0.31242  -0.25795
 Alpha  occ. eigenvalues --   -0.23501
 Alpha virt. eigenvalues --   -0.07750   0.00556   0.02306   0.03803   0.05275
 Alpha virt. eigenvalues --    0.06638   0.07610   0.08067   0.08131   0.09309
 Alpha virt. eigenvalues --    0.10540   0.11544   0.11932   0.12439   0.12659

 Mulliken charges:
               1
     1  Mg   0.991658
     2  C   -0.026414
     3  C   -0.068868
     4  C   -0.104359
     5  C   -0.069769
     6  N   -0.288974
     7  C   -0.047241
     8  C   -0.010447
     9  C   -0.114848
    10  C    0.016254
    11  C    0.045154
    12  C    0.033341
    13  C   -0.066930
    14  C    0.247836
    15  O   -0.208415
    16  O   -0.389922
    17  N   -0.443721
    18  C    0.129528
    19  C   -0.170802
    20  C   -0.040027
    21  C    0.163820
    22  C    0.092065
    23  C    0.026474
    24  O   -0.289154
    25  C    0.010148
    26  N   -0.438304
    27  C    0.079027
    28  C   -0.144982
    29  C   -0.015747
    30  C    0.063623
    31  C    0.027872
    32  C    0.001220
    33  C   -0.036980
    34  N   -0.358444
    35  C    0.062278
    36  C   -0.158984
    37  C   -0.076828
    38  C    0.148794
    39  C    0.058328
    40  C    0.121740
    41  O   -0.214165
    42  C   -0.077646
    43  C    0.278340
    44  O   -0.236807
    45  O   -0.336626
    46  C    0.133148
    47  C    0.220762
    48  C   -0.157802
    49  C   -0.158392
    50  C    0.043197
    51  C    0.064979
    52  C   -0.016561
    53  C    0.027764
    54  C   -0.163629
    55  C   -0.002885
    56  C    0.020122
    57  C   -0.049705
    58  C    0.017085
    59  C   -0.153109
    60  C   -0.013023
    61  C    0.021375
    62  C    0.000960
    63  C   -0.046793
    64  C   -0.230656
    65  C    0.012287
    66  C    0.017072
    67  H   -0.007948
    68  H   -0.023862
    69  H   -0.010506
    70  H    0.023254
    71  H    0.041706
    72  H    0.038321
    73  H    0.031806
    74  H    0.052140
    75  H    0.038545
    76  H    0.028708
    77  H    0.061633
    78  H    0.087215
    79  H    0.017820
    80  H    0.060836
    81  H    0.059647
    82  H    0.069389
    83  H    0.063280
    84  H    0.038876
    85  H    0.050952
    86  H    0.029741
    87  H    0.043786
    88  H    0.028416
    89  H    0.043259
    90  H    0.048409
    91  H    0.016044
    92  H    0.037448
    93  H    0.037866
    94  H    0.046862
    95  H    0.029566
    96  H    0.053931
    97  H    0.061062
    98  H    0.071265
    99  H    0.031671
   100  H    0.080951
   101  H    0.036129
   102  H    0.042278
   103  H    0.060832
   104  H    0.027596
   105  H    0.052321
   106  H    0.022719
   107  H    0.023500
   108  H    0.034716
   109  H    0.013735
   110  H    0.010995
   111  H    0.017958
   112  H    0.022165
   113  H    0.004319
   114  H    0.012161
   115  H    0.023205
   116  H    0.029438
   117  H    0.011857
   118  H    0.004599
   119  H   -0.002008
   120  H    0.019461
   121  H    0.015204
   122  H    0.004529
   123  H    0.022605
   124  H    0.016998
   125  H    0.014979
   126  H    0.033113
   127  H    0.022484
   128  H    0.007957
   129  H    0.014938
   130  H    0.009767
   131  H    0.006346
   132  H    0.022608
   133  H    0.017177
   134  H    0.036440
   135  H    0.014661
   136  H    0.023775
   137  H    0.036119
   138  H    0.013181
   139  H    0.027741
   140  H    0.041019
 Sum of Mulliken charges =  -0.00000

 Dipole moment (field-independent basis, Debye):
    X=              0.8436    Y=              2.2748    Z=              0.3149  Tot=              2.4465
 Quadrupole moment (field-independent basis, Debye-Ang):
   XX=           -420.2835   YY=           -397.1254   ZZ=           -389.1641
   XY=            -42.2468   XZ=            -10.8532   YZ=            -39.7273

 Normal termination of Gaussian 16 at Sat Apr 30 02:32:09 2022.
