 Gaussian 16, Revision A.03,
 Gaussian 16:  ES64L-G16RevA.03 25-Dec-2016

 --------------------
 #p ZINDO=(nstates=5)
 --------------------

 -----------------------------
 step_551_chromophore_11 ZINDO
 -----------------------------
 Symbolic Z-matrix:
 Charge =  0 Multiplicity = 1

                         Standard orientation:
 ---------------------------------------------------------------------
 Center     Atomic      Atomic             Coordinates (Angstroms)
 Number     Number       Type             X           Y           Z
 ---------------------------------------------------------------------
      1         12           0       -4.380855    1.601368    0.588152
      2          6           0       -5.279855   -1.865037    0.322545
      3          6           0       -2.715237    0.738902    3.456132
      4          6           0       -2.878553    4.523021    0.397445
      5          6           0       -6.183565    2.199601   -2.213767
      6          7           0       -3.988389   -0.435941    1.736956
      7          6           0       -4.507365   -1.632922    1.474156
      8          6           0       -4.073429   -2.697445    2.547775
      9          6           0       -3.437899   -1.774537    3.686695
     10          6           0       -3.372699   -0.387626    2.973230
     11          6           0       -4.117937   -1.666089    5.021225
     12          6           0       -3.222280   -3.884282    2.107257
     13          6           0       -1.912821   -3.535688    1.376369
     14          6           0       -1.383654   -4.394754    0.171966
     15          8           0       -1.977332   -5.202141   -0.475873
     16          8           0       -0.067428   -3.917853   -0.038593
     17          7           0       -2.983720    2.506118    1.808582
     18          6           0       -2.427973    2.054017    2.932737
     19          6           0       -1.471688    2.979469    3.417633
     20          6           0       -1.564139    4.149595    2.668004
     21          6           0       -2.518984    3.797119    1.627600
     22          6           0       -0.657586    2.702811    4.628175
     23          6           0       -0.749908    5.404729    2.876953
     24          8           0        0.106461    5.558023    3.814562
     25          6           0       -0.826203    6.641924    2.000664
     26          7           0       -4.341855    3.006714   -0.787661
     27          6           0       -3.769042    4.219354   -0.659268
     28          6           0       -3.974151    5.142437   -1.798327
     29          6           0       -5.073057    4.405180   -2.633942
     30          6           0       -5.197714    3.110874   -1.859863
     31          6           0       -4.259530    6.623170   -1.357661
     32          6           0       -4.838672    4.242519   -4.158641
     33          6           0       -5.683450    5.081145   -5.134338
     34          7           0       -5.634546    0.455897   -0.708433
     35          6           0       -6.268032    0.827250   -1.788695
     36          6           0       -7.143842   -0.193478   -2.260611
     37          6           0       -6.742839   -1.329900   -1.424275
     38          6           0       -5.817548   -0.840766   -0.538923
     39          6           0       -8.006105   -0.151840   -3.431154
     40          6           0       -7.054270   -2.759127   -1.079247
     41          8           0       -7.903078   -3.555188   -1.511399
     42          6           0       -5.971201   -3.189970   -0.104533
     43          6           0       -5.102063   -4.022878   -0.954839
     44          8           0       -4.224715   -3.638241   -1.700361
     45          8           0       -5.617739   -5.276796   -0.957638
     46          6           0       -4.897391   -6.162497   -1.855485
     47          6           0        0.692966   -4.656197   -1.029602
     48          6           0        2.212250   -4.052428   -1.035348
     49          6           0        3.069115   -3.924484    0.027446
     50          6           0        2.798564   -4.336492    1.402129
     51          6           0        4.371272   -3.234470   -0.074128
     52          6           0        4.316557   -1.814259   -0.390007
     53          6           0        5.360402   -1.305943   -1.361742
     54          6           0        6.020667   -0.020606   -0.857030
     55          6           0        5.140803    1.198029   -1.077805
     56          6           0        7.425142    0.258957   -1.444107
     57          6           0        8.558090   -0.529488   -0.888692
     58          6           0        9.380291    0.412818    0.009999
     59          6           0       10.484839   -0.366434    0.648563
     60          6           0       10.250942   -0.858492    2.091470
     61          6           0       11.837887    0.349137    0.577925
     62          6           0       12.523998    0.356704   -0.903557
     63          6           0       14.044296   -0.031519   -0.939795
     64          6           0       14.980646    1.217195   -1.162220
     65          6           0       14.722281    1.690449   -2.587086
     66          6           0       16.395164    0.625071   -1.033137
     67          1           0       -2.281561    0.634098    4.453198
     68          1           0       -2.346937    5.457210    0.205261
     69          1           0       -6.777297    2.358017   -3.116272
     70          1           0       -4.993029   -3.111399    2.960715
     71          1           0       -2.372603   -1.961871    3.817619
     72          1           0       -3.352960   -1.742096    5.794658
     73          1           0       -4.746131   -2.541130    5.187330
     74          1           0       -4.725377   -0.766265    5.122799
     75          1           0       -3.881802   -4.566661    1.571201
     76          1           0       -2.910102   -4.495732    2.953601
     77          1           0       -1.201842   -3.586017    2.200029
     78          1           0       -2.014896   -2.534554    0.955773
     79          1           0       -0.661075    1.660634    4.946984
     80          1           0       -1.070200    3.294169    5.446170
     81          1           0        0.389956    2.932969    4.432469
     82          1           0       -0.329327    6.396305    1.061508
     83          1           0       -0.452796    7.530318    2.510066
     84          1           0       -1.891256    6.788043    1.822642
     85          1           0       -3.051454    5.297512   -2.358266
     86          1           0       -5.978346    4.909230   -2.294630
     87          1           0       -4.240504    6.650887   -0.268244
     88          1           0       -5.276937    6.846832   -1.679095
     89          1           0       -3.547133    7.308390   -1.817410
     90          1           0       -4.801464    3.208243   -4.499178
     91          1           0       -3.800162    4.572299   -4.176889
     92          1           0       -6.575667    5.316559   -4.553609
     93          1           0       -5.984756    4.492534   -6.000640
     94          1           0       -5.116617    5.927143   -5.523719
     95          1           0       -7.778338    0.585339   -4.201383
     96          1           0       -9.020924    0.069014   -3.101872
     97          1           0       -7.925346   -1.099373   -3.962774
     98          1           0       -6.360770   -3.677032    0.789503
     99          1           0       -4.967111   -7.197456   -1.518831
    100          1           0       -3.848913   -5.948158   -2.060932
    101          1           0       -5.398837   -6.282248   -2.816546
    102          1           0        0.347758   -4.279892   -1.992689
    103          1           0        0.581869   -5.735174   -0.924377
    104          1           0        2.418321   -3.593307   -2.002039
    105          1           0        2.498819   -3.583141    2.130516
    106          1           0        3.679865   -4.776387    1.867503
    107          1           0        2.085483   -5.159932    1.445695
    108          1           0        4.961135   -3.730767   -0.843756
    109          1           0        4.940190   -3.332216    0.850044
    110          1           0        4.279634   -1.161568    0.481306
    111          1           0        3.353491   -1.542743   -0.823043
    112          1           0        4.932001   -1.207839   -2.359946
    113          1           0        6.116550   -2.077509   -1.504555
    114          1           0        6.189652   -0.006179    0.219205
    115          1           0        4.084902    1.002547   -1.264734
    116          1           0        5.483394    1.982856   -1.751873
    117          1           0        5.097974    1.737037   -0.131371
    118          1           0        7.701013    1.313993   -1.444323
    119          1           0        7.429083    0.032609   -2.510779
    120          1           0        9.102538   -0.973570   -1.721914
    121          1           0        8.221414   -1.374735   -0.289326
    122          1           0        8.648786    0.732637    0.751713
    123          1           0        9.626171    1.352188   -0.484338
    124          1           0       10.573955   -1.328476    0.145309
    125          1           0       10.217285    0.001621    2.759414
    126          1           0       11.084553   -1.512453    2.344719
    127          1           0        9.316871   -1.372978    2.316525
    128          1           0       12.535347   -0.082959    1.295582
    129          1           0       11.567417    1.317059    0.999492
    130          1           0       12.290182    1.257718   -1.471005
    131          1           0       12.032055   -0.278956   -1.639197
    132          1           0       14.208085   -0.771629   -1.723381
    133          1           0       14.424940   -0.479785   -0.021520
    134          1           0       14.730536    1.916656   -0.364548
    135          1           0       15.684802    1.962731   -3.018890
    136          1           0       14.178248    2.634812   -2.610259
    137          1           0       14.189965    1.002848   -3.243591
    138          1           0       16.683034    1.054414   -0.073538
    139          1           0       17.081480    1.096792   -1.736503
    140          1           0       16.481228   -0.441432   -0.823903
 ---------------------------------------------------------------------

 SCF Done:  E(RZINDO/S) =  -474.615766842     A.U. after   20 cycles

 Excitation energies and oscillator strengths:

 Excited State   1:      Singlet-A      1.2126 eV 1022.47 nm  f=0.6224  <S**2>=0.000
     175 ->178        -0.17658
     176 ->177         0.66370
 This state for optimization and/or second-order correction.
 Total Energy, E(CIS/TDA) =  -474.571204656
 Copying the excited state density for this state as the 1-particle RhoCI density.

 Excited State   2:      Singlet-A      1.8391 eV  674.15 nm  f=0.1527  <S**2>=0.000
     175 ->177         0.60651
     176 ->178         0.32069

 Excited State   3:      Singlet-A      2.8390 eV  436.71 nm  f=0.0005  <S**2>=0.000
     168 ->177         0.26735
     168 ->178        -0.27470
     168 ->179         0.29903
     168 ->180        -0.37352
     168 ->184         0.18335
     168 ->186         0.15873

 Excited State   4:      Singlet-A      2.8785 eV  430.72 nm  f=0.0174  <S**2>=0.000
     172 ->177         0.21927
     174 ->177         0.63263

 Excited State   5:      Singlet-A      2.9462 eV  420.83 nm  f=0.0199  <S**2>=0.000
     169 ->177         0.29049
     169 ->179        -0.40334
     169 ->180        -0.23408
     169 ->187        -0.11656
     169 ->188        -0.10885
     169 ->201         0.11726
     170 ->177         0.12272
     170 ->179        -0.14682
     172 ->177        -0.12514
     174 ->177        -0.11106
     176 ->178        -0.12077

 The electronic state is 1-A.
 Alpha  occ. eigenvalues --   -1.87243  -1.83884  -1.81099  -1.74878  -1.73044
 Alpha  occ. eigenvalues --   -1.69828  -1.67479  -1.61984  -1.58069  -1.58004
 Alpha  occ. eigenvalues --   -1.56181  -1.52852  -1.49145  -1.48425  -1.47765
 Alpha  occ. eigenvalues --   -1.44732  -1.43040  -1.41310  -1.39552  -1.39116
 Alpha  occ. eigenvalues --   -1.36821  -1.34509  -1.31774  -1.30973  -1.28984
 Alpha  occ. eigenvalues --   -1.28070  -1.26530  -1.23055  -1.21190  -1.18032
 Alpha  occ. eigenvalues --   -1.16857  -1.16642  -1.14753  -1.14056  -1.13172
 Alpha  occ. eigenvalues --   -1.12500  -1.10159  -1.09758  -1.04813  -1.03523
 Alpha  occ. eigenvalues --   -1.02227  -1.01289  -0.98926  -0.97540  -0.97185
 Alpha  occ. eigenvalues --   -0.96676  -0.95573  -0.94442  -0.93296  -0.92666
 Alpha  occ. eigenvalues --   -0.91478  -0.90881  -0.88991  -0.88384  -0.86938
 Alpha  occ. eigenvalues --   -0.86286  -0.83987  -0.82747  -0.80920  -0.80508
 Alpha  occ. eigenvalues --   -0.79476  -0.78222  -0.77442  -0.77110  -0.76211
 Alpha  occ. eigenvalues --   -0.76152  -0.75761  -0.75378  -0.75062  -0.73979
 Alpha  occ. eigenvalues --   -0.73509  -0.73146  -0.72493  -0.71533  -0.70950
 Alpha  occ. eigenvalues --   -0.70786  -0.68958  -0.68760  -0.68490  -0.68300
 Alpha  occ. eigenvalues --   -0.67516  -0.66663  -0.65983  -0.65620  -0.65449
 Alpha  occ. eigenvalues --   -0.64961  -0.64657  -0.64330  -0.63958  -0.63551
 Alpha  occ. eigenvalues --   -0.63128  -0.62723  -0.62435  -0.61808  -0.61554
 Alpha  occ. eigenvalues --   -0.61256  -0.60920  -0.60588  -0.60359  -0.59816
 Alpha  occ. eigenvalues --   -0.59200  -0.59061  -0.58609  -0.58082  -0.57832
 Alpha  occ. eigenvalues --   -0.57416  -0.57297  -0.56895  -0.56475  -0.56166
 Alpha  occ. eigenvalues --   -0.55914  -0.55271  -0.55128  -0.54740  -0.53866
 Alpha  occ. eigenvalues --   -0.53854  -0.53530  -0.53398  -0.53009  -0.52957
 Alpha  occ. eigenvalues --   -0.52382  -0.51975  -0.51554  -0.51248  -0.51183
 Alpha  occ. eigenvalues --   -0.50781  -0.50638  -0.50321  -0.50073  -0.50023
 Alpha  occ. eigenvalues --   -0.49782  -0.49437  -0.49273  -0.48975  -0.48597
 Alpha  occ. eigenvalues --   -0.48387  -0.48098  -0.47792  -0.47737  -0.47464
 Alpha  occ. eigenvalues --   -0.47315  -0.47229  -0.46895  -0.46671  -0.46257
 Alpha  occ. eigenvalues --   -0.46108  -0.45857  -0.45626  -0.45510  -0.45131
 Alpha  occ. eigenvalues --   -0.44703  -0.44427  -0.43843  -0.43803  -0.43604
 Alpha  occ. eigenvalues --   -0.42850  -0.42760  -0.42444  -0.42186  -0.41981
 Alpha  occ. eigenvalues --   -0.41738  -0.41281  -0.40703  -0.38877  -0.38346
 Alpha  occ. eigenvalues --   -0.37652  -0.37070  -0.35335  -0.35013  -0.34698
 Alpha  occ. eigenvalues --   -0.33638  -0.32633  -0.31770  -0.31340  -0.26358
 Alpha  occ. eigenvalues --   -0.22279
 Alpha virt. eigenvalues --   -0.09285  -0.01822  -0.00783   0.00637   0.01896
 Alpha virt. eigenvalues --    0.02824   0.02953   0.03527   0.04378   0.05024
 Alpha virt. eigenvalues --    0.06549   0.06696   0.07190   0.07543   0.08036

 Mulliken charges:
               1
     1  Mg   0.433672
     2  C   -0.041003
     3  C   -0.070388
     4  C   -0.115066
     5  C   -0.095817
     6  N   -0.283235
     7  C    0.116541
     8  C    0.007291
     9  C    0.002832
    10  C    0.119172
    11  C   -0.041423
    12  C   -0.017344
    13  C    0.001476
    14  C    0.464872
    15  O   -0.476296
    16  O   -0.284139
    17  N   -0.312302
    18  C    0.110781
    19  C    0.057439
    20  C   -0.042506
    21  C    0.124809
    22  C   -0.036998
    23  C    0.320305
    24  O   -0.551279
    25  C   -0.022801
    26  N   -0.272620
    27  C    0.158742
    28  C   -0.000518
    29  C    0.001573
    30  C    0.128679
    31  C   -0.058453
    32  C   -0.027855
    33  C   -0.056618
    34  N   -0.305506
    35  C    0.111091
    36  C    0.011194
    37  C   -0.063162
    38  C    0.116348
    39  C   -0.031146
    40  C    0.340506
    41  O   -0.525103
    42  C    0.062094
    43  C    0.500781
    44  O   -0.519096
    45  O   -0.250223
    46  C    0.070874
    47  C    0.092573
    48  C   -0.115492
    49  C    0.026664
    50  C   -0.035072
    51  C   -0.005583
    52  C   -0.023304
    53  C   -0.023536
    54  C    0.000119
    55  C   -0.060802
    56  C   -0.037413
    57  C   -0.032875
    58  C   -0.025984
    59  C   -0.004334
    60  C   -0.057860
    61  C   -0.036587
    62  C   -0.051814
    63  C   -0.037456
    64  C   -0.011530
    65  C   -0.053376
    66  C   -0.068035
    67  H    0.017927
    68  H    0.018704
    69  H    0.020083
    70  H    0.021120
    71  H    0.029889
    72  H    0.019878
    73  H    0.016063
    74  H    0.031459
    75  H    0.028443
    76  H    0.015323
    77  H    0.037233
    78  H    0.051884
    79  H    0.016687
    80  H    0.040430
    81  H    0.040181
    82  H    0.045426
    83  H    0.047150
    84  H    0.022525
    85  H    0.036096
    86  H    0.035973
    87  H    0.027138
    88  H    0.019156
    89  H    0.026615
    90  H    0.031683
    91  H    0.013403
    92  H    0.024190
    93  H    0.020553
    94  H    0.026932
    95  H    0.019439
    96  H    0.034540
    97  H    0.032647
    98  H    0.055201
    99  H    0.019975
   100  H    0.061279
   101  H    0.034194
   102  H    0.040963
   103  H    0.060893
   104  H    0.032640
   105  H    0.036378
   106  H    0.013746
   107  H    0.013285
   108  H    0.022740
   109  H    0.014712
   110  H    0.015997
   111  H    0.011578
   112  H    0.022123
   113  H    0.009717
   114  H    0.021629
   115  H    0.016095
   116  H    0.021897
   117  H    0.003757
   118  H    0.016752
   119  H    0.002564
   120  H    0.016389
   121  H    0.016827
   122  H    0.011679
   123  H    0.026685
   124  H    0.011090
   125  H    0.012084
   126  H    0.017217
   127  H    0.016152
   128  H    0.017441
   129  H    0.021655
   130  H    0.021726
   131  H    0.014406
   132  H    0.019215
   133  H    0.014706
   134  H    0.035514
   135  H    0.011280
   136  H    0.009646
   137  H    0.027455
   138  H    0.001117
   139  H    0.026316
   140  H    0.036034
 Sum of Mulliken charges =  -0.00000

 Dipole moment (field-independent basis, Debye):
    X=              0.6187    Y=              4.2878    Z=              2.3168  Tot=              4.9128
 N-N= 4.416965036469D+03 E-N= 0.000000000000D+00  KE=-9.508920028663D+03
 Leave Link  601 at Sat Apr 30 02:46:11 2022, MaxMem=  6710886400 cpu:               0.8 elap:               0.0
 (Enter /sw/apps/gaussian-16.0/g16/l9999.exe)
 1\1\GINC-BP1-COMPUTE161\SP\RZINDO CIS\STO-3G\C55H74Mg1N4O6\OF15641\30-
 Apr-2022\0\\#p ZINDO=(nstates=5)\\step_551_chromophore_11 ZINDO\\0,1\M
 g,0,52.08,23.863,44.535\C,0,49.138,25.838,43.953\C,0,50.023,21.126,44.
 39\C,0,54.802,22.04,44.224\C,0,53.867,26.731,44.734\N,0,49.766,23.539,
 44.129\C,0,48.822,24.469,44.006\C,0,47.395,23.825,43.854\C,0,47.68,22.
 301,44.24\C,0,49.24,22.271,44.288\C,0,47.088,21.729,45.496\C,0,46.621,
 24.045,42.558\C,0,47.352,23.643,41.264\C,0,47.218,24.483,39.943\O,0,46

 Normal termination of Gaussian 16 at Sat Apr 30 02:46:12 2022.
