 Gaussian 16, Revision A.03,
 Gaussian 16:  ES64L-G16RevA.03 25-Dec-2016

 ------------------------------
 #p blyp/Def2SVP td=(nstates=5)
 ------------------------------

 --------------------------------------------------
 step_551_chromophore_18 TDDFT with blyp functional
 --------------------------------------------------
 Symbolic Z-matrix:
 Charge =  0 Multiplicity = 1

                         Standard orientation:
 ---------------------------------------------------------------------
 Center     Atomic      Atomic             Coordinates (Angstroms)
 Number     Number       Type             X           Y           Z
 ---------------------------------------------------------------------
      1         12           0        5.141942    1.178314    0.317603
      2          6           0        4.329688   -2.274698    0.325400
      3          6           0        1.756422    1.892936    0.016954
      4          6           0        5.897767    4.359310   -0.137445
      5          6           0        8.480922    0.291604   -0.323570
      6          7           0        3.275965   -0.099480    0.166945
      7          6           0        3.190208   -1.465994    0.255184
      8          6           0        1.732195   -1.949289    0.438845
      9          6           0        0.961393   -0.593321    0.229485
     10          6           0        2.033788    0.545169    0.134424
     11          6           0       -0.030708   -0.563849   -0.949016
     12          6           0        1.476687   -2.709321    1.807536
     13          6           0        0.846827   -4.101955    1.819407
     14          6           0        0.096494   -4.482210    0.595471
     15          8           0        0.454533   -5.178114   -0.360568
     16          8           0       -1.202108   -4.063705    0.734358
     17          7           0        4.043403    2.885821    0.136938
     18          6           0        2.650767    2.984990   -0.052784
     19          6           0        2.302696    4.401903   -0.164217
     20          6           0        3.520434    5.133791   -0.181436
     21          6           0        4.549258    4.096304   -0.073500
     22          6           0        0.843623    4.912395   -0.297153
     23          6           0        3.788447    6.717483   -0.408115
     24          8           0        4.880777    7.188190   -0.525752
     25          6           0        2.683568    7.565849   -0.658750
     26          7           0        6.904273    2.180308   -0.369255
     27          6           0        6.949579    3.495474   -0.274209
     28          6           0        8.385319    4.028506   -0.249959
     29          6           0        9.246888    2.671819   -0.217610
     30          6           0        8.153911    1.608216   -0.302707
     31          6           0        8.899049    5.065734   -1.299016
     32          6           0       10.211396    2.614362    1.046217
     33          6           0        9.657460    2.413655    2.432287
     34          7           0        6.212699   -0.606027    0.118153
     35          6           0        7.542393   -0.803509   -0.155183
     36          6           0        7.910886   -2.194922    0.001079
     37          6           0        6.649708   -2.818070    0.131867
     38          6           0        5.647961   -1.818508    0.251866
     39          6           0        9.309453   -2.921374   -0.072416
     40          6           0        5.995234   -4.100916    0.365266
     41          8           0        6.409968   -5.210717    0.644112
     42          6           0        4.476547   -3.774740    0.367144
     43          6           0        4.065219   -4.391724   -0.880063
     44          8           0        3.840458   -3.774027   -1.899975
     45          8           0        3.907048   -5.685865   -0.816246
     46          6           0        3.442252   -6.296006   -2.003751
     47          6           0       -2.067961   -4.254701   -0.522151
     48          6           0       -3.231974   -3.332709   -0.486206
     49          6           0       -4.323420   -3.437274   -1.315987
     50          6           0       -4.440078   -4.522823   -2.385672
     51          6           0       -5.486258   -2.404331   -1.239430
     52          6           0       -6.004096   -2.220318    0.200668
     53          6           0       -6.525895   -0.752600    0.300040
     54          6           0       -7.738991   -0.548761    1.268253
     55          6           0       -7.218170   -0.389877    2.734781
     56          6           0       -8.782356    0.603584    0.827476
     57          6           0      -10.008545   -0.003455    0.153648
     58          6           0      -11.066399   -0.273555    1.169721
     59          6           0      -11.843933    0.949628    1.553514
     60          6           0      -11.828241    1.261716    3.078189
     61          6           0      -13.267683    0.890411    1.017710
     62          6           0      -13.380526    1.644218   -0.344019
     63          6           0      -14.765159    1.371009   -1.001147
     64          6           0      -15.495087    2.673170   -1.191871
     65          6           0      -17.023919    2.447513   -1.013358
     66          6           0      -15.228637    3.322870   -2.582286
     67          1           0        0.695773    2.152676    0.026067
     68          1           0        6.247095    5.391480   -0.195244
     69          1           0        9.533449    0.008590   -0.257142
     70          1           0        1.659768   -2.686398   -0.361658
     71          1           0        0.488541   -0.490964    1.205883
     72          1           0       -1.020478   -0.541842   -0.494436
     73          1           0        0.191423   -1.504632   -1.453115
     74          1           0        0.034140    0.195729   -1.727999
     75          1           0        0.952347   -2.116154    2.555764
     76          1           0        2.393548   -2.847206    2.380631
     77          1           0        0.196217   -4.148824    2.693963
     78          1           0        1.670261   -4.796086    1.986132
     79          1           0        0.875583    5.663173   -1.087044
     80          1           0        0.510060    5.414952    0.610339
     81          1           0        0.087720    4.137341   -0.419900
     82          1           0        2.040022    7.565666    0.220651
     83          1           0        2.195064    7.592651   -1.633681
     84          1           0        2.991730    8.610779   -0.701463
     85          1           0        8.621663    4.476865    0.715213
     86          1           0        9.751931    2.556566   -1.176330
     87          1           0        8.088794    5.313571   -1.985295
     88          1           0        9.711429    4.560037   -1.821316
     89          1           0        9.365845    5.980625   -0.935018
     90          1           0       10.628100    3.620837    1.023648
     91          1           0       11.023475    1.915169    0.849162
     92          1           0        8.580621    2.238214    2.434064
     93          1           0        9.892696    3.312749    3.002325
     94          1           0       10.126278    1.537446    2.881082
     95          1           0        9.126075   -3.984427    0.083123
     96          1           0       10.028258   -2.540647    0.652579
     97          1           0        9.703093   -2.676725   -1.059127
     98          1           0        4.016044   -4.286269    1.212254
     99          1           0        4.133071   -6.011216   -2.797541
    100          1           0        2.437873   -5.943844   -2.239500
    101          1           0        3.435537   -7.379939   -1.886006
    102          1           0       -2.473138   -5.265799   -0.522813
    103          1           0       -1.561661   -4.040676   -1.464086
    104          1           0       -3.290240   -2.476012    0.185103
    105          1           0       -3.498964   -5.069258   -2.445932
    106          1           0       -4.594227   -4.155709   -3.400005
    107          1           0       -5.201635   -5.202687   -2.003793
    108          1           0       -6.255366   -2.783305   -1.912728
    109          1           0       -5.168682   -1.412297   -1.560587
    110          1           0       -5.311938   -2.441710    1.012565
    111          1           0       -6.878470   -2.869956    0.253902
    112          1           0       -6.720903   -0.335851   -0.687799
    113          1           0       -5.784426   -0.042496    0.667228
    114          1           0       -8.314492   -1.474156    1.314653
    115          1           0       -7.241204   -1.351164    3.250539
    116          1           0       -7.906279    0.222817    3.316900
    117          1           0       -6.206541   -0.010406    2.877323
    118          1           0       -8.310602    1.272225    0.107547
    119          1           0       -9.175234    1.217338    1.638083
    120          1           0       -9.809525   -0.967678   -0.314210
    121          1           0      -10.280359    0.773538   -0.560912
    122          1           0      -10.664707   -0.759037    2.058874
    123          1           0      -11.689466   -1.005948    0.655408
    124          1           0      -11.361135    1.804823    1.080124
    125          1           0      -11.783288    2.350978    3.088847
    126          1           0      -10.906562    0.894079    3.527916
    127          1           0      -12.775314    1.134034    3.602082
    128          1           0      -13.953150    1.377313    1.711317
    129          1           0      -13.629547   -0.134599    0.940585
    130          1           0      -12.626323    1.159137   -0.964886
    131          1           0      -12.932385    2.630646   -0.220497
    132          1           0      -15.363524    0.637357   -0.461089
    133          1           0      -14.566645    0.866144   -1.947079
    134          1           0      -15.163850    3.308117   -0.370245
    135          1           0      -17.465153    2.072171   -1.937570
    136          1           0      -17.477010    3.405329   -0.759559
    137          1           0      -17.242169    1.684642   -0.265455
    138          1           0      -16.135124    3.491317   -3.163462
    139          1           0      -14.565277    2.699183   -3.181945
    140          1           0      -14.770063    4.260519   -2.269984
 ---------------------------------------------------------------------

 SCF Done:  E(RB-LYP) =  -3007.35506418     A.U. after   21 cycles

 Excitation energies and oscillator strengths:

 Excited State   1:      Singlet-A      1.8383 eV  674.45 nm  f=0.3216  <S**2>=0.000
     244 -> 247        0.14407
     245 -> 248       -0.17684
     246 -> 247        0.67707
     246 <- 247       -0.14854
 This state for optimization and/or second-order correction.
 Total Energy, E(TD-HF/TD-DFT) =  -3007.28750808
 Copying the excited state density for this state as the 1-particle RhoCI density.

 Excited State   2:      Singlet-A      1.9791 eV  626.45 nm  f=0.0244  <S**2>=0.000
     244 -> 247        0.68018
     245 -> 247       -0.11086
     246 -> 247       -0.14653

 Excited State   3:      Singlet-A      2.0614 eV  601.44 nm  f=0.0750  <S**2>=0.000
     244 -> 247        0.12324
     245 -> 247        0.63848
     246 -> 248        0.23232

 Excited State   4:      Singlet-A      2.3010 eV  538.83 nm  f=0.0030  <S**2>=0.000
     243 -> 247        0.69964

 Excited State   5:      Singlet-A      2.3354 eV  530.90 nm  f=0.0000  <S**2>=0.000
     242 -> 247        0.70706

 The electronic state is 1-A.
 Alpha  occ. eigenvalues --  -46.26798 -18.82442 -18.80695 -18.77101 -18.76435
 Alpha  occ. eigenvalues --  -18.75356 -18.74238 -14.02800 -14.02176 -14.00933
 Alpha  occ. eigenvalues --  -14.00302 -10.04299 -10.01848 -10.00551  -9.99093
 Alpha  occ. eigenvalues --   -9.98553  -9.96305  -9.96264  -9.95679  -9.95647
 Alpha  occ. eigenvalues --   -9.95335  -9.95242  -9.95112  -9.94999  -9.94210
 Alpha  occ. eigenvalues --   -9.94104  -9.93922  -9.93845  -9.93730  -9.93680
 Alpha  occ. eigenvalues --   -9.93262  -9.93257  -9.93169  -9.93015  -9.92971
 Alpha  occ. eigenvalues --   -9.92945  -9.92865  -9.92803  -9.92668  -9.92642
 Alpha  occ. eigenvalues --   -9.92589  -9.92586  -9.92516  -9.92478  -9.92087
 Alpha  occ. eigenvalues --   -9.92004  -9.91999  -9.91983  -9.91967  -9.91835
 Alpha  occ. eigenvalues --   -9.91742  -9.91597  -9.91581  -9.91194  -9.91184
 Alpha  occ. eigenvalues --   -9.91150  -9.90934  -9.90865  -9.90824  -9.90779
 Alpha  occ. eigenvalues --   -9.90768  -9.90674  -9.90551  -9.90539  -9.90469
 Alpha  occ. eigenvalues --   -9.90217  -2.91454  -1.71854  -1.71344  -1.71173
 Alpha  occ. eigenvalues --   -0.99461  -0.97199  -0.93975  -0.91236  -0.88924
 Alpha  occ. eigenvalues --   -0.88836  -0.86301  -0.85538  -0.85135  -0.83823
 Alpha  occ. eigenvalues --   -0.75453  -0.74122  -0.73577  -0.72752  -0.72093
 Alpha  occ. eigenvalues --   -0.72077  -0.71210  -0.70976  -0.70400  -0.69867
 Alpha  occ. eigenvalues --   -0.69311  -0.68813  -0.68478  -0.67423  -0.67126
 Alpha  occ. eigenvalues --   -0.66718  -0.66607  -0.65437  -0.65095  -0.64620
 Alpha  occ. eigenvalues --   -0.64268  -0.62242  -0.62116  -0.61433  -0.60297
 Alpha  occ. eigenvalues --   -0.60075  -0.59940  -0.59854  -0.59589  -0.58932
 Alpha  occ. eigenvalues --   -0.58160  -0.57573  -0.56318  -0.55707  -0.54601
 Alpha  occ. eigenvalues --   -0.53710  -0.53384  -0.52730  -0.52141  -0.51454
 Alpha  occ. eigenvalues --   -0.51020  -0.50785  -0.50673  -0.50430  -0.49899
 Alpha  occ. eigenvalues --   -0.49522  -0.49473  -0.48279  -0.47691  -0.46976
 Alpha  occ. eigenvalues --   -0.45998  -0.45693  -0.45117  -0.44627  -0.44465
 Alpha  occ. eigenvalues --   -0.43841  -0.43074  -0.42875  -0.42598  -0.42320
 Alpha  occ. eigenvalues --   -0.41884  -0.41763  -0.41598  -0.41466  -0.41058
 Alpha  occ. eigenvalues --   -0.40972  -0.40621  -0.40456  -0.40163  -0.39973
 Alpha  occ. eigenvalues --   -0.39904  -0.39766  -0.39420  -0.39295  -0.39064
 Alpha  occ. eigenvalues --   -0.38833  -0.38663  -0.38313  -0.38099  -0.37981
 Alpha  occ. eigenvalues --   -0.37756  -0.37709  -0.37407  -0.37306  -0.37177
 Alpha  occ. eigenvalues --   -0.36954  -0.36924  -0.36884  -0.36705  -0.36402
 Alpha  occ. eigenvalues --   -0.36001  -0.35876  -0.35652  -0.35602  -0.35558
 Alpha  occ. eigenvalues --   -0.35463  -0.35339  -0.35225  -0.35031  -0.34676
 Alpha  occ. eigenvalues --   -0.34511  -0.34203  -0.34141  -0.34018  -0.33986
 Alpha  occ. eigenvalues --   -0.33633  -0.33610  -0.33339  -0.33016  -0.32977
 Alpha  occ. eigenvalues --   -0.32779  -0.32702  -0.32497  -0.32326  -0.32159
 Alpha  occ. eigenvalues --   -0.31856  -0.31804  -0.31680  -0.31544  -0.31384
 Alpha  occ. eigenvalues --   -0.31105  -0.31057  -0.31002  -0.30725  -0.30464
 Alpha  occ. eigenvalues --   -0.30296  -0.30198  -0.30160  -0.29712  -0.29636
 Alpha  occ. eigenvalues --   -0.29452  -0.29339  -0.29231  -0.29113  -0.28835
 Alpha  occ. eigenvalues --   -0.28293  -0.28120  -0.28049  -0.27979  -0.27685
 Alpha  occ. eigenvalues --   -0.27289  -0.27075  -0.26807  -0.26502  -0.26236
 Alpha  occ. eigenvalues --   -0.26091  -0.25881  -0.25711  -0.25539  -0.25397
 Alpha  occ. eigenvalues --   -0.24544  -0.24274  -0.23828  -0.23740  -0.23299
 Alpha  occ. eigenvalues --   -0.22750  -0.22053  -0.21770  -0.20672  -0.20226
 Alpha  occ. eigenvalues --   -0.20026  -0.19675  -0.19439  -0.18228  -0.16947
 Alpha  occ. eigenvalues --   -0.15417
 Alpha virt. eigenvalues --   -0.11093  -0.06057  -0.05786  -0.04403  -0.03596
 Alpha virt. eigenvalues --   -0.02976  -0.02419  -0.00820   0.00039   0.01000
 Alpha virt. eigenvalues --    0.02124   0.02274   0.02594   0.02774   0.02891

 Mulliken charges:
               1
     1  Mg   0.690503
     2  C    0.115435
     3  C   -0.065265
     4  C   -0.075340
     5  C   -0.069363
     6  N   -0.221829
     7  C   -0.137127
     8  C    0.013038
     9  C    0.030768
    10  C    0.040812
    11  C    0.129549
    12  C    0.088967
    13  C    0.176310
    14  C    0.077098
    15  O   -0.203880
    16  O   -0.296024
    17  N   -0.299066
    18  C    0.145766
    19  C   -0.147952
    20  C   -0.013821
    21  C    0.144879
    22  C    0.158265
    23  C   -0.032726
    24  O   -0.123230
    25  C    0.141022
    26  N   -0.204052
    27  C    0.015770
    28  C   -0.018432
    29  C    0.033512
    30  C    0.028600
    31  C    0.137083
    32  C    0.066983
    33  C    0.086539
    34  N   -0.240232
    35  C    0.085170
    36  C   -0.191381
    37  C    0.072889
    38  C    0.036107
    39  C    0.168671
    40  C   -0.065379
    41  O   -0.121422
    42  C    0.047338
    43  C    0.066871
    44  O   -0.203573
    45  O   -0.191634
    46  C    0.237538
    47  C    0.316725
    48  C   -0.103033
    49  C   -0.211269
    50  C    0.135817
    51  C    0.148336
    52  C    0.082194
    53  C    0.078236
    54  C   -0.064231
    55  C    0.086681
    56  C    0.110476
    57  C    0.043957
    58  C    0.154734
    59  C   -0.091054
    60  C    0.124119
    61  C    0.093485
    62  C    0.036568
    63  C    0.146893
    64  C   -0.104754
    65  C    0.091457
    66  C    0.121719
    67  H   -0.067985
    68  H   -0.052167
    69  H   -0.064831
    70  H    0.013761
    71  H   -0.030505
    72  H   -0.002013
    73  H   -0.005457
    74  H   -0.000090
    75  H   -0.032180
    76  H   -0.024592
    77  H   -0.004885
    78  H   -0.000744
    79  H    0.006799
    80  H   -0.002057
    81  H   -0.011709
    82  H    0.001315
    83  H    0.031116
    84  H   -0.030176
    85  H   -0.024052
    86  H   -0.025260
    87  H    0.004972
    88  H   -0.024245
    89  H   -0.010159
    90  H   -0.024048
    91  H   -0.018986
    92  H   -0.000210
    93  H   -0.005274
    94  H   -0.004993
    95  H    0.018270
    96  H   -0.002968
    97  H    0.004564
    98  H   -0.008153
    99  H   -0.001545
   100  H    0.013221
   101  H    0.002045
   102  H    0.020301
   103  H    0.033311
   104  H   -0.032922
   105  H   -0.023937
   106  H    0.009462
   107  H    0.009343
   108  H   -0.031836
   109  H   -0.007654
   110  H   -0.004907
   111  H   -0.030172
   112  H   -0.036972
   113  H   -0.035581
   114  H   -0.035022
   115  H   -0.023460
   116  H   -0.024096
   117  H   -0.016333
   118  H   -0.044488
   119  H   -0.039250
   120  H   -0.034597
   121  H   -0.028510
   122  H   -0.044818
   123  H   -0.047503
   124  H   -0.037181
   125  H   -0.036200
   126  H   -0.010663
   127  H   -0.013637
   128  H   -0.049986
   129  H   -0.031438
   130  H   -0.044304
   131  H   -0.027893
   132  H   -0.039723
   133  H   -0.044707
   134  H   -0.028064
   135  H   -0.020549
   136  H   -0.015909
   137  H   -0.021825
   138  H   -0.012690
   139  H   -0.014142
   140  H   -0.009036
 Sum of Mulliken charges =  -0.00000

 Dipole moment (field-independent basis, Debye):
    X=             -4.2683    Y=              3.3645    Z=              1.7278  Tot=              5.7030
 Quadrupole moment (field-independent basis, Debye-Ang):
   XX=           -390.4274   YY=           -423.9766   ZZ=           -402.6475
   XY=             22.5418   XZ=             15.4335   YZ=              3.6935

 Normal termination of Gaussian 16 at Thu May  5 03:38:22 2022.
