 Gaussian 16, Revision A.03,
 Gaussian 16:  ES64L-G16RevA.03 25-Dec-2016

 -----------------------------------
 #p cam-b3lyp/Def2SVP td=(nstates=5)
 -----------------------------------

 -------------------------------------------------------
 step_551_chromophore_18 TDDFT with cam-b3lyp functional
 -------------------------------------------------------
 Symbolic Z-matrix:
 Charge =  0 Multiplicity = 1

                         Standard orientation:
 ---------------------------------------------------------------------
 Center     Atomic      Atomic             Coordinates (Angstroms)
 Number     Number       Type             X           Y           Z
 ---------------------------------------------------------------------
      1         12           0        5.141942    1.178314    0.317603
      2          6           0        4.329688   -2.274698    0.325400
      3          6           0        1.756422    1.892936    0.016954
      4          6           0        5.897767    4.359310   -0.137445
      5          6           0        8.480922    0.291604   -0.323570
      6          7           0        3.275965   -0.099480    0.166945
      7          6           0        3.190208   -1.465994    0.255184
      8          6           0        1.732195   -1.949289    0.438845
      9          6           0        0.961393   -0.593321    0.229485
     10          6           0        2.033788    0.545169    0.134424
     11          6           0       -0.030708   -0.563849   -0.949016
     12          6           0        1.476687   -2.709321    1.807536
     13          6           0        0.846827   -4.101955    1.819407
     14          6           0        0.096494   -4.482210    0.595471
     15          8           0        0.454533   -5.178114   -0.360568
     16          8           0       -1.202108   -4.063705    0.734358
     17          7           0        4.043403    2.885821    0.136938
     18          6           0        2.650767    2.984990   -0.052784
     19          6           0        2.302696    4.401903   -0.164217
     20          6           0        3.520434    5.133791   -0.181436
     21          6           0        4.549258    4.096304   -0.073500
     22          6           0        0.843623    4.912395   -0.297153
     23          6           0        3.788447    6.717483   -0.408115
     24          8           0        4.880777    7.188190   -0.525752
     25          6           0        2.683568    7.565849   -0.658750
     26          7           0        6.904273    2.180308   -0.369255
     27          6           0        6.949579    3.495474   -0.274209
     28          6           0        8.385319    4.028506   -0.249959
     29          6           0        9.246888    2.671819   -0.217610
     30          6           0        8.153911    1.608216   -0.302707
     31          6           0        8.899049    5.065734   -1.299016
     32          6           0       10.211396    2.614362    1.046217
     33          6           0        9.657460    2.413655    2.432287
     34          7           0        6.212699   -0.606027    0.118153
     35          6           0        7.542393   -0.803509   -0.155183
     36          6           0        7.910886   -2.194922    0.001079
     37          6           0        6.649708   -2.818070    0.131867
     38          6           0        5.647961   -1.818508    0.251866
     39          6           0        9.309453   -2.921374   -0.072416
     40          6           0        5.995234   -4.100916    0.365266
     41          8           0        6.409968   -5.210717    0.644112
     42          6           0        4.476547   -3.774740    0.367144
     43          6           0        4.065219   -4.391724   -0.880063
     44          8           0        3.840458   -3.774027   -1.899975
     45          8           0        3.907048   -5.685865   -0.816246
     46          6           0        3.442252   -6.296006   -2.003751
     47          6           0       -2.067961   -4.254701   -0.522151
     48          6           0       -3.231974   -3.332709   -0.486206
     49          6           0       -4.323420   -3.437274   -1.315987
     50          6           0       -4.440078   -4.522823   -2.385672
     51          6           0       -5.486258   -2.404331   -1.239430
     52          6           0       -6.004096   -2.220318    0.200668
     53          6           0       -6.525895   -0.752600    0.300040
     54          6           0       -7.738991   -0.548761    1.268253
     55          6           0       -7.218170   -0.389877    2.734781
     56          6           0       -8.782356    0.603584    0.827476
     57          6           0      -10.008545   -0.003455    0.153648
     58          6           0      -11.066399   -0.273555    1.169721
     59          6           0      -11.843933    0.949628    1.553514
     60          6           0      -11.828241    1.261716    3.078189
     61          6           0      -13.267683    0.890411    1.017710
     62          6           0      -13.380526    1.644218   -0.344019
     63          6           0      -14.765159    1.371009   -1.001147
     64          6           0      -15.495087    2.673170   -1.191871
     65          6           0      -17.023919    2.447513   -1.013358
     66          6           0      -15.228637    3.322870   -2.582286
     67          1           0        0.695773    2.152676    0.026067
     68          1           0        6.247095    5.391480   -0.195244
     69          1           0        9.533449    0.008590   -0.257142
     70          1           0        1.659768   -2.686398   -0.361658
     71          1           0        0.488541   -0.490964    1.205883
     72          1           0       -1.020478   -0.541842   -0.494436
     73          1           0        0.191423   -1.504632   -1.453115
     74          1           0        0.034140    0.195729   -1.727999
     75          1           0        0.952347   -2.116154    2.555764
     76          1           0        2.393548   -2.847206    2.380631
     77          1           0        0.196217   -4.148824    2.693963
     78          1           0        1.670261   -4.796086    1.986132
     79          1           0        0.875583    5.663173   -1.087044
     80          1           0        0.510060    5.414952    0.610339
     81          1           0        0.087720    4.137341   -0.419900
     82          1           0        2.040022    7.565666    0.220651
     83          1           0        2.195064    7.592651   -1.633681
     84          1           0        2.991730    8.610779   -0.701463
     85          1           0        8.621663    4.476865    0.715213
     86          1           0        9.751931    2.556566   -1.176330
     87          1           0        8.088794    5.313571   -1.985295
     88          1           0        9.711429    4.560037   -1.821316
     89          1           0        9.365845    5.980625   -0.935018
     90          1           0       10.628100    3.620837    1.023648
     91          1           0       11.023475    1.915169    0.849162
     92          1           0        8.580621    2.238214    2.434064
     93          1           0        9.892696    3.312749    3.002325
     94          1           0       10.126278    1.537446    2.881082
     95          1           0        9.126075   -3.984427    0.083123
     96          1           0       10.028258   -2.540647    0.652579
     97          1           0        9.703093   -2.676725   -1.059127
     98          1           0        4.016044   -4.286269    1.212254
     99          1           0        4.133071   -6.011216   -2.797541
    100          1           0        2.437873   -5.943844   -2.239500
    101          1           0        3.435537   -7.379939   -1.886006
    102          1           0       -2.473138   -5.265799   -0.522813
    103          1           0       -1.561661   -4.040676   -1.464086
    104          1           0       -3.290240   -2.476012    0.185103
    105          1           0       -3.498964   -5.069258   -2.445932
    106          1           0       -4.594227   -4.155709   -3.400005
    107          1           0       -5.201635   -5.202687   -2.003793
    108          1           0       -6.255366   -2.783305   -1.912728
    109          1           0       -5.168682   -1.412297   -1.560587
    110          1           0       -5.311938   -2.441710    1.012565
    111          1           0       -6.878470   -2.869956    0.253902
    112          1           0       -6.720903   -0.335851   -0.687799
    113          1           0       -5.784426   -0.042496    0.667228
    114          1           0       -8.314492   -1.474156    1.314653
    115          1           0       -7.241204   -1.351164    3.250539
    116          1           0       -7.906279    0.222817    3.316900
    117          1           0       -6.206541   -0.010406    2.877323
    118          1           0       -8.310602    1.272225    0.107547
    119          1           0       -9.175234    1.217338    1.638083
    120          1           0       -9.809525   -0.967678   -0.314210
    121          1           0      -10.280359    0.773538   -0.560912
    122          1           0      -10.664707   -0.759037    2.058874
    123          1           0      -11.689466   -1.005948    0.655408
    124          1           0      -11.361135    1.804823    1.080124
    125          1           0      -11.783288    2.350978    3.088847
    126          1           0      -10.906562    0.894079    3.527916
    127          1           0      -12.775314    1.134034    3.602082
    128          1           0      -13.953150    1.377313    1.711317
    129          1           0      -13.629547   -0.134599    0.940585
    130          1           0      -12.626323    1.159137   -0.964886
    131          1           0      -12.932385    2.630646   -0.220497
    132          1           0      -15.363524    0.637357   -0.461089
    133          1           0      -14.566645    0.866144   -1.947079
    134          1           0      -15.163850    3.308117   -0.370245
    135          1           0      -17.465153    2.072171   -1.937570
    136          1           0      -17.477010    3.405329   -0.759559
    137          1           0      -17.242169    1.684642   -0.265455
    138          1           0      -16.135124    3.491317   -3.163462
    139          1           0      -14.565277    2.699183   -3.181945
    140          1           0      -14.770063    4.260519   -2.269984
 ---------------------------------------------------------------------

 SCF Done:  E(RCAM-B3LYP) =  -3007.16035186     A.U. after   17 cycles

 Excitation energies and oscillator strengths:

 Excited State   1:      Singlet-A      1.7340 eV  715.04 nm  f=0.4095  <S**2>=0.000
     245 -> 248        0.17666
     246 -> 247        0.68672
     245 <- 248        0.10722
 This state for optimization and/or second-order correction.
 Total Energy, E(TD-HF/TD-DFT) =  -3007.09663034
 Copying the excited state density for this state as the 1-particle RhoCI density.

 Excited State   2:      Singlet-A      2.2794 eV  543.92 nm  f=0.1232  <S**2>=0.000
     245 -> 247        0.64465
     246 -> 248       -0.27794

 Excited State   3:      Singlet-A      3.4284 eV  361.64 nm  f=0.0020  <S**2>=0.000
     242 -> 247       -0.16505
     242 -> 249        0.12438
     242 -> 251        0.10023
     244 -> 247        0.63247
     246 -> 248        0.12363

 Excited State   4:      Singlet-A      3.5452 eV  349.72 nm  f=0.0030  <S**2>=0.000
     241 -> 247       -0.13230
     242 -> 247        0.55444
     242 -> 249       -0.23306
     242 -> 251       -0.14649
     244 -> 247        0.21042

 Excited State   5:      Singlet-A      3.5830 eV  346.04 nm  f=0.2176  <S**2>=0.000
     240 -> 247        0.13038
     241 -> 247        0.50243
     245 -> 247        0.14534
     246 -> 248        0.43369

 The electronic state is 1-A.
 Alpha  occ. eigenvalues --  -46.88337 -19.25308 -19.23536 -19.20051 -19.19852
 Alpha  occ. eigenvalues --  -19.18431 -19.17182 -14.41801 -14.40848 -14.39508
 Alpha  occ. eigenvalues --  -14.38586 -10.39566 -10.37029 -10.35919 -10.34300
 Alpha  occ. eigenvalues --  -10.32699 -10.30924 -10.30609 -10.30293 -10.29861
 Alpha  occ. eigenvalues --  -10.29597 -10.29427 -10.29407 -10.29121 -10.29022
 Alpha  occ. eigenvalues --  -10.28289 -10.27960 -10.27768 -10.27707 -10.27629
 Alpha  occ. eigenvalues --  -10.27428 -10.27426 -10.27396 -10.27394 -10.27241
 Alpha  occ. eigenvalues --  -10.27119 -10.27034 -10.26909 -10.26886 -10.26333
 Alpha  occ. eigenvalues --  -10.26328 -10.26291 -10.26237 -10.26206 -10.26065
 Alpha  occ. eigenvalues --  -10.25991 -10.25834 -10.25797 -10.25707 -10.25420
 Alpha  occ. eigenvalues --  -10.25327 -10.25320 -10.25285 -10.24943 -10.24902
 Alpha  occ. eigenvalues --  -10.24848 -10.24520 -10.24519 -10.24463 -10.24459
 Alpha  occ. eigenvalues --  -10.24447 -10.24444 -10.24380 -10.24310 -10.24153
 Alpha  occ. eigenvalues --  -10.23824  -3.16895  -1.91771  -1.91345  -1.91209
 Alpha  occ. eigenvalues --   -1.18004  -1.15603  -1.12658  -1.09538  -1.06728
 Alpha  occ. eigenvalues --   -1.06681  -1.04004  -1.03075  -1.02764  -1.01379
 Alpha  occ. eigenvalues --   -0.92544  -0.91042  -0.90447  -0.89518  -0.88840
 Alpha  occ. eigenvalues --   -0.88810  -0.87809  -0.87585  -0.86957  -0.86687
 Alpha  occ. eigenvalues --   -0.85752  -0.85141  -0.84779  -0.83632  -0.83380
 Alpha  occ. eigenvalues --   -0.82911  -0.82657  -0.81297  -0.80948  -0.80518
 Alpha  occ. eigenvalues --   -0.80062  -0.78095  -0.77694  -0.76856  -0.75632
 Alpha  occ. eigenvalues --   -0.75422  -0.75300  -0.75200  -0.74856  -0.74192
 Alpha  occ. eigenvalues --   -0.73190  -0.72557  -0.71213  -0.70509  -0.69180
 Alpha  occ. eigenvalues --   -0.68296  -0.67975  -0.67169  -0.66557  -0.65751
 Alpha  occ. eigenvalues --   -0.65283  -0.64830  -0.64795  -0.64415  -0.63773
 Alpha  occ. eigenvalues --   -0.63492  -0.63231  -0.62131  -0.61352  -0.60743
 Alpha  occ. eigenvalues --   -0.59547  -0.59238  -0.58659  -0.58280  -0.57718
 Alpha  occ. eigenvalues --   -0.57402  -0.56277  -0.56134  -0.55867  -0.55509
 Alpha  occ. eigenvalues --   -0.55036  -0.54773  -0.54442  -0.54352  -0.54001
 Alpha  occ. eigenvalues --   -0.53779  -0.53404  -0.53335  -0.53043  -0.52971
 Alpha  occ. eigenvalues --   -0.52582  -0.52357  -0.52286  -0.51797  -0.51557
 Alpha  occ. eigenvalues --   -0.51450  -0.51145  -0.51002  -0.50700  -0.50369
 Alpha  occ. eigenvalues --   -0.50309  -0.50194  -0.49972  -0.49749  -0.49623
 Alpha  occ. eigenvalues --   -0.49241  -0.49116  -0.48991  -0.48829  -0.48736
 Alpha  occ. eigenvalues --   -0.48578  -0.48223  -0.47940  -0.47760  -0.47614
 Alpha  occ. eigenvalues --   -0.47602  -0.47425  -0.47262  -0.47216  -0.46475
 Alpha  occ. eigenvalues --   -0.46373  -0.46056  -0.45944  -0.45855  -0.45741
 Alpha  occ. eigenvalues --   -0.45424  -0.45288  -0.45051  -0.44752  -0.44556
 Alpha  occ. eigenvalues --   -0.44494  -0.44424  -0.44165  -0.44032  -0.43872
 Alpha  occ. eigenvalues --   -0.43534  -0.43373  -0.43341  -0.43110  -0.42852
 Alpha  occ. eigenvalues --   -0.42751  -0.42497  -0.42380  -0.42193  -0.42059
 Alpha  occ. eigenvalues --   -0.41826  -0.41503  -0.41420  -0.41000  -0.40929
 Alpha  occ. eigenvalues --   -0.40568  -0.40539  -0.40371  -0.40240  -0.40183
 Alpha  occ. eigenvalues --   -0.39954  -0.39274  -0.39118  -0.39015  -0.38579
 Alpha  occ. eigenvalues --   -0.38331  -0.37942  -0.37772  -0.37370  -0.37316
 Alpha  occ. eigenvalues --   -0.37187  -0.36724  -0.36430  -0.36219  -0.36036
 Alpha  occ. eigenvalues --   -0.35353  -0.35142  -0.35066  -0.34274  -0.34155
 Alpha  occ. eigenvalues --   -0.33559  -0.32787  -0.32587  -0.31790  -0.31080
 Alpha  occ. eigenvalues --   -0.30270  -0.30045  -0.29296  -0.29184  -0.23734
 Alpha  occ. eigenvalues --   -0.20728
 Alpha virt. eigenvalues --   -0.08214  -0.00787   0.00887   0.01813   0.02725
 Alpha virt. eigenvalues --    0.04180   0.04921   0.06507   0.07598   0.07971
 Alpha virt. eigenvalues --    0.08247   0.08808   0.08982   0.09122   0.09537

 Mulliken charges:
               1
     1  Mg   0.821842
     2  C    0.082230
     3  C   -0.079458
     4  C   -0.096508
     5  C   -0.072269
     6  N   -0.289441
     7  C   -0.077244
     8  C   -0.040908
     9  C   -0.019393
    10  C    0.058366
    11  C    0.069683
    12  C    0.035785
    13  C    0.104145
    14  C    0.153381
    15  O   -0.245695
    16  O   -0.359399
    17  N   -0.388183
    18  C    0.152917
    19  C   -0.155854
    20  C   -0.074177
    21  C    0.168312
    22  C    0.107667
    23  C    0.053772
    24  O   -0.161536
    25  C    0.042202
    26  N   -0.279227
    27  C    0.041273
    28  C   -0.074135
    29  C   -0.017906
    30  C    0.042513
    31  C    0.077685
    32  C    0.012856
    33  C    0.023545
    34  N   -0.329405
    35  C    0.088446
    36  C   -0.187079
    37  C   -0.001254
    38  C    0.071553
    39  C    0.120938
    40  C    0.025657
    41  O   -0.159192
    42  C   -0.032674
    43  C    0.154671
    44  O   -0.239774
    45  O   -0.251193
    46  C    0.192336
    47  C    0.285831
    48  C   -0.121974
    49  C   -0.231637
    50  C    0.072211
    51  C    0.094058
    52  C    0.025100
    53  C    0.025867
    54  C   -0.118250
    55  C    0.033268
    56  C    0.060145
    57  C   -0.011718
    58  C    0.095051
    59  C   -0.152008
    60  C    0.067222
    61  C    0.046163
    62  C   -0.017400
    63  C    0.089372
    64  C   -0.164459
    65  C    0.034193
    66  C    0.060614
    67  H   -0.031785
    68  H   -0.011556
    69  H   -0.029990
    70  H    0.043918
    71  H    0.004642
    72  H    0.019910
    73  H    0.017667
    74  H    0.026453
    75  H   -0.000011
    76  H    0.008040
    77  H    0.031633
    78  H    0.029771
    79  H    0.031318
    80  H    0.025464
    81  H    0.016210
    82  H    0.030293
    83  H    0.061021
    84  H    0.008861
    85  H    0.010448
    86  H    0.010370
    87  H    0.029373
    88  H    0.000887
    89  H    0.015478
    90  H    0.002953
    91  H    0.008501
    92  H    0.020571
    93  H    0.017745
    94  H    0.019315
    95  H    0.044166
    96  H    0.020611
    97  H    0.028182
    98  H    0.033380
    99  H    0.023833
   100  H    0.036906
   101  H    0.026698
   102  H    0.046608
   103  H    0.059662
   104  H    0.000317
   105  H    0.000777
   106  H    0.033984
   107  H    0.033323
   108  H   -0.001251
   109  H    0.021009
   110  H    0.022417
   111  H   -0.000906
   112  H   -0.008153
   113  H   -0.008426
   114  H   -0.005695
   115  H    0.001232
   116  H   -0.001380
   117  H    0.006809
   118  H   -0.014641
   119  H   -0.012911
   120  H   -0.005729
   121  H   -0.000534
   122  H   -0.014716
   123  H   -0.015754
   124  H   -0.006748
   125  H   -0.010474
   126  H    0.010298
   127  H    0.011950
   128  H   -0.021116
   129  H   -0.003298
   130  H   -0.016923
   131  H   -0.000084
   132  H   -0.009605
   133  H   -0.014312
   134  H    0.002638
   135  H    0.002628
   136  H    0.008982
   137  H    0.002077
   138  H    0.011894
   139  H    0.009418
   140  H    0.013837
 Sum of Mulliken charges =  -0.00000

 Dipole moment (field-independent basis, Debye):
    X=             -4.8775    Y=              4.1617    Z=              1.8135  Tot=              6.6632
 Quadrupole moment (field-independent basis, Debye-Ang):
   XX=           -392.2236   YY=           -419.6189   ZZ=           -402.4155
   XY=             24.5938   XZ=             15.8047   YZ=              3.4957

 Normal termination of Gaussian 16 at Thu May  5 02:38:31 2022.
