 Gaussian 16, Revision A.03,
 Gaussian 16:  ES64L-G16RevA.03 25-Dec-2016

 ---------------------------------
 #p PBE1PBE/Def2SVP td=(nstates=5)
 ---------------------------------

 -----------------------------------------------------
 step_551_chromophore_18 TDDFT with PBE1PBE functional
 -----------------------------------------------------
 Symbolic Z-matrix:
 Charge =  0 Multiplicity = 1

                         Standard orientation:
 ---------------------------------------------------------------------
 Center     Atomic      Atomic             Coordinates (Angstroms)
 Number     Number       Type             X           Y           Z
 ---------------------------------------------------------------------
      1         12           0        5.141942    1.178314    0.317603
      2          6           0        4.329688   -2.274698    0.325400
      3          6           0        1.756422    1.892936    0.016954
      4          6           0        5.897767    4.359310   -0.137445
      5          6           0        8.480922    0.291604   -0.323570
      6          7           0        3.275965   -0.099480    0.166945
      7          6           0        3.190208   -1.465994    0.255184
      8          6           0        1.732195   -1.949289    0.438845
      9          6           0        0.961393   -0.593321    0.229485
     10          6           0        2.033788    0.545169    0.134424
     11          6           0       -0.030708   -0.563849   -0.949016
     12          6           0        1.476687   -2.709321    1.807536
     13          6           0        0.846827   -4.101955    1.819407
     14          6           0        0.096494   -4.482210    0.595471
     15          8           0        0.454533   -5.178114   -0.360568
     16          8           0       -1.202108   -4.063705    0.734358
     17          7           0        4.043403    2.885821    0.136938
     18          6           0        2.650767    2.984990   -0.052784
     19          6           0        2.302696    4.401903   -0.164217
     20          6           0        3.520434    5.133791   -0.181436
     21          6           0        4.549258    4.096304   -0.073500
     22          6           0        0.843623    4.912395   -0.297153
     23          6           0        3.788447    6.717483   -0.408115
     24          8           0        4.880777    7.188190   -0.525752
     25          6           0        2.683568    7.565849   -0.658750
     26          7           0        6.904273    2.180308   -0.369255
     27          6           0        6.949579    3.495474   -0.274209
     28          6           0        8.385319    4.028506   -0.249959
     29          6           0        9.246888    2.671819   -0.217610
     30          6           0        8.153911    1.608216   -0.302707
     31          6           0        8.899049    5.065734   -1.299016
     32          6           0       10.211396    2.614362    1.046217
     33          6           0        9.657460    2.413655    2.432287
     34          7           0        6.212699   -0.606027    0.118153
     35          6           0        7.542393   -0.803509   -0.155183
     36          6           0        7.910886   -2.194922    0.001079
     37          6           0        6.649708   -2.818070    0.131867
     38          6           0        5.647961   -1.818508    0.251866
     39          6           0        9.309453   -2.921374   -0.072416
     40          6           0        5.995234   -4.100916    0.365266
     41          8           0        6.409968   -5.210717    0.644112
     42          6           0        4.476547   -3.774740    0.367144
     43          6           0        4.065219   -4.391724   -0.880063
     44          8           0        3.840458   -3.774027   -1.899975
     45          8           0        3.907048   -5.685865   -0.816246
     46          6           0        3.442252   -6.296006   -2.003751
     47          6           0       -2.067961   -4.254701   -0.522151
     48          6           0       -3.231974   -3.332709   -0.486206
     49          6           0       -4.323420   -3.437274   -1.315987
     50          6           0       -4.440078   -4.522823   -2.385672
     51          6           0       -5.486258   -2.404331   -1.239430
     52          6           0       -6.004096   -2.220318    0.200668
     53          6           0       -6.525895   -0.752600    0.300040
     54          6           0       -7.738991   -0.548761    1.268253
     55          6           0       -7.218170   -0.389877    2.734781
     56          6           0       -8.782356    0.603584    0.827476
     57          6           0      -10.008545   -0.003455    0.153648
     58          6           0      -11.066399   -0.273555    1.169721
     59          6           0      -11.843933    0.949628    1.553514
     60          6           0      -11.828241    1.261716    3.078189
     61          6           0      -13.267683    0.890411    1.017710
     62          6           0      -13.380526    1.644218   -0.344019
     63          6           0      -14.765159    1.371009   -1.001147
     64          6           0      -15.495087    2.673170   -1.191871
     65          6           0      -17.023919    2.447513   -1.013358
     66          6           0      -15.228637    3.322870   -2.582286
     67          1           0        0.695773    2.152676    0.026067
     68          1           0        6.247095    5.391480   -0.195244
     69          1           0        9.533449    0.008590   -0.257142
     70          1           0        1.659768   -2.686398   -0.361658
     71          1           0        0.488541   -0.490964    1.205883
     72          1           0       -1.020478   -0.541842   -0.494436
     73          1           0        0.191423   -1.504632   -1.453115
     74          1           0        0.034140    0.195729   -1.727999
     75          1           0        0.952347   -2.116154    2.555764
     76          1           0        2.393548   -2.847206    2.380631
     77          1           0        0.196217   -4.148824    2.693963
     78          1           0        1.670261   -4.796086    1.986132
     79          1           0        0.875583    5.663173   -1.087044
     80          1           0        0.510060    5.414952    0.610339
     81          1           0        0.087720    4.137341   -0.419900
     82          1           0        2.040022    7.565666    0.220651
     83          1           0        2.195064    7.592651   -1.633681
     84          1           0        2.991730    8.610779   -0.701463
     85          1           0        8.621663    4.476865    0.715213
     86          1           0        9.751931    2.556566   -1.176330
     87          1           0        8.088794    5.313571   -1.985295
     88          1           0        9.711429    4.560037   -1.821316
     89          1           0        9.365845    5.980625   -0.935018
     90          1           0       10.628100    3.620837    1.023648
     91          1           0       11.023475    1.915169    0.849162
     92          1           0        8.580621    2.238214    2.434064
     93          1           0        9.892696    3.312749    3.002325
     94          1           0       10.126278    1.537446    2.881082
     95          1           0        9.126075   -3.984427    0.083123
     96          1           0       10.028258   -2.540647    0.652579
     97          1           0        9.703093   -2.676725   -1.059127
     98          1           0        4.016044   -4.286269    1.212254
     99          1           0        4.133071   -6.011216   -2.797541
    100          1           0        2.437873   -5.943844   -2.239500
    101          1           0        3.435537   -7.379939   -1.886006
    102          1           0       -2.473138   -5.265799   -0.522813
    103          1           0       -1.561661   -4.040676   -1.464086
    104          1           0       -3.290240   -2.476012    0.185103
    105          1           0       -3.498964   -5.069258   -2.445932
    106          1           0       -4.594227   -4.155709   -3.400005
    107          1           0       -5.201635   -5.202687   -2.003793
    108          1           0       -6.255366   -2.783305   -1.912728
    109          1           0       -5.168682   -1.412297   -1.560587
    110          1           0       -5.311938   -2.441710    1.012565
    111          1           0       -6.878470   -2.869956    0.253902
    112          1           0       -6.720903   -0.335851   -0.687799
    113          1           0       -5.784426   -0.042496    0.667228
    114          1           0       -8.314492   -1.474156    1.314653
    115          1           0       -7.241204   -1.351164    3.250539
    116          1           0       -7.906279    0.222817    3.316900
    117          1           0       -6.206541   -0.010406    2.877323
    118          1           0       -8.310602    1.272225    0.107547
    119          1           0       -9.175234    1.217338    1.638083
    120          1           0       -9.809525   -0.967678   -0.314210
    121          1           0      -10.280359    0.773538   -0.560912
    122          1           0      -10.664707   -0.759037    2.058874
    123          1           0      -11.689466   -1.005948    0.655408
    124          1           0      -11.361135    1.804823    1.080124
    125          1           0      -11.783288    2.350978    3.088847
    126          1           0      -10.906562    0.894079    3.527916
    127          1           0      -12.775314    1.134034    3.602082
    128          1           0      -13.953150    1.377313    1.711317
    129          1           0      -13.629547   -0.134599    0.940585
    130          1           0      -12.626323    1.159137   -0.964886
    131          1           0      -12.932385    2.630646   -0.220497
    132          1           0      -15.363524    0.637357   -0.461089
    133          1           0      -14.566645    0.866144   -1.947079
    134          1           0      -15.163850    3.308117   -0.370245
    135          1           0      -17.465153    2.072171   -1.937570
    136          1           0      -17.477010    3.405329   -0.759559
    137          1           0      -17.242169    1.684642   -0.265455
    138          1           0      -16.135124    3.491317   -3.163462
    139          1           0      -14.565277    2.699183   -3.181945
    140          1           0      -14.770063    4.260519   -2.269984
 ---------------------------------------------------------------------

 SCF Done:  E(RPBE1PBE) =  -3005.34825071     A.U. after   15 cycles

 Excitation energies and oscillator strengths:

 Excited State   1:      Singlet-A      1.8892 eV  656.27 nm  f=0.3999  <S**2>=0.000
     245 -> 248        0.17061
     246 -> 247        0.69389
     246 <- 247       -0.11041
 This state for optimization and/or second-order correction.
 Total Energy, E(TD-HF/TD-DFT) =  -3005.27882324
 Copying the excited state density for this state as the 1-particle RhoCI density.

 Excited State   2:      Singlet-A      2.2839 eV  542.86 nm  f=0.1162  <S**2>=0.000
     245 -> 247        0.65379
     246 -> 248       -0.25619

 Excited State   3:      Singlet-A      2.9698 eV  417.49 nm  f=0.0016  <S**2>=0.000
     242 -> 247        0.25251
     243 -> 247        0.63303
     243 -> 249       -0.10907

 Excited State   4:      Singlet-A      3.1472 eV  393.95 nm  f=0.0026  <S**2>=0.000
     242 -> 247        0.63122
     243 -> 247       -0.26579

 Excited State   5:      Singlet-A      3.2865 eV  377.26 nm  f=0.0060  <S**2>=0.000
     241 -> 247        0.66294
     246 -> 248        0.17901

 The electronic state is 1-A.
 Alpha  occ. eigenvalues --  -46.91733 -19.26002 -19.24132 -19.20332 -19.19930
 Alpha  occ. eigenvalues --  -19.18743 -19.17444 -14.41265 -14.40413 -14.39084
 Alpha  occ. eigenvalues --  -14.38312 -10.36609 -10.34006 -10.32914 -10.31540
 Alpha  occ. eigenvalues --  -10.30110 -10.28573 -10.28469 -10.27854 -10.27413
 Alpha  occ. eigenvalues --  -10.27236 -10.27052 -10.27034 -10.26650 -10.26521
 Alpha  occ. eigenvalues --  -10.26137 -10.25721 -10.25552 -10.25442 -10.25356
 Alpha  occ. eigenvalues --  -10.25129 -10.25083 -10.25003 -10.24900 -10.24794
 Alpha  occ. eigenvalues --  -10.24740 -10.24732 -10.24691 -10.24684 -10.24070
 Alpha  occ. eigenvalues --  -10.23909 -10.23848 -10.23756 -10.23718 -10.23582
 Alpha  occ. eigenvalues --  -10.23544 -10.23355 -10.23265 -10.23117 -10.22939
 Alpha  occ. eigenvalues --  -10.22909 -10.22892 -10.22742 -10.22600 -10.22515
 Alpha  occ. eigenvalues --  -10.22411 -10.22338 -10.22039 -10.22007 -10.21997
 Alpha  occ. eigenvalues --  -10.21917 -10.21900 -10.21876 -10.21836 -10.21543
 Alpha  occ. eigenvalues --  -10.21356  -3.13871  -1.86686  -1.86239  -1.86108
 Alpha  occ. eigenvalues --   -1.12814  -1.10395  -1.07297  -1.04364  -1.01548
 Alpha  occ. eigenvalues --   -1.01532  -0.98624  -0.97807  -0.97384  -0.95971
 Alpha  occ. eigenvalues --   -0.86960  -0.85130  -0.84586  -0.83709  -0.83135
 Alpha  occ. eigenvalues --   -0.82915  -0.82080  -0.81706  -0.81274  -0.80824
 Alpha  occ. eigenvalues --   -0.79989  -0.79528  -0.78985  -0.77928  -0.77573
 Alpha  occ. eigenvalues --   -0.77112  -0.76852  -0.75629  -0.75202  -0.74789
 Alpha  occ. eigenvalues --   -0.74276  -0.72276  -0.71991  -0.71211  -0.69982
 Alpha  occ. eigenvalues --   -0.69600  -0.69417  -0.69278  -0.69199  -0.68363
 Alpha  occ. eigenvalues --   -0.67555  -0.66995  -0.65641  -0.64811  -0.63521
 Alpha  occ. eigenvalues --   -0.62536  -0.62411  -0.61377  -0.60965  -0.59911
 Alpha  occ. eigenvalues --   -0.59690  -0.59369  -0.58949  -0.58932  -0.58328
 Alpha  occ. eigenvalues --   -0.57770  -0.57634  -0.56320  -0.55919  -0.55212
 Alpha  occ. eigenvalues --   -0.53982  -0.53809  -0.53091  -0.52761  -0.52339
 Alpha  occ. eigenvalues --   -0.51919  -0.50871  -0.50545  -0.50298  -0.50084
 Alpha  occ. eigenvalues --   -0.49620  -0.49249  -0.48911  -0.48757  -0.48291
 Alpha  occ. eigenvalues --   -0.48222  -0.47961  -0.47870  -0.47556  -0.47528
 Alpha  occ. eigenvalues --   -0.47167  -0.46934  -0.46847  -0.46286  -0.46165
 Alpha  occ. eigenvalues --   -0.46010  -0.45680  -0.45518  -0.45240  -0.44911
 Alpha  occ. eigenvalues --   -0.44786  -0.44708  -0.44593  -0.44339  -0.44214
 Alpha  occ. eigenvalues --   -0.43820  -0.43716  -0.43565  -0.43486  -0.43369
 Alpha  occ. eigenvalues --   -0.43254  -0.42770  -0.42518  -0.42398  -0.42233
 Alpha  occ. eigenvalues --   -0.42157  -0.42061  -0.41891  -0.41866  -0.41243
 Alpha  occ. eigenvalues --   -0.40962  -0.40749  -0.40652  -0.40514  -0.40383
 Alpha  occ. eigenvalues --   -0.40176  -0.39938  -0.39871  -0.39544  -0.39255
 Alpha  occ. eigenvalues --   -0.39218  -0.39154  -0.38927  -0.38755  -0.38676
 Alpha  occ. eigenvalues --   -0.38298  -0.38204  -0.38136  -0.37832  -0.37715
 Alpha  occ. eigenvalues --   -0.37561  -0.37386  -0.37064  -0.36983  -0.36824
 Alpha  occ. eigenvalues --   -0.36554  -0.36437  -0.36127  -0.35870  -0.35758
 Alpha  occ. eigenvalues --   -0.35473  -0.35336  -0.35193  -0.35016  -0.34932
 Alpha  occ. eigenvalues --   -0.34833  -0.34053  -0.34026  -0.33749  -0.33319
 Alpha  occ. eigenvalues --   -0.33278  -0.32776  -0.32707  -0.32384  -0.32223
 Alpha  occ. eigenvalues --   -0.32068  -0.31579  -0.31505  -0.31121  -0.30906
 Alpha  occ. eigenvalues --   -0.30323  -0.30118  -0.29968  -0.29101  -0.29051
 Alpha  occ. eigenvalues --   -0.28765  -0.28380  -0.27333  -0.26714  -0.26508
 Alpha  occ. eigenvalues --   -0.25721  -0.25201  -0.24766  -0.24577  -0.20653
 Alpha  occ. eigenvalues --   -0.18352
 Alpha virt. eigenvalues --   -0.10681  -0.04329  -0.03391  -0.01829  -0.00770
 Alpha virt. eigenvalues --   -0.00373   0.00526   0.02046   0.03148   0.04108
 Alpha virt. eigenvalues --    0.05006   0.05176   0.05651   0.05819   0.05948

 Mulliken charges:
               1
     1  Mg   0.965617
     2  C    0.054246
     3  C   -0.074954
     4  C   -0.076451
     5  C   -0.052568
     6  N   -0.394118
     7  C    0.016697
     8  C   -0.114303
     9  C   -0.097426
    10  C    0.094575
    11  C    0.009722
    12  C   -0.008730
    13  C    0.026632
    14  C    0.216442
    15  O   -0.279594
    16  O   -0.387254
    17  N   -0.503229
    18  C    0.169962
    19  C   -0.182809
    20  C   -0.109716
    21  C    0.186320
    22  C    0.050259
    23  C    0.101169
    24  O   -0.200635
    25  C   -0.029587
    26  N   -0.387230
    27  C    0.072164
    28  C   -0.144276
    29  C   -0.089587
    30  C    0.074080
    31  C    0.018174
    32  C   -0.053942
    33  C   -0.049954
    34  N   -0.456922
    35  C    0.104080
    36  C   -0.185634
    37  C   -0.042902
    38  C    0.133280
    39  C    0.062225
    40  C    0.104859
    41  O   -0.203383
    42  C   -0.153355
    43  C    0.256188
    44  O   -0.272981
    45  O   -0.288657
    46  C    0.135315
    47  C    0.241809
    48  C   -0.130205
    49  C   -0.270824
    50  C    0.004874
    51  C    0.030732
    52  C   -0.038481
    53  C   -0.027536
    54  C   -0.202278
    55  C   -0.023469
    56  C    0.006575
    57  C   -0.083641
    58  C    0.043333
    59  C   -0.240649
    60  C    0.005685
    61  C   -0.002626
    62  C   -0.086237
    63  C    0.039171
    64  C   -0.259767
    65  C   -0.028381
    66  C    0.002835
    67  H    0.001285
    68  H    0.021465
    69  H    0.002368
    70  H    0.085276
    71  H    0.042995
    72  H    0.047595
    73  H    0.046254
    74  H    0.053038
    75  H    0.031139
    76  H    0.040724
    77  H    0.064000
    78  H    0.062511
    79  H    0.058652
    80  H    0.052513
    81  H    0.042075
    82  H    0.057337
    83  H    0.084728
    84  H    0.036798
    85  H    0.049881
    86  H    0.047636
    87  H    0.056855
    88  H    0.028237
    89  H    0.042325
    90  H    0.038147
    91  H    0.039844
    92  H    0.051605
    93  H    0.044929
    94  H    0.046882
    95  H    0.071792
    96  H    0.048222
    97  H    0.056580
    98  H    0.071072
    99  H    0.046675
   100  H    0.060466
   101  H    0.049118
   102  H    0.072868
   103  H    0.084876
   104  H    0.030330
   105  H    0.028139
   106  H    0.061050
   107  H    0.061920
   108  H    0.030980
   109  H    0.054280
   110  H    0.052483
   111  H    0.033306
   112  H    0.023697
   113  H    0.024990
   114  H    0.031856
   115  H    0.028808
   116  H    0.026624
   117  H    0.033017
   118  H    0.018049
   119  H    0.021799
   120  H    0.027182
   121  H    0.031991
   122  H    0.018796
   123  H    0.017418
   124  H    0.030776
   125  H    0.018655
   126  H    0.037265
   127  H    0.038918
   128  H    0.013553
   129  H    0.028091
   130  H    0.020682
   131  H    0.030534
   132  H    0.020865
   133  H    0.018353
   134  H    0.040942
   135  H    0.030658
   136  H    0.037566
   137  H    0.029692
   138  H    0.038288
   139  H    0.036043
   140  H    0.040909
 Sum of Mulliken charges =  -0.00000

 Dipole moment (field-independent basis, Debye):
    X=             -4.6254    Y=              3.9463    Z=              1.8583  Tot=              6.3578
 Quadrupole moment (field-independent basis, Debye-Ang):
   XX=           -384.2591   YY=           -417.2286   ZZ=           -399.9161
   XY=             24.2499   XZ=             16.1309   YZ=              3.6790

 Normal termination of Gaussian 16 at Thu May  5 02:59:14 2022.
