 Gaussian 16, Revision A.03,
 Gaussian 16:  ES64L-G16RevA.03 25-Dec-2016

 --------------------------------
 #p wB97XD/Def2SVP td=(nstates=5)
 --------------------------------

 ----------------------------------------------------
 step_551_chromophore_18 TDDFT with wB97XD functional
 ----------------------------------------------------
 Symbolic Z-matrix:
 Charge =  0 Multiplicity = 1

                         Standard orientation:
 ---------------------------------------------------------------------
 Center     Atomic      Atomic             Coordinates (Angstroms)
 Number     Number       Type             X           Y           Z
 ---------------------------------------------------------------------
      1         12           0        5.141942    1.178314    0.317603
      2          6           0        4.329688   -2.274698    0.325400
      3          6           0        1.756422    1.892936    0.016954
      4          6           0        5.897767    4.359310   -0.137445
      5          6           0        8.480922    0.291604   -0.323570
      6          7           0        3.275965   -0.099480    0.166945
      7          6           0        3.190208   -1.465994    0.255184
      8          6           0        1.732195   -1.949289    0.438845
      9          6           0        0.961393   -0.593321    0.229485
     10          6           0        2.033788    0.545169    0.134424
     11          6           0       -0.030708   -0.563849   -0.949016
     12          6           0        1.476687   -2.709321    1.807536
     13          6           0        0.846827   -4.101955    1.819407
     14          6           0        0.096494   -4.482210    0.595471
     15          8           0        0.454533   -5.178114   -0.360568
     16          8           0       -1.202108   -4.063705    0.734358
     17          7           0        4.043403    2.885821    0.136938
     18          6           0        2.650767    2.984990   -0.052784
     19          6           0        2.302696    4.401903   -0.164217
     20          6           0        3.520434    5.133791   -0.181436
     21          6           0        4.549258    4.096304   -0.073500
     22          6           0        0.843623    4.912395   -0.297153
     23          6           0        3.788447    6.717483   -0.408115
     24          8           0        4.880777    7.188190   -0.525752
     25          6           0        2.683568    7.565849   -0.658750
     26          7           0        6.904273    2.180308   -0.369255
     27          6           0        6.949579    3.495474   -0.274209
     28          6           0        8.385319    4.028506   -0.249959
     29          6           0        9.246888    2.671819   -0.217610
     30          6           0        8.153911    1.608216   -0.302707
     31          6           0        8.899049    5.065734   -1.299016
     32          6           0       10.211396    2.614362    1.046217
     33          6           0        9.657460    2.413655    2.432287
     34          7           0        6.212699   -0.606027    0.118153
     35          6           0        7.542393   -0.803509   -0.155183
     36          6           0        7.910886   -2.194922    0.001079
     37          6           0        6.649708   -2.818070    0.131867
     38          6           0        5.647961   -1.818508    0.251866
     39          6           0        9.309453   -2.921374   -0.072416
     40          6           0        5.995234   -4.100916    0.365266
     41          8           0        6.409968   -5.210717    0.644112
     42          6           0        4.476547   -3.774740    0.367144
     43          6           0        4.065219   -4.391724   -0.880063
     44          8           0        3.840458   -3.774027   -1.899975
     45          8           0        3.907048   -5.685865   -0.816246
     46          6           0        3.442252   -6.296006   -2.003751
     47          6           0       -2.067961   -4.254701   -0.522151
     48          6           0       -3.231974   -3.332709   -0.486206
     49          6           0       -4.323420   -3.437274   -1.315987
     50          6           0       -4.440078   -4.522823   -2.385672
     51          6           0       -5.486258   -2.404331   -1.239430
     52          6           0       -6.004096   -2.220318    0.200668
     53          6           0       -6.525895   -0.752600    0.300040
     54          6           0       -7.738991   -0.548761    1.268253
     55          6           0       -7.218170   -0.389877    2.734781
     56          6           0       -8.782356    0.603584    0.827476
     57          6           0      -10.008545   -0.003455    0.153648
     58          6           0      -11.066399   -0.273555    1.169721
     59          6           0      -11.843933    0.949628    1.553514
     60          6           0      -11.828241    1.261716    3.078189
     61          6           0      -13.267683    0.890411    1.017710
     62          6           0      -13.380526    1.644218   -0.344019
     63          6           0      -14.765159    1.371009   -1.001147
     64          6           0      -15.495087    2.673170   -1.191871
     65          6           0      -17.023919    2.447513   -1.013358
     66          6           0      -15.228637    3.322870   -2.582286
     67          1           0        0.695773    2.152676    0.026067
     68          1           0        6.247095    5.391480   -0.195244
     69          1           0        9.533449    0.008590   -0.257142
     70          1           0        1.659768   -2.686398   -0.361658
     71          1           0        0.488541   -0.490964    1.205883
     72          1           0       -1.020478   -0.541842   -0.494436
     73          1           0        0.191423   -1.504632   -1.453115
     74          1           0        0.034140    0.195729   -1.727999
     75          1           0        0.952347   -2.116154    2.555764
     76          1           0        2.393548   -2.847206    2.380631
     77          1           0        0.196217   -4.148824    2.693963
     78          1           0        1.670261   -4.796086    1.986132
     79          1           0        0.875583    5.663173   -1.087044
     80          1           0        0.510060    5.414952    0.610339
     81          1           0        0.087720    4.137341   -0.419900
     82          1           0        2.040022    7.565666    0.220651
     83          1           0        2.195064    7.592651   -1.633681
     84          1           0        2.991730    8.610779   -0.701463
     85          1           0        8.621663    4.476865    0.715213
     86          1           0        9.751931    2.556566   -1.176330
     87          1           0        8.088794    5.313571   -1.985295
     88          1           0        9.711429    4.560037   -1.821316
     89          1           0        9.365845    5.980625   -0.935018
     90          1           0       10.628100    3.620837    1.023648
     91          1           0       11.023475    1.915169    0.849162
     92          1           0        8.580621    2.238214    2.434064
     93          1           0        9.892696    3.312749    3.002325
     94          1           0       10.126278    1.537446    2.881082
     95          1           0        9.126075   -3.984427    0.083123
     96          1           0       10.028258   -2.540647    0.652579
     97          1           0        9.703093   -2.676725   -1.059127
     98          1           0        4.016044   -4.286269    1.212254
     99          1           0        4.133071   -6.011216   -2.797541
    100          1           0        2.437873   -5.943844   -2.239500
    101          1           0        3.435537   -7.379939   -1.886006
    102          1           0       -2.473138   -5.265799   -0.522813
    103          1           0       -1.561661   -4.040676   -1.464086
    104          1           0       -3.290240   -2.476012    0.185103
    105          1           0       -3.498964   -5.069258   -2.445932
    106          1           0       -4.594227   -4.155709   -3.400005
    107          1           0       -5.201635   -5.202687   -2.003793
    108          1           0       -6.255366   -2.783305   -1.912728
    109          1           0       -5.168682   -1.412297   -1.560587
    110          1           0       -5.311938   -2.441710    1.012565
    111          1           0       -6.878470   -2.869956    0.253902
    112          1           0       -6.720903   -0.335851   -0.687799
    113          1           0       -5.784426   -0.042496    0.667228
    114          1           0       -8.314492   -1.474156    1.314653
    115          1           0       -7.241204   -1.351164    3.250539
    116          1           0       -7.906279    0.222817    3.316900
    117          1           0       -6.206541   -0.010406    2.877323
    118          1           0       -8.310602    1.272225    0.107547
    119          1           0       -9.175234    1.217338    1.638083
    120          1           0       -9.809525   -0.967678   -0.314210
    121          1           0      -10.280359    0.773538   -0.560912
    122          1           0      -10.664707   -0.759037    2.058874
    123          1           0      -11.689466   -1.005948    0.655408
    124          1           0      -11.361135    1.804823    1.080124
    125          1           0      -11.783288    2.350978    3.088847
    126          1           0      -10.906562    0.894079    3.527916
    127          1           0      -12.775314    1.134034    3.602082
    128          1           0      -13.953150    1.377313    1.711317
    129          1           0      -13.629547   -0.134599    0.940585
    130          1           0      -12.626323    1.159137   -0.964886
    131          1           0      -12.932385    2.630646   -0.220497
    132          1           0      -15.363524    0.637357   -0.461089
    133          1           0      -14.566645    0.866144   -1.947079
    134          1           0      -15.163850    3.308117   -0.370245
    135          1           0      -17.465153    2.072171   -1.937570
    136          1           0      -17.477010    3.405329   -0.759559
    137          1           0      -17.242169    1.684642   -0.265455
    138          1           0      -16.135124    3.491317   -3.163462
    139          1           0      -14.565277    2.699183   -3.181945
    140          1           0      -14.770063    4.260519   -2.269984
 ---------------------------------------------------------------------

 SCF Done:  E(RwB97XD) =  -3007.85945947     A.U. after   17 cycles

 Excitation energies and oscillator strengths:

 Excited State   1:      Singlet-A      1.6787 eV  738.55 nm  f=0.4077  <S**2>=0.000
     245 -> 248        0.18161
     246 -> 247        0.68472
     245 <- 248        0.11574
 This state for optimization and/or second-order correction.
 Total Energy, E(TD-HF/TD-DFT) =  -3007.79776657
 Copying the excited state density for this state as the 1-particle RhoCI density.

 Excited State   2:      Singlet-A      2.2256 eV  557.08 nm  f=0.1198  <S**2>=0.000
     245 -> 247        0.64272
     246 -> 248       -0.28045

 Excited State   3:      Singlet-A      3.4597 eV  358.37 nm  f=0.0051  <S**2>=0.000
     241 -> 247       -0.10803
     242 -> 249        0.10917
     244 -> 247        0.63428
     244 -> 249       -0.12343
     246 -> 248        0.15148

 Excited State   4:      Singlet-A      3.5769 eV  346.62 nm  f=0.0267  <S**2>=0.000
     242 -> 247        0.55633
     242 -> 249       -0.24739
     242 -> 250        0.15051
     244 -> 247        0.11614
     246 -> 248        0.16966

 Excited State   5:      Singlet-A      3.5897 eV  345.39 nm  f=0.2059  <S**2>=0.000
     240 -> 247        0.10396
     241 -> 247        0.51167
     242 -> 247       -0.10565
     245 -> 247        0.13851
     246 -> 248        0.40783

 The electronic state is 1-A.
 Alpha  occ. eigenvalues --  -46.94684 -19.30535 -19.28691 -19.24963 -19.24890
 Alpha  occ. eigenvalues --  -19.23441 -19.22081 -14.46423 -14.45414 -14.44133
 Alpha  occ. eigenvalues --  -14.43152 -10.43365 -10.40797 -10.39900 -10.38291
 Alpha  occ. eigenvalues --  -10.36620 -10.34993 -10.34598 -10.34403 -10.33875
 Alpha  occ. eigenvalues --  -10.33647 -10.33376 -10.33231 -10.33116 -10.33099
 Alpha  occ. eigenvalues --  -10.32356 -10.31999 -10.31748 -10.31661 -10.31585
 Alpha  occ. eigenvalues --  -10.31524 -10.31511 -10.31417 -10.31368 -10.31314
 Alpha  occ. eigenvalues --  -10.31233 -10.31053 -10.30951 -10.30932 -10.30360
 Alpha  occ. eigenvalues --  -10.30239 -10.30164 -10.30161 -10.30060 -10.29946
 Alpha  occ. eigenvalues --  -10.29936 -10.29815 -10.29745 -10.29541 -10.29289
 Alpha  occ. eigenvalues --  -10.29277 -10.29218 -10.29116 -10.28889 -10.28881
 Alpha  occ. eigenvalues --  -10.28782 -10.28474 -10.28401 -10.28375 -10.28366
 Alpha  occ. eigenvalues --  -10.28359 -10.28326 -10.28306 -10.28212 -10.27977
 Alpha  occ. eigenvalues --  -10.27728  -3.20681  -1.94245  -1.93801  -1.93664
 Alpha  occ. eigenvalues --   -1.20152  -1.17755  -1.14902  -1.11740  -1.08869
 Alpha  occ. eigenvalues --   -1.08857  -1.06009  -1.05108  -1.04783  -1.03387
 Alpha  occ. eigenvalues --   -0.94509  -0.92797  -0.92263  -0.91348  -0.90764
 Alpha  occ. eigenvalues --   -0.90581  -0.89677  -0.89382  -0.88875  -0.88646
 Alpha  occ. eigenvalues --   -0.87632  -0.87043  -0.86624  -0.85567  -0.85299
 Alpha  occ. eigenvalues --   -0.84782  -0.84504  -0.83207  -0.82838  -0.82417
 Alpha  occ. eigenvalues --   -0.81934  -0.80072  -0.79582  -0.78766  -0.77555
 Alpha  occ. eigenvalues --   -0.77279  -0.77111  -0.76989  -0.76784  -0.76029
 Alpha  occ. eigenvalues --   -0.75122  -0.74514  -0.73181  -0.72423  -0.71074
 Alpha  occ. eigenvalues --   -0.70173  -0.69952  -0.69032  -0.68555  -0.67585
 Alpha  occ. eigenvalues --   -0.67266  -0.66804  -0.66640  -0.66360  -0.65740
 Alpha  occ. eigenvalues --   -0.65311  -0.65199  -0.63964  -0.63307  -0.62751
 Alpha  occ. eigenvalues --   -0.61460  -0.61194  -0.60576  -0.60232  -0.59696
 Alpha  occ. eigenvalues --   -0.59405  -0.58237  -0.57993  -0.57730  -0.57494
 Alpha  occ. eigenvalues --   -0.56980  -0.56687  -0.56333  -0.56238  -0.55958
 Alpha  occ. eigenvalues --   -0.55664  -0.55314  -0.55268  -0.54931  -0.54897
 Alpha  occ. eigenvalues --   -0.54512  -0.54245  -0.54178  -0.53675  -0.53451
 Alpha  occ. eigenvalues --   -0.53409  -0.53057  -0.52906  -0.52604  -0.52312
 Alpha  occ. eigenvalues --   -0.52235  -0.52066  -0.51905  -0.51650  -0.51509
 Alpha  occ. eigenvalues --   -0.51133  -0.51022  -0.50863  -0.50776  -0.50648
 Alpha  occ. eigenvalues --   -0.50490  -0.50177  -0.49837  -0.49655  -0.49530
 Alpha  occ. eigenvalues --   -0.49467  -0.49314  -0.49158  -0.49131  -0.48400
 Alpha  occ. eigenvalues --   -0.48208  -0.47962  -0.47888  -0.47719  -0.47615
 Alpha  occ. eigenvalues --   -0.47328  -0.47156  -0.46957  -0.46675  -0.46432
 Alpha  occ. eigenvalues --   -0.46409  -0.46332  -0.46087  -0.45949  -0.45780
 Alpha  occ. eigenvalues --   -0.45537  -0.45319  -0.45271  -0.44981  -0.44765
 Alpha  occ. eigenvalues --   -0.44695  -0.44403  -0.44235  -0.44077  -0.43957
 Alpha  occ. eigenvalues --   -0.43782  -0.43410  -0.43271  -0.42879  -0.42818
 Alpha  occ. eigenvalues --   -0.42499  -0.42418  -0.42256  -0.42113  -0.42095
 Alpha  occ. eigenvalues --   -0.41880  -0.41109  -0.41011  -0.40858  -0.40407
 Alpha  occ. eigenvalues --   -0.40227  -0.39780  -0.39691  -0.39280  -0.39249
 Alpha  occ. eigenvalues --   -0.39086  -0.38595  -0.38571  -0.38068  -0.37883
 Alpha  occ. eigenvalues --   -0.37305  -0.37059  -0.36904  -0.36156  -0.35981
 Alpha  occ. eigenvalues --   -0.35539  -0.35020  -0.34465  -0.33778  -0.33301
 Alpha  occ. eigenvalues --   -0.32474  -0.32014  -0.31342  -0.31297  -0.25658
 Alpha  occ. eigenvalues --   -0.22537
 Alpha virt. eigenvalues --   -0.06559   0.01128   0.02943   0.04587   0.05215
 Alpha virt. eigenvalues --    0.06488   0.07213   0.08829   0.09957   0.10827
 Alpha virt. eigenvalues --    0.11415   0.11929   0.12347   0.12535   0.12759

 Mulliken charges:
               1
     1  Mg   0.956610
     2  C    0.063563
     3  C   -0.091060
     4  C   -0.100433
     5  C   -0.074722
     6  N   -0.357852
     7  C   -0.023569
     8  C   -0.084062
     9  C   -0.068051
    10  C    0.080317
    11  C    0.020985
    12  C   -0.002437
    13  C    0.042872
    14  C    0.204555
    15  O   -0.275633
    16  O   -0.386582
    17  N   -0.472933
    18  C    0.166997
    19  C   -0.173213
    20  C   -0.110430
    21  C    0.186981
    22  C    0.063293
    23  C    0.104218
    24  O   -0.194036
    25  C   -0.026166
    26  N   -0.351986
    27  C    0.062634
    28  C   -0.121933
    29  C   -0.064322
    30  C    0.062327
    31  C    0.029479
    32  C   -0.035230
    33  C   -0.034007
    34  N   -0.418592
    35  C    0.097569
    36  C   -0.192870
    37  C   -0.041377
    38  C    0.108904
    39  C    0.076101
    40  C    0.092089
    41  O   -0.194715
    42  C   -0.110316
    43  C    0.228682
    44  O   -0.266957
    45  O   -0.285942
    46  C    0.151383
    47  C    0.256263
    48  C   -0.139621
    49  C   -0.258464
    50  C    0.020291
    51  C    0.049512
    52  C   -0.023841
    53  C   -0.010897
    54  C   -0.171969
    55  C   -0.011335
    56  C    0.021759
    57  C   -0.057200
    58  C    0.054876
    59  C   -0.207450
    60  C    0.019591
    61  C    0.010797
    62  C   -0.063884
    63  C    0.051441
    64  C   -0.228806
    65  C   -0.013967
    66  C    0.011965
    67  H   -0.005740
    68  H    0.014853
    69  H   -0.002946
    70  H    0.064696
    71  H    0.030927
    72  H    0.042110
    73  H    0.039338
    74  H    0.048154
    75  H    0.024653
    76  H    0.031913
    77  H    0.059821
    78  H    0.056444
    79  H    0.052166
    80  H    0.048636
    81  H    0.039222
    82  H    0.052711
    83  H    0.083121
    84  H    0.035814
    85  H    0.036774
    86  H    0.036868
    87  H    0.050916
    88  H    0.021689
    89  H    0.037975
    90  H    0.027017
    91  H    0.033245
    92  H    0.041258
    93  H    0.039920
    94  H    0.042153
    95  H    0.068006
    96  H    0.042399
    97  H    0.050155
    98  H    0.062636
    99  H    0.041566
   100  H    0.056164
   101  H    0.046034
   102  H    0.067316
   103  H    0.079598
   104  H    0.025945
   105  H    0.021824
   106  H    0.056647
   107  H    0.056008
   108  H    0.024514
   109  H    0.044487
   110  H    0.044577
   111  H    0.024498
   112  H    0.013149
   113  H    0.014530
   114  H    0.015555
   115  H    0.023192
   116  H    0.019481
   117  H    0.027151
   118  H    0.010730
   119  H    0.007552
   120  H    0.018455
   121  H    0.021565
   122  H    0.007919
   123  H    0.008830
   124  H    0.013135
   125  H    0.012136
   126  H    0.030286
   127  H    0.033696
   128  H    0.002694
   129  H    0.018791
   130  H    0.006213
   131  H    0.022088
   132  H    0.011830
   133  H    0.010160
   134  H    0.028494
   135  H    0.023249
   136  H    0.032149
   137  H    0.023216
   138  H    0.033082
   139  H    0.030019
   140  H    0.035377
 Sum of Mulliken charges =  -0.00000

 Dipole moment (field-independent basis, Debye):
    X=             -4.9773    Y=              4.3312    Z=              1.8618  Tot=              6.8556
 Quadrupole moment (field-independent basis, Debye-Ang):
   XX=           -387.4432   YY=           -414.9828   ZZ=           -399.4849
   XY=             24.9668   XZ=             16.3150   YZ=              3.5902

 Normal termination of Gaussian 16 at Thu May  5 03:26:34 2022.
