 Gaussian 16, Revision A.03,
 Gaussian 16:  ES64L-G16RevA.03 25-Dec-2016

 --------------------
 #p ZINDO=(nstates=5)
 --------------------

 -----------------------------
 step_551_chromophore_18 ZINDO
 -----------------------------
 Symbolic Z-matrix:
 Charge =  0 Multiplicity = 1

                         Standard orientation:
 ---------------------------------------------------------------------
 Center     Atomic      Atomic             Coordinates (Angstroms)
 Number     Number       Type             X           Y           Z
 ---------------------------------------------------------------------
      1         12           0        5.141942    1.178314    0.317603
      2          6           0        4.329688   -2.274698    0.325400
      3          6           0        1.756422    1.892936    0.016954
      4          6           0        5.897767    4.359310   -0.137445
      5          6           0        8.480922    0.291604   -0.323570
      6          7           0        3.275965   -0.099480    0.166945
      7          6           0        3.190208   -1.465994    0.255184
      8          6           0        1.732195   -1.949289    0.438845
      9          6           0        0.961393   -0.593321    0.229485
     10          6           0        2.033788    0.545169    0.134424
     11          6           0       -0.030708   -0.563849   -0.949016
     12          6           0        1.476687   -2.709321    1.807536
     13          6           0        0.846827   -4.101955    1.819407
     14          6           0        0.096494   -4.482210    0.595471
     15          8           0        0.454533   -5.178114   -0.360568
     16          8           0       -1.202108   -4.063705    0.734358
     17          7           0        4.043403    2.885821    0.136938
     18          6           0        2.650767    2.984990   -0.052784
     19          6           0        2.302696    4.401903   -0.164217
     20          6           0        3.520434    5.133791   -0.181436
     21          6           0        4.549258    4.096304   -0.073500
     22          6           0        0.843623    4.912395   -0.297153
     23          6           0        3.788447    6.717483   -0.408115
     24          8           0        4.880777    7.188190   -0.525752
     25          6           0        2.683568    7.565849   -0.658750
     26          7           0        6.904273    2.180308   -0.369255
     27          6           0        6.949579    3.495474   -0.274209
     28          6           0        8.385319    4.028506   -0.249959
     29          6           0        9.246888    2.671819   -0.217610
     30          6           0        8.153911    1.608216   -0.302707
     31          6           0        8.899049    5.065734   -1.299016
     32          6           0       10.211396    2.614362    1.046217
     33          6           0        9.657460    2.413655    2.432287
     34          7           0        6.212699   -0.606027    0.118153
     35          6           0        7.542393   -0.803509   -0.155183
     36          6           0        7.910886   -2.194922    0.001079
     37          6           0        6.649708   -2.818070    0.131867
     38          6           0        5.647961   -1.818508    0.251866
     39          6           0        9.309453   -2.921374   -0.072416
     40          6           0        5.995234   -4.100916    0.365266
     41          8           0        6.409968   -5.210717    0.644112
     42          6           0        4.476547   -3.774740    0.367144
     43          6           0        4.065219   -4.391724   -0.880063
     44          8           0        3.840458   -3.774027   -1.899975
     45          8           0        3.907048   -5.685865   -0.816246
     46          6           0        3.442252   -6.296006   -2.003751
     47          6           0       -2.067961   -4.254701   -0.522151
     48          6           0       -3.231974   -3.332709   -0.486206
     49          6           0       -4.323420   -3.437274   -1.315987
     50          6           0       -4.440078   -4.522823   -2.385672
     51          6           0       -5.486258   -2.404331   -1.239430
     52          6           0       -6.004096   -2.220318    0.200668
     53          6           0       -6.525895   -0.752600    0.300040
     54          6           0       -7.738991   -0.548761    1.268253
     55          6           0       -7.218170   -0.389877    2.734781
     56          6           0       -8.782356    0.603584    0.827476
     57          6           0      -10.008545   -0.003455    0.153648
     58          6           0      -11.066399   -0.273555    1.169721
     59          6           0      -11.843933    0.949628    1.553514
     60          6           0      -11.828241    1.261716    3.078189
     61          6           0      -13.267683    0.890411    1.017710
     62          6           0      -13.380526    1.644218   -0.344019
     63          6           0      -14.765159    1.371009   -1.001147
     64          6           0      -15.495087    2.673170   -1.191871
     65          6           0      -17.023919    2.447513   -1.013358
     66          6           0      -15.228637    3.322870   -2.582286
     67          1           0        0.695773    2.152676    0.026067
     68          1           0        6.247095    5.391480   -0.195244
     69          1           0        9.533449    0.008590   -0.257142
     70          1           0        1.659768   -2.686398   -0.361658
     71          1           0        0.488541   -0.490964    1.205883
     72          1           0       -1.020478   -0.541842   -0.494436
     73          1           0        0.191423   -1.504632   -1.453115
     74          1           0        0.034140    0.195729   -1.727999
     75          1           0        0.952347   -2.116154    2.555764
     76          1           0        2.393548   -2.847206    2.380631
     77          1           0        0.196217   -4.148824    2.693963
     78          1           0        1.670261   -4.796086    1.986132
     79          1           0        0.875583    5.663173   -1.087044
     80          1           0        0.510060    5.414952    0.610339
     81          1           0        0.087720    4.137341   -0.419900
     82          1           0        2.040022    7.565666    0.220651
     83          1           0        2.195064    7.592651   -1.633681
     84          1           0        2.991730    8.610779   -0.701463
     85          1           0        8.621663    4.476865    0.715213
     86          1           0        9.751931    2.556566   -1.176330
     87          1           0        8.088794    5.313571   -1.985295
     88          1           0        9.711429    4.560037   -1.821316
     89          1           0        9.365845    5.980625   -0.935018
     90          1           0       10.628100    3.620837    1.023648
     91          1           0       11.023475    1.915169    0.849162
     92          1           0        8.580621    2.238214    2.434064
     93          1           0        9.892696    3.312749    3.002325
     94          1           0       10.126278    1.537446    2.881082
     95          1           0        9.126075   -3.984427    0.083123
     96          1           0       10.028258   -2.540647    0.652579
     97          1           0        9.703093   -2.676725   -1.059127
     98          1           0        4.016044   -4.286269    1.212254
     99          1           0        4.133071   -6.011216   -2.797541
    100          1           0        2.437873   -5.943844   -2.239500
    101          1           0        3.435537   -7.379939   -1.886006
    102          1           0       -2.473138   -5.265799   -0.522813
    103          1           0       -1.561661   -4.040676   -1.464086
    104          1           0       -3.290240   -2.476012    0.185103
    105          1           0       -3.498964   -5.069258   -2.445932
    106          1           0       -4.594227   -4.155709   -3.400005
    107          1           0       -5.201635   -5.202687   -2.003793
    108          1           0       -6.255366   -2.783305   -1.912728
    109          1           0       -5.168682   -1.412297   -1.560587
    110          1           0       -5.311938   -2.441710    1.012565
    111          1           0       -6.878470   -2.869956    0.253902
    112          1           0       -6.720903   -0.335851   -0.687799
    113          1           0       -5.784426   -0.042496    0.667228
    114          1           0       -8.314492   -1.474156    1.314653
    115          1           0       -7.241204   -1.351164    3.250539
    116          1           0       -7.906279    0.222817    3.316900
    117          1           0       -6.206541   -0.010406    2.877323
    118          1           0       -8.310602    1.272225    0.107547
    119          1           0       -9.175234    1.217338    1.638083
    120          1           0       -9.809525   -0.967678   -0.314210
    121          1           0      -10.280359    0.773538   -0.560912
    122          1           0      -10.664707   -0.759037    2.058874
    123          1           0      -11.689466   -1.005948    0.655408
    124          1           0      -11.361135    1.804823    1.080124
    125          1           0      -11.783288    2.350978    3.088847
    126          1           0      -10.906562    0.894079    3.527916
    127          1           0      -12.775314    1.134034    3.602082
    128          1           0      -13.953150    1.377313    1.711317
    129          1           0      -13.629547   -0.134599    0.940585
    130          1           0      -12.626323    1.159137   -0.964886
    131          1           0      -12.932385    2.630646   -0.220497
    132          1           0      -15.363524    0.637357   -0.461089
    133          1           0      -14.566645    0.866144   -1.947079
    134          1           0      -15.163850    3.308117   -0.370245
    135          1           0      -17.465153    2.072171   -1.937570
    136          1           0      -17.477010    3.405329   -0.759559
    137          1           0      -17.242169    1.684642   -0.265455
    138          1           0      -16.135124    3.491317   -3.163462
    139          1           0      -14.565277    2.699183   -3.181945
    140          1           0      -14.770063    4.260519   -2.269984
 ---------------------------------------------------------------------

 SCF Done:  E(RZINDO/S) =  -474.532471253     A.U. after   20 cycles

 Excitation energies and oscillator strengths:

 Excited State   1:      Singlet-A      1.2704 eV  975.91 nm  f=0.6191  <S**2>=0.000
     175 ->178        -0.18510
     176 ->177         0.66487
 This state for optimization and/or second-order correction.
 Total Energy, E(CIS/TDA) =  -474.485783221
 Copying the excited state density for this state as the 1-particle RhoCI density.

 Excited State   2:      Singlet-A      1.9255 eV  643.91 nm  f=0.0718  <S**2>=0.000
     175 ->177         0.57138
     176 ->178         0.38572

 Excited State   3:      Singlet-A      2.9487 eV  420.46 nm  f=0.1949  <S**2>=0.000
     170 ->177         0.23428
     170 ->178         0.14660
     170 ->179         0.24323
     170 ->180        -0.22422
     170 ->188         0.11479
     173 ->177        -0.10321
     175 ->177        -0.17268
     176 ->178         0.30349
     176 ->179         0.22700
     176 ->180        -0.14694

 Excited State   4:      Singlet-A      2.9920 eV  414.39 nm  f=0.1966  <S**2>=0.000
     168 ->177         0.20073
     168 ->179        -0.30583
     168 ->180        -0.27177
     168 ->184         0.17259
     170 ->177        -0.10346
     170 ->179        -0.13682
     170 ->180         0.10381
     171 ->177        -0.15244
     175 ->177        -0.15334
     176 ->178         0.25418

 Excited State   5:      Singlet-A      3.0167 eV  410.99 nm  f=0.3113  <S**2>=0.000
     168 ->177        -0.14546
     168 ->179         0.22679
     168 ->180         0.20894
     168 ->184        -0.12757
     170 ->177        -0.14990
     170 ->179        -0.15952
     170 ->180         0.13968
     175 ->177        -0.19251
     176 ->178         0.32327
     176 ->179         0.18886

 The electronic state is 1-A.
 Alpha  occ. eigenvalues --   -1.84637  -1.82498  -1.79165  -1.76970  -1.72023
 Alpha  occ. eigenvalues --   -1.68985  -1.68797  -1.62770  -1.60402  -1.59743
 Alpha  occ. eigenvalues --   -1.56959  -1.50695  -1.49909  -1.47301  -1.45871
 Alpha  occ. eigenvalues --   -1.43218  -1.41568  -1.39803  -1.39329  -1.37755
 Alpha  occ. eigenvalues --   -1.35590  -1.33493  -1.32226  -1.30564  -1.29535
 Alpha  occ. eigenvalues --   -1.29287  -1.25124  -1.23215  -1.20632  -1.17782
 Alpha  occ. eigenvalues --   -1.17689  -1.15247  -1.15106  -1.14886  -1.13058
 Alpha  occ. eigenvalues --   -1.12227  -1.11383  -1.10179  -1.05128  -1.02783
 Alpha  occ. eigenvalues --   -1.02266  -1.01212  -0.98308  -0.97271  -0.97178
 Alpha  occ. eigenvalues --   -0.95940  -0.95279  -0.94180  -0.93319  -0.92905
 Alpha  occ. eigenvalues --   -0.92089  -0.90589  -0.89532  -0.87785  -0.86638
 Alpha  occ. eigenvalues --   -0.85794  -0.84717  -0.83164  -0.81212  -0.80711
 Alpha  occ. eigenvalues --   -0.78893  -0.77682  -0.76998  -0.76727  -0.76022
 Alpha  occ. eigenvalues --   -0.74738  -0.74600  -0.74134  -0.73322  -0.73162
 Alpha  occ. eigenvalues --   -0.72544  -0.72011  -0.71664  -0.71138  -0.70298
 Alpha  occ. eigenvalues --   -0.69837  -0.69304  -0.68898  -0.68389  -0.67908
 Alpha  occ. eigenvalues --   -0.67339  -0.67094  -0.66821  -0.66075  -0.65333
 Alpha  occ. eigenvalues --   -0.64822  -0.64426  -0.63899  -0.63622  -0.63222
 Alpha  occ. eigenvalues --   -0.63037  -0.62526  -0.62365  -0.62174  -0.61405
 Alpha  occ. eigenvalues --   -0.60943  -0.60907  -0.60703  -0.60597  -0.60413
 Alpha  occ. eigenvalues --   -0.59853  -0.59757  -0.59355  -0.59089  -0.58782
 Alpha  occ. eigenvalues --   -0.57663  -0.57470  -0.57200  -0.57132  -0.56713
 Alpha  occ. eigenvalues --   -0.56210  -0.55688  -0.55062  -0.54727  -0.54381
 Alpha  occ. eigenvalues --   -0.54197  -0.53945  -0.53803  -0.53163  -0.53038
 Alpha  occ. eigenvalues --   -0.52812  -0.52700  -0.51392  -0.51036  -0.50777
 Alpha  occ. eigenvalues --   -0.50670  -0.50510  -0.50441  -0.50216  -0.50165
 Alpha  occ. eigenvalues --   -0.49832  -0.49448  -0.49227  -0.48879  -0.48654
 Alpha  occ. eigenvalues --   -0.48425  -0.47983  -0.47715  -0.47559  -0.47331
 Alpha  occ. eigenvalues --   -0.47069  -0.46811  -0.46795  -0.46707  -0.46608
 Alpha  occ. eigenvalues --   -0.46362  -0.46255  -0.45909  -0.45455  -0.45152
 Alpha  occ. eigenvalues --   -0.44861  -0.44500  -0.43908  -0.43824  -0.43669
 Alpha  occ. eigenvalues --   -0.43503  -0.43035  -0.42657  -0.42288  -0.41750
 Alpha  occ. eigenvalues --   -0.41217  -0.41055  -0.40112  -0.38883  -0.38720
 Alpha  occ. eigenvalues --   -0.36929  -0.36346  -0.35828  -0.34539  -0.33972
 Alpha  occ. eigenvalues --   -0.33650  -0.32405  -0.31843  -0.31441  -0.26302
 Alpha  occ. eigenvalues --   -0.21586
 Alpha virt. eigenvalues --   -0.08287  -0.01447   0.00037   0.01289   0.01724
 Alpha virt. eigenvalues --    0.01791   0.03384   0.04232   0.04473   0.05488
 Alpha virt. eigenvalues --    0.06443   0.07264   0.08080   0.08121   0.08347

 Mulliken charges:
               1
     1  Mg   0.426832
     2  C   -0.019391
     3  C   -0.063520
     4  C   -0.080884
     5  C   -0.074466
     6  N   -0.288332
     7  C    0.110204
     8  C    0.000868
     9  C    0.009942
    10  C    0.128194
    11  C   -0.052195
    12  C   -0.024210
    13  C    0.013615
    14  C    0.477808
    15  O   -0.525315
    16  O   -0.283638
    17  N   -0.322776
    18  C    0.104178
    19  C    0.009653
    20  C   -0.064690
    21  C    0.171613
    22  C   -0.047130
    23  C    0.347196
    24  O   -0.495808
    25  C   -0.030209
    26  N   -0.271993
    27  C    0.175620
    28  C   -0.010084
    29  C   -0.015784
    30  C    0.115145
    31  C   -0.052087
    32  C   -0.024598
    33  C   -0.047358
    34  N   -0.312171
    35  C    0.089247
    36  C   -0.000881
    37  C   -0.056366
    38  C    0.099287
    39  C   -0.039012
    40  C    0.334806
    41  O   -0.528512
    42  C    0.059256
    43  C    0.503302
    44  O   -0.557959
    45  O   -0.243469
    46  C    0.082120
    47  C    0.109514
    48  C   -0.092715
    49  C   -0.035650
    50  C   -0.046683
    51  C   -0.022536
    52  C   -0.029902
    53  C   -0.037945
    54  C   -0.018405
    55  C   -0.061551
    56  C   -0.039895
    57  C   -0.033826
    58  C   -0.024527
    59  C   -0.008533
    60  C   -0.069997
    61  C   -0.034669
    62  C   -0.047047
    63  C   -0.026667
    64  C   -0.011265
    65  C   -0.061259
    66  C   -0.058808
    67  H    0.025496
    68  H    0.039382
    69  H    0.027962
    70  H    0.052077
    71  H    0.026196
    72  H    0.019213
    73  H    0.027245
    74  H    0.031467
    75  H    0.020654
    76  H    0.018209
    77  H    0.037863
    78  H    0.037309
    79  H    0.030579
    80  H    0.027020
    81  H    0.031282
    82  H    0.032888
    83  H    0.055673
    84  H    0.021615
    85  H    0.028698
    86  H    0.033591
    87  H    0.027487
    88  H    0.016599
    89  H    0.027232
    90  H    0.010938
    91  H    0.019743
    92  H    0.024621
    93  H    0.020820
    94  H    0.020297
    95  H    0.039912
    96  H    0.028711
    97  H    0.029845
    98  H    0.055058
    99  H    0.041907
   100  H    0.047082
   101  H    0.027172
   102  H    0.055106
   103  H    0.064338
   104  H    0.035629
   105  H    0.017337
   106  H    0.033396
   107  H    0.033205
   108  H    0.023260
   109  H    0.030233
   110  H    0.037373
   111  H    0.018840
   112  H    0.016764
   113  H    0.014136
   114  H    0.019139
   115  H    0.011181
   116  H    0.013143
   117  H    0.021817
   118  H    0.010934
   119  H    0.026379
   120  H    0.016701
   121  H    0.019705
   122  H    0.019341
   123  H    0.006363
   124  H    0.018588
   125  H    0.003762
   126  H    0.026743
   127  H    0.031101
   128  H    0.008639
   129  H    0.021159
   130  H    0.003521
   131  H    0.034263
   132  H    0.021451
   133  H    0.013058
   134  H    0.022016
   135  H    0.016674
   136  H    0.015857
   137  H    0.016097
   138  H    0.024223
   139  H    0.023385
   140  H    0.019624
 Sum of Mulliken charges =  -0.00000

 Dipole moment (field-independent basis, Debye):
    X=             -6.5420    Y=              6.5493    Z=              3.4894  Tot=              9.8927
 N-N= 4.322110912251D+03 E-N= 0.000000000000D+00  KE=-9.319395528135D+03
 Leave Link  601 at Thu May  5 03:38:28 2022, MaxMem=  6710886400 cpu:               0.8 elap:               0.0
 (Enter /sw/apps/gaussian-16.0/g16/l9999.exe)
 1\1\GINC-BP1-COMPUTE123\SP\RZINDO CIS\STO-3G\C55H74Mg1N4O6\OF15641\05-
 May-2022\0\\#p ZINDO=(nstates=5)\\step_551_chromophore_18 ZINDO\\0,1\M
 g,0,35.202,49.793,25.432\C,0,35.063,48.03,28.507\C,0,33.625,52.469,26.
 986\C,0,34.918,51.275,22.496\C,0,35.897,46.745,23.828\N,0,34.423,50.15
 2,27.53\C,0,34.535,49.321,28.616\C,0,34.182,50.039,29.94\C,0,33.638,51
 .405,29.379\C,0,33.899,51.414,27.834\C,0,32.174,51.735,29.728\C,0,35.3
 89,50.121,30.966\C,0,35.228,49.617,32.4\C,0,33.831,49.495,32.889\O,0,3

 Normal termination of Gaussian 16 at Thu May  5 03:38:28 2022.
