 Gaussian 16, Revision A.03,
 Gaussian 16:  ES64L-G16RevA.03 25-Dec-2016

 ------------------------------
 #p blyp/Def2SVP td=(nstates=5)
 ------------------------------

 -------------------------------------------------
 step_151_chromophore_6 TDDFT with blyp functional
 -------------------------------------------------
 Symbolic Z-matrix:
 Charge =  0 Multiplicity = 1

                         Standard orientation:
 ---------------------------------------------------------------------
 Center     Atomic      Atomic             Coordinates (Angstroms)
 Number     Number       Type             X           Y           Z
 ---------------------------------------------------------------------
      1         12           0        5.315021    1.234979    0.261118
      2          6           0        4.671660   -2.186787    0.215565
      3          6           0        1.903616    1.685145    0.186247
      4          6           0        5.752774    4.513422   -0.147387
      5          6           0        8.643308    0.566479   -0.045885
      6          7           0        3.604042   -0.121715    0.167138
      7          6           0        3.517755   -1.499652    0.154706
      8          6           0        2.063743   -2.034883    0.263203
      9          6           0        1.254003   -0.751171    0.022915
     10          6           0        2.328952    0.341293    0.059811
     11          6           0        0.364714   -0.700568   -1.320883
     12          6           0        1.821300   -2.768065    1.607920
     13          6           0        0.881453   -3.955518    1.559127
     14          6           0        0.080873   -4.348776    0.356261
     15          8           0        0.309413   -5.208691   -0.510781
     16          8           0       -1.019736   -3.585758    0.352493
     17          7           0        4.047929    2.891517    0.087519
     18          6           0        2.705201    2.894691    0.144257
     19          6           0        2.163065    4.131375    0.098549
     20          6           0        3.231004    5.017395    0.183847
     21          6           0        4.396080    4.173350    0.032384
     22          6           0        0.672094    4.482525   -0.051454
     23          6           0        3.255543    6.500087    0.311529
     24          8           0        4.263233    7.175763    0.297853
     25          6           0        2.056022    7.289624    0.770957
     26          7           0        6.941753    2.377175   -0.149807
     27          6           0        6.913237    3.716930   -0.275493
     28          6           0        8.248422    4.330699   -0.560934
     29          6           0        9.196818    3.108082   -0.369949
     30          6           0        8.220108    1.940635   -0.112764
     31          6           0        8.370243    4.910558   -1.948875
     32          6           0       10.213214    3.245173    0.823016
     33          6           0       11.755619    3.024740    0.414179
     34          7           0        6.508334   -0.477320    0.157670
     35          6           0        7.843792   -0.594608    0.168699
     36          6           0        8.201288   -1.986216    0.320898
     37          6           0        7.008367   -2.626803    0.330848
     38          6           0        6.014452   -1.681219    0.238745
     39          6           0        9.545210   -2.492207    0.393864
     40          6           0        6.380927   -3.980145    0.289909
     41          8           0        6.854249   -5.095831    0.336768
     42          6           0        4.843541   -3.743155    0.277189
     43          6           0        4.336451   -4.504510   -0.924068
     44          8           0        4.624235   -4.262101   -2.129705
     45          8           0        3.668103   -5.616228   -0.454589
     46          6           0        3.485369   -6.657028   -1.440299
     47          6           0       -2.044059   -3.962372   -0.687658
     48          6           0       -3.236887   -3.107171   -0.758940
     49          6           0       -4.511454   -3.389312   -1.041733
     50          6           0       -5.172953   -4.696385   -1.319749
     51          6           0       -5.594929   -2.316811   -0.793301
     52          6           0       -5.919571   -2.076390    0.707947
     53          6           0       -7.246466   -2.655175    1.274108
     54          6           0       -8.308755   -1.529924    1.604286
     55          6           0       -8.371099   -1.211311    3.154848
     56          6           0       -9.643004   -1.774954    0.827500
     57          6           0      -10.629047   -0.595001    1.055289
     58          6           0      -11.387513   -0.333283   -0.184103
     59          6           0      -12.919736   -0.340579   -0.001500
     60          6           0      -13.590314   -1.591314   -0.638425
     61          6           0      -13.557791    1.012078   -0.555812
     62          6           0      -13.277600    2.364748    0.090528
     63          6           0      -14.498013    3.293160    0.372014
     64          6           0      -14.590743    4.453890   -0.682542
     65          6           0      -14.878620    3.991794   -2.136709
     66          6           0      -15.563153    5.577832   -0.220971
     67          1           0        0.812908    1.726904    0.209065
     68          1           0        6.066754    5.544048   -0.324125
     69          1           0        9.708363    0.394079   -0.215389
     70          1           0        1.954014   -2.807450   -0.498342
     71          1           0        0.529085   -0.585985    0.819999
     72          1           0        0.851419    0.023058   -1.973922
     73          1           0       -0.668089   -0.486878   -1.043342
     74          1           0        0.322403   -1.702537   -1.747980
     75          1           0        1.242406   -2.122962    2.268619
     76          1           0        2.720962   -2.965690    2.190604
     77          1           0        0.232477   -3.894485    2.432547
     78          1           0        1.497141   -4.814641    1.824966
     79          1           0        0.628552    5.514475   -0.399714
     80          1           0       -0.001245    4.130962    0.730402
     81          1           0        0.251623    4.106953   -0.983715
     82          1           0        1.569014    6.690923    1.540888
     83          1           0        1.317990    7.511793    0.000508
     84          1           0        2.218380    8.278501    1.199098
     85          1           0        8.360638    5.188742    0.101492
     86          1           0        9.681066    2.835355   -1.307054
     87          1           0        9.061309    4.461984   -2.662062
     88          1           0        8.594188    5.973278   -1.854745
     89          1           0        7.387309    4.962786   -2.417597
     90          1           0        9.876685    2.496576    1.540028
     91          1           0       10.172887    4.217401    1.314382
     92          1           0       12.436156    3.710991    0.918476
     93          1           0       11.915188    3.086919   -0.662808
     94          1           0       11.976084    2.032838    0.805842
     95          1           0        9.700570   -3.303137    1.104757
     96          1           0       10.282049   -1.732133    0.654345
     97          1           0        9.773186   -2.759188   -0.638946
     98          1           0        4.405819   -4.083532    1.215445
     99          1           0        2.462979   -6.693514   -1.817889
    100          1           0        3.582557   -7.571656   -0.854310
    101          1           0        4.206132   -6.678286   -2.257217
    102          1           0       -2.360419   -5.004581   -0.644939
    103          1           0       -1.568570   -3.774599   -1.650712
    104          1           0       -3.135544   -2.116692   -0.315714
    105          1           0       -4.509545   -5.531092   -1.093250
    106          1           0       -5.550200   -4.776940   -2.338548
    107          1           0       -6.048139   -4.696824   -0.669576
    108          1           0       -6.482880   -2.613920   -1.350571
    109          1           0       -5.395744   -1.334399   -1.219685
    110          1           0       -5.905789   -1.014206    0.950217
    111          1           0       -5.140689   -2.545793    1.308803
    112          1           0       -7.017931   -3.201748    2.188919
    113          1           0       -7.726758   -3.322568    0.558863
    114          1           0       -8.034579   -0.605810    1.095704
    115          1           0       -9.357700   -1.580843    3.433694
    116          1           0       -8.299885   -0.153525    3.410393
    117          1           0       -7.705777   -1.794809    3.790966
    118          1           0      -10.074523   -2.656948    1.299832
    119          1           0       -9.574958   -1.972129   -0.242438
    120          1           0      -10.069969    0.318185    1.258792
    121          1           0      -11.189452   -0.863860    1.949586
    122          1           0      -11.200213   -1.082737   -0.954250
    123          1           0      -11.025507    0.624756   -0.558079
    124          1           0      -13.176282   -0.400061    1.055636
    125          1           0      -13.279697   -1.615377   -1.682967
    126          1           0      -14.680518   -1.594286   -0.623338
    127          1           0      -13.241920   -2.497558   -0.143454
    128          1           0      -14.630239    0.818439   -0.559886
    129          1           0      -13.191057    1.137880   -1.574047
    130          1           0      -12.576945    2.969585   -0.485376
    131          1           0      -12.828606    2.222007    1.074098
    132          1           0      -14.489468    3.597409    1.418392
    133          1           0      -15.418708    2.731275    0.217356
    134          1           0      -13.607163    4.923674   -0.680317
    135          1           0      -14.073407    4.236266   -2.829740
    136          1           0      -15.763691    4.459864   -2.566670
    137          1           0      -14.886370    2.901705   -2.140813
    138          1           0      -16.076739    5.408671    0.725952
    139          1           0      -16.366795    5.632001   -0.954425
    140          1           0      -14.948314    6.472045   -0.328326
 ---------------------------------------------------------------------

 SCF Done:  E(RB-LYP) =  -3007.35249881     A.U. after   21 cycles

 Excitation energies and oscillator strengths:

 Excited State   1:      Singlet-A      1.7261 eV  718.30 nm  f=0.0050  <S**2>=0.000
     244 -> 247        0.68278
     245 -> 247        0.17493
 This state for optimization and/or second-order correction.
 Total Energy, E(TD-HF/TD-DFT) =  -3007.28906664
 Copying the excited state density for this state as the 1-particle RhoCI density.

 Excited State   2:      Singlet-A      1.8251 eV  679.32 nm  f=0.3014  <S**2>=0.000
     245 -> 248        0.17336
     246 -> 247        0.69077
     246 <- 247       -0.15395

 Excited State   3:      Singlet-A      2.0263 eV  611.88 nm  f=0.0304  <S**2>=0.000
     243 -> 247        0.60719
     245 -> 247        0.32792
     246 -> 248       -0.10346

 Excited State   4:      Singlet-A      2.0396 eV  607.89 nm  f=0.0894  <S**2>=0.000
     243 -> 247       -0.36140
     244 -> 247       -0.14625
     245 -> 247        0.54775
     246 -> 248       -0.18202

 Excited State   5:      Singlet-A      2.5033 eV  495.28 nm  f=0.0001  <S**2>=0.000
     241 -> 247        0.68662
     242 -> 247       -0.16863

 The electronic state is 1-A.
 Alpha  occ. eigenvalues --  -46.26554 -18.83320 -18.81784 -18.77134 -18.75996
 Alpha  occ. eigenvalues --  -18.75885 -18.74736 -14.03147 -14.03012 -14.00643
 Alpha  occ. eigenvalues --  -14.00133 -10.04715 -10.03511  -9.99759  -9.99165
 Alpha  occ. eigenvalues --   -9.98634  -9.96573  -9.96118  -9.95867  -9.95845
 Alpha  occ. eigenvalues --   -9.95814  -9.95223  -9.94851  -9.94498  -9.94364
 Alpha  occ. eigenvalues --   -9.94018  -9.93768  -9.93732  -9.93728  -9.93545
 Alpha  occ. eigenvalues --   -9.93413  -9.93323  -9.93317  -9.93101  -9.92965
 Alpha  occ. eigenvalues --   -9.92868  -9.92775  -9.92770  -9.92696  -9.92559
 Alpha  occ. eigenvalues --   -9.92510  -9.92495  -9.92429  -9.92380  -9.92157
 Alpha  occ. eigenvalues --   -9.92140  -9.92077  -9.92058  -9.91955  -9.91952
 Alpha  occ. eigenvalues --   -9.91815  -9.91751  -9.91728  -9.91629  -9.91605
 Alpha  occ. eigenvalues --   -9.91355  -9.91230  -9.91179  -9.91099  -9.91083
 Alpha  occ. eigenvalues --   -9.91028  -9.90939  -9.90782  -9.90759  -9.90614
 Alpha  occ. eigenvalues --   -9.90231  -2.91360  -1.71785  -1.71208  -1.71101
 Alpha  occ. eigenvalues --   -0.98829  -0.96377  -0.91852  -0.91643  -0.89350
 Alpha  occ. eigenvalues --   -0.88209  -0.87802  -0.87666  -0.86568  -0.85634
 Alpha  occ. eigenvalues --   -0.74847  -0.74436  -0.73526  -0.73269  -0.72117
 Alpha  occ. eigenvalues --   -0.71953  -0.71830  -0.71325  -0.70789  -0.70619
 Alpha  occ. eigenvalues --   -0.70173  -0.69507  -0.68336  -0.67338  -0.67187
 Alpha  occ. eigenvalues --   -0.66640  -0.65680  -0.65265  -0.64523  -0.64411
 Alpha  occ. eigenvalues --   -0.64022  -0.62945  -0.62526  -0.61637  -0.60922
 Alpha  occ. eigenvalues --   -0.60536  -0.60033  -0.59977  -0.59897  -0.59250
 Alpha  occ. eigenvalues --   -0.58929  -0.58017  -0.56595  -0.56118  -0.54511
 Alpha  occ. eigenvalues --   -0.54209  -0.53940  -0.53063  -0.52412  -0.51993
 Alpha  occ. eigenvalues --   -0.51543  -0.51062  -0.50372  -0.50271  -0.50073
 Alpha  occ. eigenvalues --   -0.49723  -0.49235  -0.48822  -0.47910  -0.47104
 Alpha  occ. eigenvalues --   -0.47024  -0.46167  -0.45756  -0.45207  -0.44461
 Alpha  occ. eigenvalues --   -0.44027  -0.43452  -0.43086  -0.42838  -0.42267
 Alpha  occ. eigenvalues --   -0.42069  -0.41838  -0.41657  -0.41413  -0.41156
 Alpha  occ. eigenvalues --   -0.41058  -0.40626  -0.40347  -0.40137  -0.40011
 Alpha  occ. eigenvalues --   -0.39980  -0.39424  -0.39336  -0.39236  -0.39073
 Alpha  occ. eigenvalues --   -0.39026  -0.38938  -0.38841  -0.38668  -0.38172
 Alpha  occ. eigenvalues --   -0.37881  -0.37681  -0.37571  -0.37506  -0.37348
 Alpha  occ. eigenvalues --   -0.37044  -0.36912  -0.36736  -0.36477  -0.36396
 Alpha  occ. eigenvalues --   -0.36079  -0.36017  -0.35901  -0.35847  -0.35759
 Alpha  occ. eigenvalues --   -0.35491  -0.35380  -0.35333  -0.34992  -0.34637
 Alpha  occ. eigenvalues --   -0.34542  -0.34260  -0.34138  -0.33835  -0.33804
 Alpha  occ. eigenvalues --   -0.33664  -0.33599  -0.33145  -0.33122  -0.33078
 Alpha  occ. eigenvalues --   -0.32992  -0.32856  -0.32746  -0.32685  -0.32446
 Alpha  occ. eigenvalues --   -0.32270  -0.32079  -0.31957  -0.31600  -0.31534
 Alpha  occ. eigenvalues --   -0.31326  -0.31144  -0.30915  -0.30728  -0.30469
 Alpha  occ. eigenvalues --   -0.30356  -0.30298  -0.30160  -0.29967  -0.29851
 Alpha  occ. eigenvalues --   -0.29561  -0.29394  -0.29276  -0.29158  -0.28930
 Alpha  occ. eigenvalues --   -0.28842  -0.28612  -0.28591  -0.28102  -0.27934
 Alpha  occ. eigenvalues --   -0.27871  -0.27220  -0.27179  -0.26949  -0.26649
 Alpha  occ. eigenvalues --   -0.26361  -0.26221  -0.26172  -0.25930  -0.25748
 Alpha  occ. eigenvalues --   -0.25597  -0.24463  -0.23929  -0.23781  -0.23535
 Alpha  occ. eigenvalues --   -0.22978  -0.22284  -0.22084  -0.21189  -0.20936
 Alpha  occ. eigenvalues --   -0.20647  -0.20576  -0.18819  -0.17727  -0.16942
 Alpha  occ. eigenvalues --   -0.15707
 Alpha virt. eigenvalues --   -0.11445  -0.06545  -0.05275  -0.04291  -0.03883
 Alpha virt. eigenvalues --   -0.02718  -0.02434  -0.02388  -0.00975   0.00446
 Alpha virt. eigenvalues --    0.01268   0.01973   0.02477   0.02811   0.03031

 Mulliken charges:
               1
     1  Mg   0.720027
     2  C   -0.002049
     3  C   -0.110557
     4  C   -0.042743
     5  C   -0.082759
     6  N   -0.227287
     7  C   -0.118345
     8  C    0.059353
     9  C   -0.023197
    10  C    0.050940
    11  C    0.114651
    12  C    0.132240
    13  C    0.141543
    14  C    0.084408
    15  O   -0.207977
    16  O   -0.272460
    17  N   -0.222700
    18  C    0.156452
    19  C   -0.147864
    20  C    0.064520
    21  C    0.103863
    22  C    0.203306
    23  C   -0.080950
    24  O   -0.157677
    25  C    0.106313
    26  N   -0.237083
    27  C   -0.031456
    28  C    0.029205
    29  C    0.051367
    30  C    0.011338
    31  C    0.124797
    32  C    0.082819
    33  C    0.043464
    34  N   -0.187057
    35  C    0.089622
    36  C   -0.192013
    37  C    0.103304
    38  C    0.055279
    39  C    0.177628
    40  C   -0.044296
    41  O   -0.113317
    42  C    0.062179
    43  C    0.149620
    44  O   -0.221638
    45  O   -0.256867
    46  C    0.213659
    47  C    0.339148
    48  C   -0.089608
    49  C   -0.169899
    50  C    0.165786
    51  C    0.111571
    52  C    0.079187
    53  C    0.112046
    54  C   -0.110447
    55  C    0.113511
    56  C    0.055456
    57  C    0.081712
    58  C    0.137214
    59  C   -0.053522
    60  C    0.088011
    61  C    0.061663
    62  C    0.090078
    63  C    0.077085
    64  C   -0.124532
    65  C    0.107238
    66  C    0.120260
    67  H   -0.070538
    68  H   -0.060379
    69  H   -0.063217
    70  H    0.001542
    71  H   -0.020992
    72  H    0.008933
    73  H   -0.003909
    74  H   -0.003478
    75  H   -0.035012
    76  H   -0.014170
    77  H   -0.014379
    78  H   -0.010458
    79  H   -0.034908
    80  H    0.012757
    81  H   -0.022505
    82  H   -0.000928
    83  H    0.005371
    84  H   -0.014545
    85  H   -0.016036
    86  H   -0.017252
    87  H   -0.003928
    88  H   -0.017613
    89  H   -0.014984
    90  H   -0.014250
    91  H   -0.014567
    92  H   -0.006463
    93  H    0.001369
    94  H   -0.001952
    95  H    0.010268
    96  H   -0.025418
    97  H    0.008451
    98  H   -0.004100
    99  H    0.017979
   100  H   -0.001882
   101  H    0.024096
   102  H    0.001733
   103  H    0.009799
   104  H   -0.036888
   105  H   -0.017836
   106  H    0.004792
   107  H   -0.002643
   108  H   -0.041608
   109  H   -0.030028
   110  H   -0.025590
   111  H   -0.031186
   112  H   -0.035909
   113  H   -0.030494
   114  H   -0.036478
   115  H   -0.024912
   116  H   -0.002004
   117  H   -0.012564
   118  H   -0.038774
   119  H   -0.022271
   120  H   -0.035448
   121  H   -0.023886
   122  H   -0.039790
   123  H   -0.035472
   124  H   -0.041048
   125  H   -0.017147
   126  H   -0.014298
   127  H   -0.015061
   128  H   -0.031521
   129  H   -0.026675
   130  H   -0.031973
   131  H   -0.042723
   132  H   -0.030453
   133  H   -0.035144
   134  H   -0.033279
   135  H   -0.022882
   136  H   -0.009610
   137  H   -0.015336
   138  H   -0.010777
   139  H   -0.032075
   140  H   -0.009004
 Sum of Mulliken charges =  -0.00000

 Dipole moment (field-independent basis, Debye):
    X=             -4.5475    Y=              1.5787    Z=              2.3009  Tot=              5.3354
 Quadrupole moment (field-independent basis, Debye-Ang):
   XX=           -384.2871   YY=           -440.0517   ZZ=           -403.9048
   XY=             28.0235   XZ=              7.8196   YZ=             -9.6492

 Normal termination of Gaussian 16 at Thu Apr 28 11:22:53 2022.
