 Gaussian 16, Revision A.03,
 Gaussian 16:  ES64L-G16RevA.03 25-Dec-2016

 -----------------------------------
 #p cam-b3lyp/Def2SVP td=(nstates=5)
 -----------------------------------

 ------------------------------------------------------
 step_151_chromophore_6 TDDFT with cam-b3lyp functional
 ------------------------------------------------------
 Symbolic Z-matrix:
 Charge =  0 Multiplicity = 1

                         Standard orientation:
 ---------------------------------------------------------------------
 Center     Atomic      Atomic             Coordinates (Angstroms)
 Number     Number       Type             X           Y           Z
 ---------------------------------------------------------------------
      1         12           0        5.315021    1.234979    0.261118
      2          6           0        4.671660   -2.186787    0.215565
      3          6           0        1.903616    1.685145    0.186247
      4          6           0        5.752774    4.513422   -0.147387
      5          6           0        8.643308    0.566479   -0.045885
      6          7           0        3.604042   -0.121715    0.167138
      7          6           0        3.517755   -1.499652    0.154706
      8          6           0        2.063743   -2.034883    0.263203
      9          6           0        1.254003   -0.751171    0.022915
     10          6           0        2.328952    0.341293    0.059811
     11          6           0        0.364714   -0.700568   -1.320883
     12          6           0        1.821300   -2.768065    1.607920
     13          6           0        0.881453   -3.955518    1.559127
     14          6           0        0.080873   -4.348776    0.356261
     15          8           0        0.309413   -5.208691   -0.510781
     16          8           0       -1.019736   -3.585758    0.352493
     17          7           0        4.047929    2.891517    0.087519
     18          6           0        2.705201    2.894691    0.144257
     19          6           0        2.163065    4.131375    0.098549
     20          6           0        3.231004    5.017395    0.183847
     21          6           0        4.396080    4.173350    0.032384
     22          6           0        0.672094    4.482525   -0.051454
     23          6           0        3.255543    6.500087    0.311529
     24          8           0        4.263233    7.175763    0.297853
     25          6           0        2.056022    7.289624    0.770957
     26          7           0        6.941753    2.377175   -0.149807
     27          6           0        6.913237    3.716930   -0.275493
     28          6           0        8.248422    4.330699   -0.560934
     29          6           0        9.196818    3.108082   -0.369949
     30          6           0        8.220108    1.940635   -0.112764
     31          6           0        8.370243    4.910558   -1.948875
     32          6           0       10.213214    3.245173    0.823016
     33          6           0       11.755619    3.024740    0.414179
     34          7           0        6.508334   -0.477320    0.157670
     35          6           0        7.843792   -0.594608    0.168699
     36          6           0        8.201288   -1.986216    0.320898
     37          6           0        7.008367   -2.626803    0.330848
     38          6           0        6.014452   -1.681219    0.238745
     39          6           0        9.545210   -2.492207    0.393864
     40          6           0        6.380927   -3.980145    0.289909
     41          8           0        6.854249   -5.095831    0.336768
     42          6           0        4.843541   -3.743155    0.277189
     43          6           0        4.336451   -4.504510   -0.924068
     44          8           0        4.624235   -4.262101   -2.129705
     45          8           0        3.668103   -5.616228   -0.454589
     46          6           0        3.485369   -6.657028   -1.440299
     47          6           0       -2.044059   -3.962372   -0.687658
     48          6           0       -3.236887   -3.107171   -0.758940
     49          6           0       -4.511454   -3.389312   -1.041733
     50          6           0       -5.172953   -4.696385   -1.319749
     51          6           0       -5.594929   -2.316811   -0.793301
     52          6           0       -5.919571   -2.076390    0.707947
     53          6           0       -7.246466   -2.655175    1.274108
     54          6           0       -8.308755   -1.529924    1.604286
     55          6           0       -8.371099   -1.211311    3.154848
     56          6           0       -9.643004   -1.774954    0.827500
     57          6           0      -10.629047   -0.595001    1.055289
     58          6           0      -11.387513   -0.333283   -0.184103
     59          6           0      -12.919736   -0.340579   -0.001500
     60          6           0      -13.590314   -1.591314   -0.638425
     61          6           0      -13.557791    1.012078   -0.555812
     62          6           0      -13.277600    2.364748    0.090528
     63          6           0      -14.498013    3.293160    0.372014
     64          6           0      -14.590743    4.453890   -0.682542
     65          6           0      -14.878620    3.991794   -2.136709
     66          6           0      -15.563153    5.577832   -0.220971
     67          1           0        0.812908    1.726904    0.209065
     68          1           0        6.066754    5.544048   -0.324125
     69          1           0        9.708363    0.394079   -0.215389
     70          1           0        1.954014   -2.807450   -0.498342
     71          1           0        0.529085   -0.585985    0.819999
     72          1           0        0.851419    0.023058   -1.973922
     73          1           0       -0.668089   -0.486878   -1.043342
     74          1           0        0.322403   -1.702537   -1.747980
     75          1           0        1.242406   -2.122962    2.268619
     76          1           0        2.720962   -2.965690    2.190604
     77          1           0        0.232477   -3.894485    2.432547
     78          1           0        1.497141   -4.814641    1.824966
     79          1           0        0.628552    5.514475   -0.399714
     80          1           0       -0.001245    4.130962    0.730402
     81          1           0        0.251623    4.106953   -0.983715
     82          1           0        1.569014    6.690923    1.540888
     83          1           0        1.317990    7.511793    0.000508
     84          1           0        2.218380    8.278501    1.199098
     85          1           0        8.360638    5.188742    0.101492
     86          1           0        9.681066    2.835355   -1.307054
     87          1           0        9.061309    4.461984   -2.662062
     88          1           0        8.594188    5.973278   -1.854745
     89          1           0        7.387309    4.962786   -2.417597
     90          1           0        9.876685    2.496576    1.540028
     91          1           0       10.172887    4.217401    1.314382
     92          1           0       12.436156    3.710991    0.918476
     93          1           0       11.915188    3.086919   -0.662808
     94          1           0       11.976084    2.032838    0.805842
     95          1           0        9.700570   -3.303137    1.104757
     96          1           0       10.282049   -1.732133    0.654345
     97          1           0        9.773186   -2.759188   -0.638946
     98          1           0        4.405819   -4.083532    1.215445
     99          1           0        2.462979   -6.693514   -1.817889
    100          1           0        3.582557   -7.571656   -0.854310
    101          1           0        4.206132   -6.678286   -2.257217
    102          1           0       -2.360419   -5.004581   -0.644939
    103          1           0       -1.568570   -3.774599   -1.650712
    104          1           0       -3.135544   -2.116692   -0.315714
    105          1           0       -4.509545   -5.531092   -1.093250
    106          1           0       -5.550200   -4.776940   -2.338548
    107          1           0       -6.048139   -4.696824   -0.669576
    108          1           0       -6.482880   -2.613920   -1.350571
    109          1           0       -5.395744   -1.334399   -1.219685
    110          1           0       -5.905789   -1.014206    0.950217
    111          1           0       -5.140689   -2.545793    1.308803
    112          1           0       -7.017931   -3.201748    2.188919
    113          1           0       -7.726758   -3.322568    0.558863
    114          1           0       -8.034579   -0.605810    1.095704
    115          1           0       -9.357700   -1.580843    3.433694
    116          1           0       -8.299885   -0.153525    3.410393
    117          1           0       -7.705777   -1.794809    3.790966
    118          1           0      -10.074523   -2.656948    1.299832
    119          1           0       -9.574958   -1.972129   -0.242438
    120          1           0      -10.069969    0.318185    1.258792
    121          1           0      -11.189452   -0.863860    1.949586
    122          1           0      -11.200213   -1.082737   -0.954250
    123          1           0      -11.025507    0.624756   -0.558079
    124          1           0      -13.176282   -0.400061    1.055636
    125          1           0      -13.279697   -1.615377   -1.682967
    126          1           0      -14.680518   -1.594286   -0.623338
    127          1           0      -13.241920   -2.497558   -0.143454
    128          1           0      -14.630239    0.818439   -0.559886
    129          1           0      -13.191057    1.137880   -1.574047
    130          1           0      -12.576945    2.969585   -0.485376
    131          1           0      -12.828606    2.222007    1.074098
    132          1           0      -14.489468    3.597409    1.418392
    133          1           0      -15.418708    2.731275    0.217356
    134          1           0      -13.607163    4.923674   -0.680317
    135          1           0      -14.073407    4.236266   -2.829740
    136          1           0      -15.763691    4.459864   -2.566670
    137          1           0      -14.886370    2.901705   -2.140813
    138          1           0      -16.076739    5.408671    0.725952
    139          1           0      -16.366795    5.632001   -0.954425
    140          1           0      -14.948314    6.472045   -0.328326
 ---------------------------------------------------------------------

 SCF Done:  E(RCAM-B3LYP) =  -3007.15813924     A.U. after   17 cycles

 Excitation energies and oscillator strengths:

 Excited State   1:      Singlet-A      1.7143 eV  723.25 nm  f=0.3952  <S**2>=0.000
     245 -> 248        0.16443
     246 -> 247        0.68828
     245 <- 248        0.10020
 This state for optimization and/or second-order correction.
 Total Energy, E(TD-HF/TD-DFT) =  -3007.09514155
 Copying the excited state density for this state as the 1-particle RhoCI density.

 Excited State   2:      Singlet-A      2.2082 eV  561.47 nm  f=0.1723  <S**2>=0.000
     245 -> 247        0.65739
     246 -> 248       -0.24408

 Excited State   3:      Singlet-A      3.4128 eV  363.29 nm  f=0.0037  <S**2>=0.000
     243 -> 247        0.56150
     243 -> 248        0.20625
     243 -> 249        0.20404
     243 -> 251       -0.19061
     244 -> 247        0.13055

 Excited State   4:      Singlet-A      3.4883 eV  355.43 nm  f=0.0105  <S**2>=0.000
     241 -> 247       -0.15426
     244 -> 247        0.65413
     246 -> 248       -0.10583

 Excited State   5:      Singlet-A      3.6103 eV  343.41 nm  f=0.2939  <S**2>=0.000
     241 -> 247        0.35323
     243 -> 247       -0.11038
     244 -> 247        0.18255
     245 -> 247        0.16759
     246 -> 248        0.53292

 The electronic state is 1-A.
 Alpha  occ. eigenvalues --  -46.88033 -19.26225 -19.24687 -19.20060 -19.19086
 Alpha  occ. eigenvalues --  -19.19079 -19.18047 -14.41942 -14.41926 -14.39076
 Alpha  occ. eigenvalues --  -14.38471 -10.39957 -10.39101 -10.35041 -10.34358
 Alpha  occ. eigenvalues --  -10.32766 -10.30932 -10.30605 -10.30238 -10.30236
 Alpha  occ. eigenvalues --  -10.29717 -10.29577 -10.28909 -10.28773 -10.28415
 Alpha  occ. eigenvalues --  -10.28003 -10.27912 -10.27886 -10.27654 -10.27636
 Alpha  occ. eigenvalues --  -10.27589 -10.27310 -10.27229 -10.27202 -10.27150
 Alpha  occ. eigenvalues --  -10.26963 -10.26948 -10.26784 -10.26612 -10.26566
 Alpha  occ. eigenvalues --  -10.26460 -10.26434 -10.26293 -10.26240 -10.26148
 Alpha  occ. eigenvalues --  -10.26137 -10.25894 -10.25844 -10.25788 -10.25707
 Alpha  occ. eigenvalues --  -10.25653 -10.25419 -10.25400 -10.25332 -10.25233
 Alpha  occ. eigenvalues --  -10.25193 -10.25079 -10.24887 -10.24871 -10.24766
 Alpha  occ. eigenvalues --  -10.24756 -10.24567 -10.24434 -10.24403 -10.24231
 Alpha  occ. eigenvalues --  -10.24220  -3.16750  -1.91649  -1.91187  -1.91080
 Alpha  occ. eigenvalues --   -1.17259  -1.14807  -1.10272  -1.10164  -1.07143
 Alpha  occ. eigenvalues --   -1.05928  -1.05601  -1.05508  -1.04247  -1.03226
 Alpha  occ. eigenvalues --   -0.91933  -0.91368  -0.90331  -0.90088  -0.88762
 Alpha  occ. eigenvalues --   -0.88716  -0.88549  -0.87961  -0.87362  -0.87220
 Alpha  occ. eigenvalues --   -0.86700  -0.85867  -0.84624  -0.83491  -0.83350
 Alpha  occ. eigenvalues --   -0.82732  -0.81628  -0.81290  -0.80477  -0.80234
 Alpha  occ. eigenvalues --   -0.79949  -0.78633  -0.78205  -0.77090  -0.76296
 Alpha  occ. eigenvalues --   -0.75903  -0.75401  -0.75282  -0.75206  -0.74485
 Alpha  occ. eigenvalues --   -0.74052  -0.73071  -0.71479  -0.70975  -0.69111
 Alpha  occ. eigenvalues --   -0.68853  -0.68602  -0.67506  -0.66831  -0.66102
 Alpha  occ. eigenvalues --   -0.65719  -0.65266  -0.64391  -0.64100  -0.63990
 Alpha  occ. eigenvalues --   -0.63720  -0.63212  -0.62772  -0.61626  -0.60809
 Alpha  occ. eigenvalues --   -0.60691  -0.59698  -0.59233  -0.58562  -0.57881
 Alpha  occ. eigenvalues --   -0.57548  -0.56780  -0.56196  -0.56122  -0.55437
 Alpha  occ. eigenvalues --   -0.55194  -0.55097  -0.54467  -0.54319  -0.54062
 Alpha  occ. eigenvalues --   -0.53809  -0.53352  -0.53171  -0.53004  -0.52751
 Alpha  occ. eigenvalues --   -0.52575  -0.52488  -0.51994  -0.51931  -0.51696
 Alpha  occ. eigenvalues --   -0.51646  -0.51502  -0.51304  -0.51085  -0.50593
 Alpha  occ. eigenvalues --   -0.50447  -0.50047  -0.49912  -0.49750  -0.49732
 Alpha  occ. eigenvalues --   -0.49451  -0.49172  -0.49037  -0.48838  -0.48794
 Alpha  occ. eigenvalues --   -0.48623  -0.48454  -0.48084  -0.47959  -0.47694
 Alpha  occ. eigenvalues --   -0.47664  -0.47439  -0.47233  -0.47018  -0.46663
 Alpha  occ. eigenvalues --   -0.46395  -0.46239  -0.46014  -0.45931  -0.45723
 Alpha  occ. eigenvalues --   -0.45569  -0.45331  -0.44954  -0.44805  -0.44693
 Alpha  occ. eigenvalues --   -0.44642  -0.44410  -0.44382  -0.44293  -0.44172
 Alpha  occ. eigenvalues --   -0.43951  -0.43771  -0.43524  -0.43277  -0.43127
 Alpha  occ. eigenvalues --   -0.42959  -0.42708  -0.42461  -0.42038  -0.42003
 Alpha  occ. eigenvalues --   -0.41799  -0.41639  -0.41500  -0.41381  -0.41200
 Alpha  occ. eigenvalues --   -0.41044  -0.40922  -0.40435  -0.40302  -0.40116
 Alpha  occ. eigenvalues --   -0.39868  -0.39858  -0.39627  -0.39033  -0.38979
 Alpha  occ. eigenvalues --   -0.38790  -0.38275  -0.38032  -0.37938  -0.37757
 Alpha  occ. eigenvalues --   -0.37506  -0.37082  -0.37007  -0.36620  -0.36317
 Alpha  occ. eigenvalues --   -0.36285  -0.35217  -0.34988  -0.34849  -0.34357
 Alpha  occ. eigenvalues --   -0.33561  -0.33274  -0.32834  -0.31548  -0.30771
 Alpha  occ. eigenvalues --   -0.30475  -0.30330  -0.30099  -0.29941  -0.23644
 Alpha  occ. eigenvalues --   -0.21083
 Alpha virt. eigenvalues --   -0.08660  -0.01071   0.01293   0.02387   0.03005
 Alpha virt. eigenvalues --    0.03859   0.04975   0.05075   0.05947   0.06701
 Alpha virt. eigenvalues --    0.08403   0.08683   0.08929   0.09208   0.09302

 Mulliken charges:
               1
     1  Mg   0.855833
     2  C   -0.031950
     3  C   -0.115574
     4  C   -0.053669
     5  C   -0.081674
     6  N   -0.299485
     7  C   -0.077008
     8  C    0.012721
     9  C   -0.078767
    10  C    0.066041
    11  C    0.066218
    12  C    0.078715
    13  C    0.075858
    14  C    0.155109
    15  O   -0.249569
    16  O   -0.334074
    17  N   -0.312251
    18  C    0.160050
    19  C   -0.152719
    20  C   -0.009552
    21  C    0.120247
    22  C    0.143735
    23  C    0.000084
    24  O   -0.196744
    25  C    0.024035
    26  N   -0.312008
    27  C   -0.008636
    28  C   -0.027258
    29  C   -0.008149
    30  C    0.026843
    31  C    0.064205
    32  C    0.028473
    33  C   -0.015983
    34  N   -0.278299
    35  C    0.088671
    36  C   -0.190148
    37  C    0.021413
    38  C    0.095629
    39  C    0.121640
    40  C    0.060873
    41  O   -0.151435
    42  C   -0.007500
    43  C    0.234545
    44  O   -0.259561
    45  O   -0.318806
    46  C    0.173551
    47  C    0.306984
    48  C   -0.108582
    49  C   -0.189451
    50  C    0.103224
    51  C    0.049205
    52  C    0.021774
    53  C    0.061007
    54  C   -0.160316
    55  C    0.052515
    56  C    0.008800
    57  C    0.025812
    58  C    0.076491
    59  C   -0.106952
    60  C    0.033813
    61  C    0.011640
    62  C    0.030665
    63  C    0.027107
    64  C   -0.181199
    65  C    0.046979
    66  C    0.060115
    67  H   -0.034984
    68  H   -0.019530
    69  H   -0.027607
    70  H    0.031909
    71  H    0.014682
    72  H    0.034400
    73  H    0.017092
    74  H    0.017716
    75  H   -0.002636
    76  H    0.017387
    77  H    0.020551
    78  H    0.021961
    79  H   -0.006553
    80  H    0.039557
    81  H    0.008313
    82  H    0.027180
    83  H    0.032711
    84  H    0.021247
    85  H    0.019786
    86  H    0.016745
    87  H    0.021303
    88  H    0.007807
    89  H    0.012500
    90  H    0.015769
    91  H    0.013260
    92  H    0.017830
    93  H    0.022911
    94  H    0.018968
    95  H    0.036954
    96  H    0.000266
    97  H    0.035960
    98  H    0.037808
    99  H    0.040173
   100  H    0.021368
   101  H    0.049088
   102  H    0.029075
   103  H    0.038342
   104  H   -0.004606
   105  H    0.006733
   106  H    0.030720
   107  H    0.019020
   108  H   -0.011345
   109  H    0.002057
   110  H    0.003291
   111  H   -0.000514
   112  H   -0.006308
   113  H   -0.004659
   114  H   -0.007151
   115  H   -0.001980
   116  H    0.021534
   117  H    0.012229
   118  H   -0.011293
   119  H    0.004490
   120  H   -0.006673
   121  H    0.003761
   122  H   -0.010758
   123  H   -0.005194
   124  H   -0.010078
   125  H    0.004977
   126  H    0.010702
   127  H    0.008971
   128  H   -0.005092
   129  H   -0.001290
   130  H   -0.004264
   131  H   -0.012981
   132  H   -0.000359
   133  H   -0.007544
   134  H   -0.002646
   135  H    0.002167
   136  H    0.014682
   137  H    0.006816
   138  H    0.013584
   139  H   -0.008270
   140  H    0.014660
 Sum of Mulliken charges =  -0.00000

 Dipole moment (field-independent basis, Debye):
    X=             -5.0072    Y=              2.0420    Z=              2.4611  Tot=              5.9413
 Quadrupole moment (field-independent basis, Debye-Ang):
   XX=           -383.4960   YY=           -436.4147   ZZ=           -403.9323
   XY=             29.1866   XZ=              8.4322   YZ=            -10.0960

 Normal termination of Gaussian 16 at Thu Apr 28 10:33:09 2022.
