 Gaussian 16, Revision A.03,
 Gaussian 16:  ES64L-G16RevA.03 25-Dec-2016

 ---------------------------------
 #p PBE1PBE/Def2SVP td=(nstates=5)
 ---------------------------------

 ----------------------------------------------------
 step_151_chromophore_6 TDDFT with PBE1PBE functional
 ----------------------------------------------------
 Symbolic Z-matrix:
 Charge =  0 Multiplicity = 1

                         Standard orientation:
 ---------------------------------------------------------------------
 Center     Atomic      Atomic             Coordinates (Angstroms)
 Number     Number       Type             X           Y           Z
 ---------------------------------------------------------------------
      1         12           0        5.315021    1.234979    0.261118
      2          6           0        4.671660   -2.186787    0.215565
      3          6           0        1.903616    1.685145    0.186247
      4          6           0        5.752774    4.513422   -0.147387
      5          6           0        8.643308    0.566479   -0.045885
      6          7           0        3.604042   -0.121715    0.167138
      7          6           0        3.517755   -1.499652    0.154706
      8          6           0        2.063743   -2.034883    0.263203
      9          6           0        1.254003   -0.751171    0.022915
     10          6           0        2.328952    0.341293    0.059811
     11          6           0        0.364714   -0.700568   -1.320883
     12          6           0        1.821300   -2.768065    1.607920
     13          6           0        0.881453   -3.955518    1.559127
     14          6           0        0.080873   -4.348776    0.356261
     15          8           0        0.309413   -5.208691   -0.510781
     16          8           0       -1.019736   -3.585758    0.352493
     17          7           0        4.047929    2.891517    0.087519
     18          6           0        2.705201    2.894691    0.144257
     19          6           0        2.163065    4.131375    0.098549
     20          6           0        3.231004    5.017395    0.183847
     21          6           0        4.396080    4.173350    0.032384
     22          6           0        0.672094    4.482525   -0.051454
     23          6           0        3.255543    6.500087    0.311529
     24          8           0        4.263233    7.175763    0.297853
     25          6           0        2.056022    7.289624    0.770957
     26          7           0        6.941753    2.377175   -0.149807
     27          6           0        6.913237    3.716930   -0.275493
     28          6           0        8.248422    4.330699   -0.560934
     29          6           0        9.196818    3.108082   -0.369949
     30          6           0        8.220108    1.940635   -0.112764
     31          6           0        8.370243    4.910558   -1.948875
     32          6           0       10.213214    3.245173    0.823016
     33          6           0       11.755619    3.024740    0.414179
     34          7           0        6.508334   -0.477320    0.157670
     35          6           0        7.843792   -0.594608    0.168699
     36          6           0        8.201288   -1.986216    0.320898
     37          6           0        7.008367   -2.626803    0.330848
     38          6           0        6.014452   -1.681219    0.238745
     39          6           0        9.545210   -2.492207    0.393864
     40          6           0        6.380927   -3.980145    0.289909
     41          8           0        6.854249   -5.095831    0.336768
     42          6           0        4.843541   -3.743155    0.277189
     43          6           0        4.336451   -4.504510   -0.924068
     44          8           0        4.624235   -4.262101   -2.129705
     45          8           0        3.668103   -5.616228   -0.454589
     46          6           0        3.485369   -6.657028   -1.440299
     47          6           0       -2.044059   -3.962372   -0.687658
     48          6           0       -3.236887   -3.107171   -0.758940
     49          6           0       -4.511454   -3.389312   -1.041733
     50          6           0       -5.172953   -4.696385   -1.319749
     51          6           0       -5.594929   -2.316811   -0.793301
     52          6           0       -5.919571   -2.076390    0.707947
     53          6           0       -7.246466   -2.655175    1.274108
     54          6           0       -8.308755   -1.529924    1.604286
     55          6           0       -8.371099   -1.211311    3.154848
     56          6           0       -9.643004   -1.774954    0.827500
     57          6           0      -10.629047   -0.595001    1.055289
     58          6           0      -11.387513   -0.333283   -0.184103
     59          6           0      -12.919736   -0.340579   -0.001500
     60          6           0      -13.590314   -1.591314   -0.638425
     61          6           0      -13.557791    1.012078   -0.555812
     62          6           0      -13.277600    2.364748    0.090528
     63          6           0      -14.498013    3.293160    0.372014
     64          6           0      -14.590743    4.453890   -0.682542
     65          6           0      -14.878620    3.991794   -2.136709
     66          6           0      -15.563153    5.577832   -0.220971
     67          1           0        0.812908    1.726904    0.209065
     68          1           0        6.066754    5.544048   -0.324125
     69          1           0        9.708363    0.394079   -0.215389
     70          1           0        1.954014   -2.807450   -0.498342
     71          1           0        0.529085   -0.585985    0.819999
     72          1           0        0.851419    0.023058   -1.973922
     73          1           0       -0.668089   -0.486878   -1.043342
     74          1           0        0.322403   -1.702537   -1.747980
     75          1           0        1.242406   -2.122962    2.268619
     76          1           0        2.720962   -2.965690    2.190604
     77          1           0        0.232477   -3.894485    2.432547
     78          1           0        1.497141   -4.814641    1.824966
     79          1           0        0.628552    5.514475   -0.399714
     80          1           0       -0.001245    4.130962    0.730402
     81          1           0        0.251623    4.106953   -0.983715
     82          1           0        1.569014    6.690923    1.540888
     83          1           0        1.317990    7.511793    0.000508
     84          1           0        2.218380    8.278501    1.199098
     85          1           0        8.360638    5.188742    0.101492
     86          1           0        9.681066    2.835355   -1.307054
     87          1           0        9.061309    4.461984   -2.662062
     88          1           0        8.594188    5.973278   -1.854745
     89          1           0        7.387309    4.962786   -2.417597
     90          1           0        9.876685    2.496576    1.540028
     91          1           0       10.172887    4.217401    1.314382
     92          1           0       12.436156    3.710991    0.918476
     93          1           0       11.915188    3.086919   -0.662808
     94          1           0       11.976084    2.032838    0.805842
     95          1           0        9.700570   -3.303137    1.104757
     96          1           0       10.282049   -1.732133    0.654345
     97          1           0        9.773186   -2.759188   -0.638946
     98          1           0        4.405819   -4.083532    1.215445
     99          1           0        2.462979   -6.693514   -1.817889
    100          1           0        3.582557   -7.571656   -0.854310
    101          1           0        4.206132   -6.678286   -2.257217
    102          1           0       -2.360419   -5.004581   -0.644939
    103          1           0       -1.568570   -3.774599   -1.650712
    104          1           0       -3.135544   -2.116692   -0.315714
    105          1           0       -4.509545   -5.531092   -1.093250
    106          1           0       -5.550200   -4.776940   -2.338548
    107          1           0       -6.048139   -4.696824   -0.669576
    108          1           0       -6.482880   -2.613920   -1.350571
    109          1           0       -5.395744   -1.334399   -1.219685
    110          1           0       -5.905789   -1.014206    0.950217
    111          1           0       -5.140689   -2.545793    1.308803
    112          1           0       -7.017931   -3.201748    2.188919
    113          1           0       -7.726758   -3.322568    0.558863
    114          1           0       -8.034579   -0.605810    1.095704
    115          1           0       -9.357700   -1.580843    3.433694
    116          1           0       -8.299885   -0.153525    3.410393
    117          1           0       -7.705777   -1.794809    3.790966
    118          1           0      -10.074523   -2.656948    1.299832
    119          1           0       -9.574958   -1.972129   -0.242438
    120          1           0      -10.069969    0.318185    1.258792
    121          1           0      -11.189452   -0.863860    1.949586
    122          1           0      -11.200213   -1.082737   -0.954250
    123          1           0      -11.025507    0.624756   -0.558079
    124          1           0      -13.176282   -0.400061    1.055636
    125          1           0      -13.279697   -1.615377   -1.682967
    126          1           0      -14.680518   -1.594286   -0.623338
    127          1           0      -13.241920   -2.497558   -0.143454
    128          1           0      -14.630239    0.818439   -0.559886
    129          1           0      -13.191057    1.137880   -1.574047
    130          1           0      -12.576945    2.969585   -0.485376
    131          1           0      -12.828606    2.222007    1.074098
    132          1           0      -14.489468    3.597409    1.418392
    133          1           0      -15.418708    2.731275    0.217356
    134          1           0      -13.607163    4.923674   -0.680317
    135          1           0      -14.073407    4.236266   -2.829740
    136          1           0      -15.763691    4.459864   -2.566670
    137          1           0      -14.886370    2.901705   -2.140813
    138          1           0      -16.076739    5.408671    0.725952
    139          1           0      -16.366795    5.632001   -0.954425
    140          1           0      -14.948314    6.472045   -0.328326
 ---------------------------------------------------------------------

 SCF Done:  E(RPBE1PBE) =  -3005.34641460     A.U. after   15 cycles

 Excitation energies and oscillator strengths:

 Excited State   1:      Singlet-A      1.8711 eV  662.63 nm  f=0.3785  <S**2>=0.000
     245 -> 248        0.15761
     246 -> 247        0.69541
     246 <- 247       -0.11290
 This state for optimization and/or second-order correction.
 Total Energy, E(TD-HF/TD-DFT) =  -3005.27765293
 Copying the excited state density for this state as the 1-particle RhoCI density.

 Excited State   2:      Singlet-A      2.2264 eV  556.87 nm  f=0.1625  <S**2>=0.000
     245 -> 247        0.66521
     246 -> 248       -0.22168

 Excited State   3:      Singlet-A      2.8528 eV  434.61 nm  f=0.0004  <S**2>=0.000
     244 -> 247        0.67696
     244 -> 248        0.12968
     244 -> 250       -0.10667

 Excited State   4:      Singlet-A      3.1164 eV  397.84 nm  f=0.0003  <S**2>=0.000
     241 -> 247        0.67843
     241 -> 249       -0.15228

 Excited State   5:      Singlet-A      3.1656 eV  391.66 nm  f=0.0013  <S**2>=0.000
     243 -> 247        0.69837

 The electronic state is 1-A.
 Alpha  occ. eigenvalues --  -46.91441 -19.26896 -19.25359 -19.20366 -19.19352
 Alpha  occ. eigenvalues --  -19.19330 -19.18172 -14.41514 -14.41366 -14.38677
 Alpha  occ. eigenvalues --  -14.38106 -10.37002 -10.36142 -10.32249 -10.31410
 Alpha  occ. eigenvalues --  -10.30148 -10.28751 -10.28289 -10.28000 -10.27923
 Alpha  occ. eigenvalues --  -10.27195 -10.26961 -10.26703 -10.26351 -10.26214
 Alpha  occ. eigenvalues --  -10.25802 -10.25586 -10.25577 -10.25503 -10.25286
 Alpha  occ. eigenvalues --  -10.25229 -10.24945 -10.24917 -10.24805 -10.24792
 Alpha  occ. eigenvalues --  -10.24710 -10.24453 -10.24341 -10.24283 -10.24267
 Alpha  occ. eigenvalues --  -10.24075 -10.23991 -10.23807 -10.23764 -10.23716
 Alpha  occ. eigenvalues --  -10.23653 -10.23555 -10.23480 -10.23397 -10.23249
 Alpha  occ. eigenvalues --  -10.23228 -10.22926 -10.22849 -10.22816 -10.22718
 Alpha  occ. eigenvalues --  -10.22669 -10.22456 -10.22421 -10.22322 -10.22294
 Alpha  occ. eigenvalues --  -10.22271 -10.21975 -10.21974 -10.21952 -10.21949
 Alpha  occ. eigenvalues --  -10.21621  -3.13733  -1.86574  -1.86089  -1.85985
 Alpha  occ. eigenvalues --   -1.12084  -1.09598  -1.05053  -1.04829  -1.02009
 Alpha  occ. eigenvalues --   -1.00675  -1.00387  -1.00226  -0.98864  -0.97860
 Alpha  occ. eigenvalues --   -0.86300  -0.85516  -0.84519  -0.84218  -0.83066
 Alpha  occ. eigenvalues --   -0.83012  -0.82634  -0.82327  -0.81525  -0.81474
 Alpha  occ. eigenvalues --   -0.81013  -0.80120  -0.78820  -0.77743  -0.77641
 Alpha  occ. eigenvalues --   -0.76998  -0.75802  -0.75530  -0.74691  -0.74389
 Alpha  occ. eigenvalues --   -0.74223  -0.72916  -0.72434  -0.71417  -0.70518
 Alpha  occ. eigenvalues --   -0.70200  -0.69623  -0.69484  -0.69356  -0.68681
 Alpha  occ. eigenvalues --   -0.68348  -0.67515  -0.65846  -0.65339  -0.63466
 Alpha  occ. eigenvalues --   -0.63182  -0.62885  -0.62026  -0.61057  -0.60538
 Alpha  occ. eigenvalues --   -0.60157  -0.59495  -0.58962  -0.58656  -0.58521
 Alpha  occ. eigenvalues --   -0.57886  -0.57399  -0.56916  -0.56207  -0.55327
 Alpha  occ. eigenvalues --   -0.55105  -0.54202  -0.53816  -0.53186  -0.52491
 Alpha  occ. eigenvalues --   -0.51951  -0.51178  -0.50807  -0.50634  -0.50015
 Alpha  occ. eigenvalues --   -0.49775  -0.49651  -0.48893  -0.48792  -0.48541
 Alpha  occ. eigenvalues --   -0.48275  -0.47877  -0.47657  -0.47421  -0.47256
 Alpha  occ. eigenvalues --   -0.47113  -0.46999  -0.46562  -0.46439  -0.46329
 Alpha  occ. eigenvalues --   -0.46154  -0.46057  -0.45823  -0.45580  -0.45176
 Alpha  occ. eigenvalues --   -0.45094  -0.44571  -0.44485  -0.44351  -0.44283
 Alpha  occ. eigenvalues --   -0.44034  -0.43777  -0.43648  -0.43418  -0.43376
 Alpha  occ. eigenvalues --   -0.43219  -0.43082  -0.42663  -0.42649  -0.42339
 Alpha  occ. eigenvalues --   -0.42242  -0.42165  -0.41793  -0.41688  -0.41355
 Alpha  occ. eigenvalues --   -0.41065  -0.40833  -0.40651  -0.40636  -0.40460
 Alpha  occ. eigenvalues --   -0.40315  -0.39954  -0.39741  -0.39557  -0.39392
 Alpha  occ. eigenvalues --   -0.39292  -0.39188  -0.39105  -0.39006  -0.38870
 Alpha  occ. eigenvalues --   -0.38763  -0.38541  -0.38330  -0.38075  -0.37918
 Alpha  occ. eigenvalues --   -0.37769  -0.37549  -0.37214  -0.36833  -0.36791
 Alpha  occ. eigenvalues --   -0.36666  -0.36467  -0.36262  -0.36220  -0.36034
 Alpha  occ. eigenvalues --   -0.35813  -0.35758  -0.35199  -0.35064  -0.35035
 Alpha  occ. eigenvalues --   -0.34779  -0.34656  -0.34465  -0.33932  -0.33800
 Alpha  occ. eigenvalues --   -0.33605  -0.33265  -0.32923  -0.32868  -0.32640
 Alpha  occ. eigenvalues --   -0.32437  -0.32043  -0.31916  -0.31414  -0.31390
 Alpha  occ. eigenvalues --   -0.31080  -0.30182  -0.30010  -0.29891  -0.29151
 Alpha  occ. eigenvalues --   -0.28671  -0.28290  -0.28143  -0.27123  -0.26090
 Alpha  occ. eigenvalues --   -0.25663  -0.25620  -0.25567  -0.24780  -0.20587
 Alpha  occ. eigenvalues --   -0.18669
 Alpha virt. eigenvalues --   -0.11066  -0.04709  -0.02907  -0.01704  -0.00723
 Alpha virt. eigenvalues --   -0.00131   0.00398   0.00564   0.01811   0.03293
 Alpha virt. eigenvalues --    0.04266   0.04778   0.05440   0.05791   0.06040

 Mulliken charges:
               1
     1  Mg   1.007460
     2  C   -0.050977
     3  C   -0.087425
     4  C   -0.042918
     5  C   -0.070946
     6  N   -0.403525
     7  C   -0.003887
     8  C   -0.056788
     9  C   -0.151781
    10  C    0.098835
    11  C    0.007382
    12  C    0.028408
    13  C    0.010676
    14  C    0.211282
    15  O   -0.283431
    16  O   -0.362649
    17  N   -0.433794
    18  C    0.168089
    19  C   -0.170701
    20  C   -0.066512
    21  C    0.148698
    22  C    0.083539
    23  C    0.058995
    24  O   -0.234061
    25  C   -0.051383
    26  N   -0.424742
    27  C    0.029994
    28  C   -0.104673
    29  C   -0.087454
    30  C    0.062799
    31  C    0.012334
    32  C   -0.026401
    33  C   -0.088984
    34  N   -0.414010
    35  C    0.114781
    36  C   -0.224511
    37  C   -0.029754
    38  C    0.158139
    39  C    0.071648
    40  C    0.168434
    41  O   -0.197876
    42  C   -0.110652
    43  C    0.317402
    44  O   -0.292333
    45  O   -0.350128
    46  C    0.119690
    47  C    0.266044
    48  C   -0.124493
    49  C   -0.228541
    50  C    0.034006
    51  C   -0.017492
    52  C   -0.040057
    53  C    0.007264
    54  C   -0.240329
    55  C   -0.009018
    56  C   -0.049172
    57  C   -0.034061
    58  C    0.023249
    59  C   -0.192083
    60  C   -0.028231
    61  C   -0.044170
    62  C   -0.031646
    63  C   -0.027878
    64  C   -0.272696
    65  C   -0.014893
    66  C   -0.000389
    67  H   -0.002763
    68  H    0.011861
    69  H    0.005134
    70  H    0.074156
    71  H    0.050281
    72  H    0.061925
    73  H    0.044147
    74  H    0.046935
    75  H    0.030153
    76  H    0.048306
    77  H    0.052479
    78  H    0.054817
    79  H    0.022591
    80  H    0.065367
    81  H    0.036523
    82  H    0.055041
    83  H    0.057751
    84  H    0.048914
    85  H    0.054915
    86  H    0.052980
    87  H    0.047366
    88  H    0.035406
    89  H    0.041129
    90  H    0.049117
    91  H    0.045386
    92  H    0.045610
    93  H    0.049492
    94  H    0.046193
    95  H    0.063698
    96  H    0.027460
    97  H    0.064794
    98  H    0.075616
    99  H    0.062719
   100  H    0.043967
   101  H    0.070033
   102  H    0.055528
   103  H    0.065978
   104  H    0.025757
   105  H    0.034649
   106  H    0.058996
   107  H    0.049981
   108  H    0.021998
   109  H    0.034806
   110  H    0.035004
   111  H    0.032707
   112  H    0.026380
   113  H    0.026988
   114  H    0.032371
   115  H    0.026719
   116  H    0.047921
   117  H    0.038870
   118  H    0.023713
   119  H    0.035780
   120  H    0.025639
   121  H    0.034413
   122  H    0.021085
   123  H    0.027678
   124  H    0.028418
   125  H    0.032749
   126  H    0.038084
   127  H    0.038035
   128  H    0.025736
   129  H    0.031291
   130  H    0.027434
   131  H    0.021112
   132  H    0.031052
   133  H    0.026510
   134  H    0.035946
   135  H    0.029664
   136  H    0.040883
   137  H    0.037375
   138  H    0.040065
   139  H    0.019558
   140  H    0.041928
 Sum of Mulliken charges =  -0.00000

 Dipole moment (field-independent basis, Debye):
    X=             -4.9435    Y=              1.9171    Z=              2.4616  Tot=              5.8457
 Quadrupole moment (field-independent basis, Debye-Ang):
   XX=           -377.1464   YY=           -433.6824   ZZ=           -401.5146
   XY=             29.5233   XZ=              8.1704   YZ=            -10.3155

 Normal termination of Gaussian 16 at Thu Apr 28 10:48:16 2022.
