 Gaussian 16, Revision A.03,
 Gaussian 16:  ES64L-G16RevA.03 25-Dec-2016

 --------------------------------
 #p wB97XD/Def2SVP td=(nstates=5)
 --------------------------------

 ---------------------------------------------------
 step_151_chromophore_6 TDDFT with wB97XD functional
 ---------------------------------------------------
 Symbolic Z-matrix:
 Charge =  0 Multiplicity = 1

                         Standard orientation:
 ---------------------------------------------------------------------
 Center     Atomic      Atomic             Coordinates (Angstroms)
 Number     Number       Type             X           Y           Z
 ---------------------------------------------------------------------
      1         12           0        5.315021    1.234979    0.261118
      2          6           0        4.671660   -2.186787    0.215565
      3          6           0        1.903616    1.685145    0.186247
      4          6           0        5.752774    4.513422   -0.147387
      5          6           0        8.643308    0.566479   -0.045885
      6          7           0        3.604042   -0.121715    0.167138
      7          6           0        3.517755   -1.499652    0.154706
      8          6           0        2.063743   -2.034883    0.263203
      9          6           0        1.254003   -0.751171    0.022915
     10          6           0        2.328952    0.341293    0.059811
     11          6           0        0.364714   -0.700568   -1.320883
     12          6           0        1.821300   -2.768065    1.607920
     13          6           0        0.881453   -3.955518    1.559127
     14          6           0        0.080873   -4.348776    0.356261
     15          8           0        0.309413   -5.208691   -0.510781
     16          8           0       -1.019736   -3.585758    0.352493
     17          7           0        4.047929    2.891517    0.087519
     18          6           0        2.705201    2.894691    0.144257
     19          6           0        2.163065    4.131375    0.098549
     20          6           0        3.231004    5.017395    0.183847
     21          6           0        4.396080    4.173350    0.032384
     22          6           0        0.672094    4.482525   -0.051454
     23          6           0        3.255543    6.500087    0.311529
     24          8           0        4.263233    7.175763    0.297853
     25          6           0        2.056022    7.289624    0.770957
     26          7           0        6.941753    2.377175   -0.149807
     27          6           0        6.913237    3.716930   -0.275493
     28          6           0        8.248422    4.330699   -0.560934
     29          6           0        9.196818    3.108082   -0.369949
     30          6           0        8.220108    1.940635   -0.112764
     31          6           0        8.370243    4.910558   -1.948875
     32          6           0       10.213214    3.245173    0.823016
     33          6           0       11.755619    3.024740    0.414179
     34          7           0        6.508334   -0.477320    0.157670
     35          6           0        7.843792   -0.594608    0.168699
     36          6           0        8.201288   -1.986216    0.320898
     37          6           0        7.008367   -2.626803    0.330848
     38          6           0        6.014452   -1.681219    0.238745
     39          6           0        9.545210   -2.492207    0.393864
     40          6           0        6.380927   -3.980145    0.289909
     41          8           0        6.854249   -5.095831    0.336768
     42          6           0        4.843541   -3.743155    0.277189
     43          6           0        4.336451   -4.504510   -0.924068
     44          8           0        4.624235   -4.262101   -2.129705
     45          8           0        3.668103   -5.616228   -0.454589
     46          6           0        3.485369   -6.657028   -1.440299
     47          6           0       -2.044059   -3.962372   -0.687658
     48          6           0       -3.236887   -3.107171   -0.758940
     49          6           0       -4.511454   -3.389312   -1.041733
     50          6           0       -5.172953   -4.696385   -1.319749
     51          6           0       -5.594929   -2.316811   -0.793301
     52          6           0       -5.919571   -2.076390    0.707947
     53          6           0       -7.246466   -2.655175    1.274108
     54          6           0       -8.308755   -1.529924    1.604286
     55          6           0       -8.371099   -1.211311    3.154848
     56          6           0       -9.643004   -1.774954    0.827500
     57          6           0      -10.629047   -0.595001    1.055289
     58          6           0      -11.387513   -0.333283   -0.184103
     59          6           0      -12.919736   -0.340579   -0.001500
     60          6           0      -13.590314   -1.591314   -0.638425
     61          6           0      -13.557791    1.012078   -0.555812
     62          6           0      -13.277600    2.364748    0.090528
     63          6           0      -14.498013    3.293160    0.372014
     64          6           0      -14.590743    4.453890   -0.682542
     65          6           0      -14.878620    3.991794   -2.136709
     66          6           0      -15.563153    5.577832   -0.220971
     67          1           0        0.812908    1.726904    0.209065
     68          1           0        6.066754    5.544048   -0.324125
     69          1           0        9.708363    0.394079   -0.215389
     70          1           0        1.954014   -2.807450   -0.498342
     71          1           0        0.529085   -0.585985    0.819999
     72          1           0        0.851419    0.023058   -1.973922
     73          1           0       -0.668089   -0.486878   -1.043342
     74          1           0        0.322403   -1.702537   -1.747980
     75          1           0        1.242406   -2.122962    2.268619
     76          1           0        2.720962   -2.965690    2.190604
     77          1           0        0.232477   -3.894485    2.432547
     78          1           0        1.497141   -4.814641    1.824966
     79          1           0        0.628552    5.514475   -0.399714
     80          1           0       -0.001245    4.130962    0.730402
     81          1           0        0.251623    4.106953   -0.983715
     82          1           0        1.569014    6.690923    1.540888
     83          1           0        1.317990    7.511793    0.000508
     84          1           0        2.218380    8.278501    1.199098
     85          1           0        8.360638    5.188742    0.101492
     86          1           0        9.681066    2.835355   -1.307054
     87          1           0        9.061309    4.461984   -2.662062
     88          1           0        8.594188    5.973278   -1.854745
     89          1           0        7.387309    4.962786   -2.417597
     90          1           0        9.876685    2.496576    1.540028
     91          1           0       10.172887    4.217401    1.314382
     92          1           0       12.436156    3.710991    0.918476
     93          1           0       11.915188    3.086919   -0.662808
     94          1           0       11.976084    2.032838    0.805842
     95          1           0        9.700570   -3.303137    1.104757
     96          1           0       10.282049   -1.732133    0.654345
     97          1           0        9.773186   -2.759188   -0.638946
     98          1           0        4.405819   -4.083532    1.215445
     99          1           0        2.462979   -6.693514   -1.817889
    100          1           0        3.582557   -7.571656   -0.854310
    101          1           0        4.206132   -6.678286   -2.257217
    102          1           0       -2.360419   -5.004581   -0.644939
    103          1           0       -1.568570   -3.774599   -1.650712
    104          1           0       -3.135544   -2.116692   -0.315714
    105          1           0       -4.509545   -5.531092   -1.093250
    106          1           0       -5.550200   -4.776940   -2.338548
    107          1           0       -6.048139   -4.696824   -0.669576
    108          1           0       -6.482880   -2.613920   -1.350571
    109          1           0       -5.395744   -1.334399   -1.219685
    110          1           0       -5.905789   -1.014206    0.950217
    111          1           0       -5.140689   -2.545793    1.308803
    112          1           0       -7.017931   -3.201748    2.188919
    113          1           0       -7.726758   -3.322568    0.558863
    114          1           0       -8.034579   -0.605810    1.095704
    115          1           0       -9.357700   -1.580843    3.433694
    116          1           0       -8.299885   -0.153525    3.410393
    117          1           0       -7.705777   -1.794809    3.790966
    118          1           0      -10.074523   -2.656948    1.299832
    119          1           0       -9.574958   -1.972129   -0.242438
    120          1           0      -10.069969    0.318185    1.258792
    121          1           0      -11.189452   -0.863860    1.949586
    122          1           0      -11.200213   -1.082737   -0.954250
    123          1           0      -11.025507    0.624756   -0.558079
    124          1           0      -13.176282   -0.400061    1.055636
    125          1           0      -13.279697   -1.615377   -1.682967
    126          1           0      -14.680518   -1.594286   -0.623338
    127          1           0      -13.241920   -2.497558   -0.143454
    128          1           0      -14.630239    0.818439   -0.559886
    129          1           0      -13.191057    1.137880   -1.574047
    130          1           0      -12.576945    2.969585   -0.485376
    131          1           0      -12.828606    2.222007    1.074098
    132          1           0      -14.489468    3.597409    1.418392
    133          1           0      -15.418708    2.731275    0.217356
    134          1           0      -13.607163    4.923674   -0.680317
    135          1           0      -14.073407    4.236266   -2.829740
    136          1           0      -15.763691    4.459864   -2.566670
    137          1           0      -14.886370    2.901705   -2.140813
    138          1           0      -16.076739    5.408671    0.725952
    139          1           0      -16.366795    5.632001   -0.954425
    140          1           0      -14.948314    6.472045   -0.328326
 ---------------------------------------------------------------------

 SCF Done:  E(RwB97XD) =  -3007.85556733     A.U. after   19 cycles

 Excitation energies and oscillator strengths:

 Excited State   1:      Singlet-A      1.6586 eV  747.53 nm  f=0.3951  <S**2>=0.000
     245 -> 248        0.17004
     246 -> 247        0.68601
     245 <- 248        0.10899
 This state for optimization and/or second-order correction.
 Total Energy, E(TD-HF/TD-DFT) =  -3007.79461514
 Copying the excited state density for this state as the 1-particle RhoCI density.

 Excited State   2:      Singlet-A      2.1532 eV  575.82 nm  f=0.1691  <S**2>=0.000
     245 -> 247        0.65581
     246 -> 248       -0.24671

 Excited State   3:      Singlet-A      3.4329 eV  361.16 nm  f=0.0033  <S**2>=0.000
     244 -> 247        0.55724
     244 -> 248        0.22229
     244 -> 249        0.22885
     244 -> 250        0.21603

 Excited State   4:      Singlet-A      3.5129 eV  352.94 nm  f=0.0153  <S**2>=0.000
     241 -> 247        0.18363
     243 -> 247        0.63414
     246 -> 248       -0.12985

 Excited State   5:      Singlet-A      3.6295 eV  341.60 nm  f=0.3124  <S**2>=0.000
     240 -> 247        0.15935
     241 -> 247       -0.30004
     243 -> 247        0.23829
     245 -> 247        0.16839
     246 -> 248        0.53132

 The electronic state is 1-A.
 Alpha  occ. eigenvalues --  -46.94381 -19.31438 -19.29897 -19.24984 -19.24134
 Alpha  occ. eigenvalues --  -19.24054 -19.23068 -14.46544 -14.46508 -14.43680
 Alpha  occ. eigenvalues --  -14.43036 -10.43759 -10.42974 -10.39065 -10.38319
 Alpha  occ. eigenvalues --  -10.36663 -10.34930 -10.34631 -10.34251 -10.34246
 Alpha  occ. eigenvalues --  -10.33613 -10.33436 -10.32906 -10.32797 -10.32476
 Alpha  occ. eigenvalues --  -10.32044 -10.31967 -10.31850 -10.31686 -10.31624
 Alpha  occ. eigenvalues --  -10.31585 -10.31367 -10.31355 -10.31171 -10.31092
 Alpha  occ. eigenvalues --  -10.31041 -10.30923 -10.30855 -10.30624 -10.30555
 Alpha  occ. eigenvalues --  -10.30547 -10.30267 -10.30257 -10.30149 -10.30085
 Alpha  occ. eigenvalues --  -10.30068 -10.29960 -10.29842 -10.29667 -10.29612
 Alpha  occ. eigenvalues --  -10.29598 -10.29286 -10.29261 -10.29250 -10.29082
 Alpha  occ. eigenvalues --  -10.29057 -10.29026 -10.28810 -10.28712 -10.28709
 Alpha  occ. eigenvalues --  -10.28677 -10.28390 -10.28356 -10.28325 -10.28252
 Alpha  occ. eigenvalues --  -10.28037  -3.20510  -1.94104  -1.93619  -1.93515
 Alpha  occ. eigenvalues --   -1.19434  -1.16986  -1.12512  -1.12377  -1.09323
 Alpha  occ. eigenvalues --   -1.07974  -1.07770  -1.07592  -1.06252  -1.05235
 Alpha  occ. eigenvalues --   -0.93890  -0.93194  -0.92149  -0.91880  -0.90710
 Alpha  occ. eigenvalues --   -0.90580  -0.90313  -0.89896  -0.89163  -0.89131
 Alpha  occ. eigenvalues --   -0.88626  -0.87752  -0.86476  -0.85381  -0.85248
 Alpha  occ. eigenvalues --   -0.84628  -0.83466  -0.83199  -0.82396  -0.82064
 Alpha  occ. eigenvalues --   -0.81898  -0.80559  -0.80120  -0.78997  -0.78167
 Alpha  occ. eigenvalues --   -0.77822  -0.77207  -0.77192  -0.77040  -0.76336
 Alpha  occ. eigenvalues --   -0.75958  -0.75044  -0.73418  -0.72922  -0.71039
 Alpha  occ. eigenvalues --   -0.70777  -0.70517  -0.69513  -0.68699  -0.68026
 Alpha  occ. eigenvalues --   -0.67668  -0.67134  -0.66392  -0.66087  -0.65965
 Alpha  occ. eigenvalues --   -0.65552  -0.65048  -0.64586  -0.63613  -0.62808
 Alpha  occ. eigenvalues --   -0.62607  -0.61638  -0.61222  -0.60537  -0.59859
 Alpha  occ. eigenvalues --   -0.59486  -0.58663  -0.58176  -0.58061  -0.57398
 Alpha  occ. eigenvalues --   -0.57141  -0.57049  -0.56332  -0.56224  -0.55963
 Alpha  occ. eigenvalues --   -0.55696  -0.55265  -0.55075  -0.54933  -0.54646
 Alpha  occ. eigenvalues --   -0.54489  -0.54401  -0.53930  -0.53870  -0.53617
 Alpha  occ. eigenvalues --   -0.53531  -0.53396  -0.53197  -0.52958  -0.52507
 Alpha  occ. eigenvalues --   -0.52364  -0.51980  -0.51813  -0.51652  -0.51643
 Alpha  occ. eigenvalues --   -0.51395  -0.51094  -0.50975  -0.50780  -0.50699
 Alpha  occ. eigenvalues --   -0.50571  -0.50353  -0.49956  -0.49867  -0.49606
 Alpha  occ. eigenvalues --   -0.49525  -0.49382  -0.49092  -0.48919  -0.48571
 Alpha  occ. eigenvalues --   -0.48282  -0.48166  -0.47886  -0.47837  -0.47635
 Alpha  occ. eigenvalues --   -0.47472  -0.47181  -0.46854  -0.46700  -0.46582
 Alpha  occ. eigenvalues --   -0.46513  -0.46324  -0.46281  -0.46203  -0.46044
 Alpha  occ. eigenvalues --   -0.45893  -0.45690  -0.45431  -0.45205  -0.45008
 Alpha  occ. eigenvalues --   -0.44871  -0.44636  -0.44410  -0.43938  -0.43918
 Alpha  occ. eigenvalues --   -0.43716  -0.43608  -0.43362  -0.43312  -0.43119
 Alpha  occ. eigenvalues --   -0.42968  -0.42816  -0.42300  -0.42161  -0.42023
 Alpha  occ. eigenvalues --   -0.41754  -0.41722  -0.41507  -0.40931  -0.40838
 Alpha  occ. eigenvalues --   -0.40647  -0.40183  -0.39914  -0.39853  -0.39652
 Alpha  occ. eigenvalues --   -0.39454  -0.38974  -0.38920  -0.38461  -0.38402
 Alpha  occ. eigenvalues --   -0.38153  -0.37213  -0.36845  -0.36829  -0.36247
 Alpha  occ. eigenvalues --   -0.35558  -0.35129  -0.35045  -0.33742  -0.32774
 Alpha  occ. eigenvalues --   -0.32635  -0.32350  -0.32127  -0.32047  -0.25557
 Alpha  occ. eigenvalues --   -0.22899
 Alpha virt. eigenvalues --   -0.07007   0.00874   0.03368   0.04770   0.05822
 Alpha virt. eigenvalues --    0.06138   0.07136   0.07257   0.08457   0.09638
 Alpha virt. eigenvalues --    0.10981   0.11500   0.12238   0.12571   0.12799

 Mulliken charges:
               1
     1  Mg   0.995948
     2  C   -0.050139
     3  C   -0.113620
     4  C   -0.061937
     5  C   -0.088109
     6  N   -0.371006
     7  C   -0.034774
     8  C   -0.027703
     9  C   -0.129381
    10  C    0.088392
    11  C    0.021129
    12  C    0.035717
    13  C    0.023750
    14  C    0.199500
    15  O   -0.279183
    16  O   -0.361022
    17  N   -0.398214
    18  C    0.167796
    19  C   -0.166355
    20  C   -0.056628
    21  C    0.141524
    22  C    0.096552
    23  C    0.050860
    24  O   -0.227976
    25  C   -0.038685
    26  N   -0.388767
    27  C    0.017817
    28  C   -0.080456
    29  C   -0.060261
    30  C    0.051370
    31  C    0.018757
    32  C   -0.014737
    33  C   -0.071344
    34  N   -0.371232
    35  C    0.102155
    36  C   -0.210822
    37  C   -0.025677
    38  C    0.136995
    39  C    0.079404
    40  C    0.145079
    41  O   -0.188882
    42  C   -0.070647
    43  C    0.294742
    44  O   -0.287399
    45  O   -0.348418
    46  C    0.133672
    47  C    0.279956
    48  C   -0.132317
    49  C   -0.215596
    50  C    0.051445
    51  C    0.003260
    52  C   -0.024199
    53  C    0.022251
    54  C   -0.209973
    55  C    0.003218
    56  C   -0.030543
    57  C   -0.019215
    58  C    0.038371
    59  C   -0.163962
    60  C   -0.013911
    61  C   -0.025943
    62  C   -0.016778
    63  C   -0.011637
    64  C   -0.243490
    65  C    0.000162
    66  C    0.011711
    67  H   -0.009301
    68  H    0.007442
    69  H   -0.000835
    70  H    0.055928
    71  H    0.040299
    72  H    0.056133
    73  H    0.038736
    74  H    0.038943
    75  H    0.022411
    76  H    0.041315
    77  H    0.047687
    78  H    0.049249
    79  H    0.014578
    80  H    0.062902
    81  H    0.032181
    82  H    0.048206
    83  H    0.053905
    84  H    0.047951
    85  H    0.046369
    86  H    0.040183
    87  H    0.043116
    88  H    0.030323
    89  H    0.033918
    90  H    0.039419
    91  H    0.038056
    92  H    0.040491
    93  H    0.043281
    94  H    0.039366
    95  H    0.060374
    96  H    0.021364
    97  H    0.059759
    98  H    0.066552
    99  H    0.059815
   100  H    0.039817
   101  H    0.066280
   102  H    0.049390
   103  H    0.060603
   104  H    0.021773
   105  H    0.028872
   106  H    0.054202
   107  H    0.039934
   108  H    0.011824
   109  H    0.028495
   110  H    0.026825
   111  H    0.023445
   112  H    0.018647
   113  H    0.015115
   114  H    0.015254
   115  H    0.018169
   116  H    0.043465
   117  H    0.033680
   118  H    0.013167
   119  H    0.025940
   120  H    0.016470
   121  H    0.025258
   122  H    0.009197
   123  H    0.019860
   124  H    0.015891
   125  H    0.024911
   126  H    0.033136
   127  H    0.031540
   128  H    0.015020
   129  H    0.020790
   130  H    0.017790
   131  H    0.012393
   132  H    0.024884
   133  H    0.014720
   134  H    0.023024
   135  H    0.024436
   136  H    0.035260
   137  H    0.025993
   138  H    0.035211
   139  H    0.011926
   140  H    0.036687
 Sum of Mulliken charges =  -0.00000

 Dipole moment (field-independent basis, Debye):
    X=             -5.1149    Y=              2.0976    Z=              2.5110  Tot=              6.0719
 Quadrupole moment (field-independent basis, Debye-Ang):
   XX=           -378.4732   YY=           -431.9507   ZZ=           -401.1927
   XY=             29.3778   XZ=              8.4869   YZ=            -10.2170

 Normal termination of Gaussian 16 at Thu Apr 28 11:09:59 2022.
