 Gaussian 16, Revision A.03,
 Gaussian 16:  ES64L-G16RevA.03 25-Dec-2016

 --------------------
 #p ZINDO=(nstates=5)
 --------------------

 ----------------------------
 step_151_chromophore_6 ZINDO
 ----------------------------
 Symbolic Z-matrix:
 Charge =  0 Multiplicity = 1

                         Standard orientation:
 ---------------------------------------------------------------------
 Center     Atomic      Atomic             Coordinates (Angstroms)
 Number     Number       Type             X           Y           Z
 ---------------------------------------------------------------------
      1         12           0        5.315021    1.234979    0.261118
      2          6           0        4.671660   -2.186787    0.215565
      3          6           0        1.903616    1.685145    0.186247
      4          6           0        5.752774    4.513422   -0.147387
      5          6           0        8.643308    0.566479   -0.045885
      6          7           0        3.604042   -0.121715    0.167138
      7          6           0        3.517755   -1.499652    0.154706
      8          6           0        2.063743   -2.034883    0.263203
      9          6           0        1.254003   -0.751171    0.022915
     10          6           0        2.328952    0.341293    0.059811
     11          6           0        0.364714   -0.700568   -1.320883
     12          6           0        1.821300   -2.768065    1.607920
     13          6           0        0.881453   -3.955518    1.559127
     14          6           0        0.080873   -4.348776    0.356261
     15          8           0        0.309413   -5.208691   -0.510781
     16          8           0       -1.019736   -3.585758    0.352493
     17          7           0        4.047929    2.891517    0.087519
     18          6           0        2.705201    2.894691    0.144257
     19          6           0        2.163065    4.131375    0.098549
     20          6           0        3.231004    5.017395    0.183847
     21          6           0        4.396080    4.173350    0.032384
     22          6           0        0.672094    4.482525   -0.051454
     23          6           0        3.255543    6.500087    0.311529
     24          8           0        4.263233    7.175763    0.297853
     25          6           0        2.056022    7.289624    0.770957
     26          7           0        6.941753    2.377175   -0.149807
     27          6           0        6.913237    3.716930   -0.275493
     28          6           0        8.248422    4.330699   -0.560934
     29          6           0        9.196818    3.108082   -0.369949
     30          6           0        8.220108    1.940635   -0.112764
     31          6           0        8.370243    4.910558   -1.948875
     32          6           0       10.213214    3.245173    0.823016
     33          6           0       11.755619    3.024740    0.414179
     34          7           0        6.508334   -0.477320    0.157670
     35          6           0        7.843792   -0.594608    0.168699
     36          6           0        8.201288   -1.986216    0.320898
     37          6           0        7.008367   -2.626803    0.330848
     38          6           0        6.014452   -1.681219    0.238745
     39          6           0        9.545210   -2.492207    0.393864
     40          6           0        6.380927   -3.980145    0.289909
     41          8           0        6.854249   -5.095831    0.336768
     42          6           0        4.843541   -3.743155    0.277189
     43          6           0        4.336451   -4.504510   -0.924068
     44          8           0        4.624235   -4.262101   -2.129705
     45          8           0        3.668103   -5.616228   -0.454589
     46          6           0        3.485369   -6.657028   -1.440299
     47          6           0       -2.044059   -3.962372   -0.687658
     48          6           0       -3.236887   -3.107171   -0.758940
     49          6           0       -4.511454   -3.389312   -1.041733
     50          6           0       -5.172953   -4.696385   -1.319749
     51          6           0       -5.594929   -2.316811   -0.793301
     52          6           0       -5.919571   -2.076390    0.707947
     53          6           0       -7.246466   -2.655175    1.274108
     54          6           0       -8.308755   -1.529924    1.604286
     55          6           0       -8.371099   -1.211311    3.154848
     56          6           0       -9.643004   -1.774954    0.827500
     57          6           0      -10.629047   -0.595001    1.055289
     58          6           0      -11.387513   -0.333283   -0.184103
     59          6           0      -12.919736   -0.340579   -0.001500
     60          6           0      -13.590314   -1.591314   -0.638425
     61          6           0      -13.557791    1.012078   -0.555812
     62          6           0      -13.277600    2.364748    0.090528
     63          6           0      -14.498013    3.293160    0.372014
     64          6           0      -14.590743    4.453890   -0.682542
     65          6           0      -14.878620    3.991794   -2.136709
     66          6           0      -15.563153    5.577832   -0.220971
     67          1           0        0.812908    1.726904    0.209065
     68          1           0        6.066754    5.544048   -0.324125
     69          1           0        9.708363    0.394079   -0.215389
     70          1           0        1.954014   -2.807450   -0.498342
     71          1           0        0.529085   -0.585985    0.819999
     72          1           0        0.851419    0.023058   -1.973922
     73          1           0       -0.668089   -0.486878   -1.043342
     74          1           0        0.322403   -1.702537   -1.747980
     75          1           0        1.242406   -2.122962    2.268619
     76          1           0        2.720962   -2.965690    2.190604
     77          1           0        0.232477   -3.894485    2.432547
     78          1           0        1.497141   -4.814641    1.824966
     79          1           0        0.628552    5.514475   -0.399714
     80          1           0       -0.001245    4.130962    0.730402
     81          1           0        0.251623    4.106953   -0.983715
     82          1           0        1.569014    6.690923    1.540888
     83          1           0        1.317990    7.511793    0.000508
     84          1           0        2.218380    8.278501    1.199098
     85          1           0        8.360638    5.188742    0.101492
     86          1           0        9.681066    2.835355   -1.307054
     87          1           0        9.061309    4.461984   -2.662062
     88          1           0        8.594188    5.973278   -1.854745
     89          1           0        7.387309    4.962786   -2.417597
     90          1           0        9.876685    2.496576    1.540028
     91          1           0       10.172887    4.217401    1.314382
     92          1           0       12.436156    3.710991    0.918476
     93          1           0       11.915188    3.086919   -0.662808
     94          1           0       11.976084    2.032838    0.805842
     95          1           0        9.700570   -3.303137    1.104757
     96          1           0       10.282049   -1.732133    0.654345
     97          1           0        9.773186   -2.759188   -0.638946
     98          1           0        4.405819   -4.083532    1.215445
     99          1           0        2.462979   -6.693514   -1.817889
    100          1           0        3.582557   -7.571656   -0.854310
    101          1           0        4.206132   -6.678286   -2.257217
    102          1           0       -2.360419   -5.004581   -0.644939
    103          1           0       -1.568570   -3.774599   -1.650712
    104          1           0       -3.135544   -2.116692   -0.315714
    105          1           0       -4.509545   -5.531092   -1.093250
    106          1           0       -5.550200   -4.776940   -2.338548
    107          1           0       -6.048139   -4.696824   -0.669576
    108          1           0       -6.482880   -2.613920   -1.350571
    109          1           0       -5.395744   -1.334399   -1.219685
    110          1           0       -5.905789   -1.014206    0.950217
    111          1           0       -5.140689   -2.545793    1.308803
    112          1           0       -7.017931   -3.201748    2.188919
    113          1           0       -7.726758   -3.322568    0.558863
    114          1           0       -8.034579   -0.605810    1.095704
    115          1           0       -9.357700   -1.580843    3.433694
    116          1           0       -8.299885   -0.153525    3.410393
    117          1           0       -7.705777   -1.794809    3.790966
    118          1           0      -10.074523   -2.656948    1.299832
    119          1           0       -9.574958   -1.972129   -0.242438
    120          1           0      -10.069969    0.318185    1.258792
    121          1           0      -11.189452   -0.863860    1.949586
    122          1           0      -11.200213   -1.082737   -0.954250
    123          1           0      -11.025507    0.624756   -0.558079
    124          1           0      -13.176282   -0.400061    1.055636
    125          1           0      -13.279697   -1.615377   -1.682967
    126          1           0      -14.680518   -1.594286   -0.623338
    127          1           0      -13.241920   -2.497558   -0.143454
    128          1           0      -14.630239    0.818439   -0.559886
    129          1           0      -13.191057    1.137880   -1.574047
    130          1           0      -12.576945    2.969585   -0.485376
    131          1           0      -12.828606    2.222007    1.074098
    132          1           0      -14.489468    3.597409    1.418392
    133          1           0      -15.418708    2.731275    0.217356
    134          1           0      -13.607163    4.923674   -0.680317
    135          1           0      -14.073407    4.236266   -2.829740
    136          1           0      -15.763691    4.459864   -2.566670
    137          1           0      -14.886370    2.901705   -2.140813
    138          1           0      -16.076739    5.408671    0.725952
    139          1           0      -16.366795    5.632001   -0.954425
    140          1           0      -14.948314    6.472045   -0.328326
 ---------------------------------------------------------------------

 SCF Done:  E(RZINDO/S) =  -474.664075290     A.U. after   20 cycles

 Excitation energies and oscillator strengths:

 Excited State   1:      Singlet-A      1.2449 eV  995.94 nm  f=0.6292  <S**2>=0.000
     175 ->178         0.18208
     176 ->177         0.66446
 This state for optimization and/or second-order correction.
 Total Energy, E(CIS/TDA) =  -474.618326021
 Copying the excited state density for this state as the 1-particle RhoCI density.

 Excited State   2:      Singlet-A      1.9314 eV  641.93 nm  f=0.0952  <S**2>=0.000
     175 ->177         0.57878
     176 ->178        -0.37668

 Excited State   3:      Singlet-A      2.8012 eV  442.60 nm  f=0.0032  <S**2>=0.000
     169 ->177         0.24615
     169 ->178         0.17203
     169 ->179         0.19147
     169 ->180         0.20407
     169 ->181        -0.21201
     169 ->183        -0.12004
     169 ->186         0.17773
     170 ->177         0.19479
     170 ->178         0.13231
     170 ->179         0.14339
     170 ->180         0.15600
     170 ->181        -0.16200
     170 ->186         0.13728

 Excited State   4:      Singlet-A      3.0503 eV  406.47 nm  f=0.1981  <S**2>=0.000
     168 ->177         0.24299
     168 ->179        -0.38031
     168 ->180         0.13698
     168 ->183        -0.14590
     168 ->186        -0.15810
     168 ->187         0.11492
     170 ->179         0.13474
     175 ->177         0.14359
     176 ->178         0.25075
     176 ->179         0.13814

 Excited State   5:      Singlet-A      3.0622 eV  404.89 nm  f=0.7019  <S**2>=0.000
     168 ->177        -0.11914
     168 ->179         0.19934
     175 ->177         0.28482
     176 ->178         0.48135
     176 ->179         0.16902

 The electronic state is 1-A.
 Alpha  occ. eigenvalues --   -1.88637  -1.85968  -1.81721  -1.75290  -1.72314
 Alpha  occ. eigenvalues --   -1.71299  -1.65169  -1.60346  -1.60286  -1.58766
 Alpha  occ. eigenvalues --   -1.56429  -1.50897  -1.48437  -1.47974  -1.45324
 Alpha  occ. eigenvalues --   -1.44184  -1.42836  -1.41777  -1.39134  -1.38658
 Alpha  occ. eigenvalues --   -1.37049  -1.35762  -1.32933  -1.31955  -1.28665
 Alpha  occ. eigenvalues --   -1.27464  -1.25271  -1.22932  -1.20884  -1.18647
 Alpha  occ. eigenvalues --   -1.18148  -1.15537  -1.15196  -1.14694  -1.13692
 Alpha  occ. eigenvalues --   -1.12692  -1.11155  -1.10579  -1.05742  -1.03592
 Alpha  occ. eigenvalues --   -1.03400  -1.02085  -0.98899  -0.97957  -0.96827
 Alpha  occ. eigenvalues --   -0.95746  -0.94757  -0.94382  -0.93262  -0.91679
 Alpha  occ. eigenvalues --   -0.91597  -0.91116  -0.89174  -0.88454  -0.88248
 Alpha  occ. eigenvalues --   -0.86489  -0.85189  -0.83410  -0.81919  -0.80977
 Alpha  occ. eigenvalues --   -0.79548  -0.78479  -0.77160  -0.76816  -0.76635
 Alpha  occ. eigenvalues --   -0.75880  -0.75352  -0.74673  -0.73577  -0.72947
 Alpha  occ. eigenvalues --   -0.72398  -0.72184  -0.71617  -0.71189  -0.70495
 Alpha  occ. eigenvalues --   -0.70025  -0.69714  -0.68841  -0.68530  -0.68103
 Alpha  occ. eigenvalues --   -0.67426  -0.67136  -0.66452  -0.66193  -0.65432
 Alpha  occ. eigenvalues --   -0.64865  -0.64504  -0.64336  -0.63973  -0.63444
 Alpha  occ. eigenvalues --   -0.62919  -0.62805  -0.62239  -0.61882  -0.61655
 Alpha  occ. eigenvalues --   -0.61176  -0.61034  -0.60624  -0.60324  -0.60238
 Alpha  occ. eigenvalues --   -0.59646  -0.59403  -0.58749  -0.58356  -0.57947
 Alpha  occ. eigenvalues --   -0.57503  -0.57181  -0.56891  -0.56568  -0.56130
 Alpha  occ. eigenvalues --   -0.56029  -0.55612  -0.55189  -0.55178  -0.54740
 Alpha  occ. eigenvalues --   -0.54640  -0.54410  -0.53865  -0.53690  -0.53458
 Alpha  occ. eigenvalues --   -0.52889  -0.52519  -0.51854  -0.51601  -0.51333
 Alpha  occ. eigenvalues --   -0.51189  -0.50733  -0.50407  -0.49937  -0.49829
 Alpha  occ. eigenvalues --   -0.49752  -0.49461  -0.49419  -0.49280  -0.49044
 Alpha  occ. eigenvalues --   -0.48568  -0.48493  -0.48263  -0.48064  -0.47981
 Alpha  occ. eigenvalues --   -0.47701  -0.47325  -0.46868  -0.46644  -0.46484
 Alpha  occ. eigenvalues --   -0.46005  -0.45918  -0.45751  -0.45428  -0.45241
 Alpha  occ. eigenvalues --   -0.44995  -0.44829  -0.44736  -0.44380  -0.44170
 Alpha  occ. eigenvalues --   -0.43747  -0.43513  -0.42684  -0.42568  -0.42328
 Alpha  occ. eigenvalues --   -0.41860  -0.40662  -0.40500  -0.39215  -0.38543
 Alpha  occ. eigenvalues --   -0.37967  -0.37239  -0.35165  -0.34608  -0.34504
 Alpha  occ. eigenvalues --   -0.33375  -0.33034  -0.32419  -0.32303  -0.26411
 Alpha  occ. eigenvalues --   -0.21804
 Alpha virt. eigenvalues --   -0.08594  -0.01500  -0.00052   0.01375   0.01457
 Alpha virt. eigenvalues --    0.02324   0.02679   0.03414   0.04046   0.05135
 Alpha virt. eigenvalues --    0.06427   0.07420   0.08022   0.08182   0.08454

 Mulliken charges:
               1
     1  Mg   0.427170
     2  C   -0.056076
     3  C   -0.111217
     4  C   -0.064372
     5  C   -0.067523
     6  N   -0.297568
     7  C    0.120312
     8  C    0.012158
     9  C   -0.000335
    10  C    0.130706
    11  C   -0.056811
    12  C   -0.016369
    13  C    0.006983
    14  C    0.484115
    15  O   -0.527333
    16  O   -0.264107
    17  N   -0.314875
    18  C    0.121597
    19  C    0.008803
    20  C   -0.039383
    21  C    0.140590
    22  C   -0.060436
    23  C    0.325462
    24  O   -0.523444
    25  C   -0.027863
    26  N   -0.246256
    27  C    0.131634
    28  C    0.013013
    29  C    0.003401
    30  C    0.111068
    31  C   -0.051269
    32  C   -0.037739
    33  C   -0.064568
    34  N   -0.304020
    35  C    0.085131
    36  C    0.054970
    37  C   -0.051934
    38  C    0.130386
    39  C   -0.033274
    40  C    0.337385
    41  O   -0.506746
    42  C    0.045346
    43  C    0.488401
    44  O   -0.532200
    45  O   -0.254237
    46  C    0.076483
    47  C    0.108055
    48  C   -0.080578
    49  C   -0.008154
    50  C   -0.038998
    51  C   -0.023408
    52  C   -0.031777
    53  C   -0.038840
    54  C   -0.022401
    55  C   -0.058426
    56  C   -0.039629
    57  C   -0.035178
    58  C   -0.026019
    59  C   -0.015392
    60  C   -0.056394
    61  C   -0.036030
    62  C   -0.035256
    63  C   -0.036199
    64  C   -0.013912
    65  C   -0.057678
    66  C   -0.066175
    67  H    0.022669
    68  H    0.036090
    69  H    0.025675
    70  H    0.043027
    71  H    0.027787
    72  H    0.035973
    73  H    0.023413
    74  H    0.025747
    75  H    0.014155
    76  H    0.033667
    77  H    0.032721
    78  H    0.025872
    79  H    0.026745
    80  H    0.041941
    81  H    0.020685
    82  H    0.021088
    83  H    0.032599
    84  H    0.036046
    85  H    0.039799
    86  H    0.037938
    87  H    0.027716
    88  H    0.014366
    89  H    0.019327
    90  H    0.025659
    91  H    0.023115
    92  H    0.022489
    93  H    0.027136
    94  H    0.018716
    95  H    0.036861
    96  H    0.014767
    97  H    0.041143
    98  H    0.053223
    99  H    0.044410
   100  H    0.023312
   101  H    0.055877
   102  H    0.055354
   103  H    0.050065
   104  H    0.023846
   105  H    0.021096
   106  H    0.032399
   107  H    0.028506
   108  H    0.013457
   109  H    0.017155
   110  H    0.020748
   111  H    0.014767
   112  H    0.020014
   113  H    0.019770
   114  H    0.012827
   115  H    0.013595
   116  H    0.025508
   117  H    0.023817
   118  H    0.009821
   119  H    0.030121
   120  H    0.015643
   121  H    0.024263
   122  H    0.019129
   123  H    0.017376
   124  H    0.016782
   125  H    0.015681
   126  H    0.018999
   127  H    0.017214
   128  H    0.016093
   129  H    0.015643
   130  H    0.020535
   131  H    0.010000
   132  H    0.022976
   133  H    0.014276
   134  H    0.013182
   135  H    0.013071
   136  H    0.026181
   137  H    0.021432
   138  H    0.027798
   139  H    0.012781
   140  H    0.023549
 Sum of Mulliken charges =  -0.00000

 Dipole moment (field-independent basis, Debye):
    X=             -5.4720    Y=              2.5308    Z=              3.7393  Tot=              7.0944
 N-N= 4.274567684275D+03 E-N= 0.000000000000D+00  KE=-9.223800550371D+03
 Leave Link  601 at Thu Apr 28 11:22:59 2022, MaxMem=  6710886400 cpu:               0.8 elap:               0.0
 (Enter /sw/apps/gaussian-16.0/g16/l9999.exe)
 1\1\GINC-BP1-COMPUTE162\SP\RZINDO CIS\STO-3G\C55H74Mg1N4O6\OF15641\28-
 Apr-2022\0\\#p ZINDO=(nstates=5)\\step_151_chromophore_6 ZINDO\\0,1\Mg
 ,0,17.661,-1.471,27.346\C,0,16.553,0.309,30.126\C,0,19.717,-3.192,29.5
 04\C,0,19.147,-2.951,24.756\C,0,15.833,0.6,25.349\N,0,18.048,-1.356,29
 .494\C,0,17.506,-0.567,30.489\C,0,17.965,-0.963,31.919\C,0,19.125,-1.9
 21,31.606\C,0,19.002,-2.121,30.091\C,0,20.598,-1.439,32.05\C,0,16.795,
 -1.539,32.758\C,0,16.814,-1.215,34.238\C,0,17.945,-0.525,34.936\O,0,18

 Normal termination of Gaussian 16 at Thu Apr 28 11:23:00 2022.
