 Gaussian 16, Revision A.03,
 Gaussian 16:  ES64L-G16RevA.03 25-Dec-2016

 ------------------------------
 #p blyp/Def2SVP td=(nstates=5)
 ------------------------------

 --------------------------------------------------
 step_651_chromophore_10 TDDFT with blyp functional
 --------------------------------------------------
 Symbolic Z-matrix:
 Charge =  0 Multiplicity = 1

                         Standard orientation:
 ---------------------------------------------------------------------
 Center     Atomic      Atomic             Coordinates (Angstroms)
 Number     Number       Type             X           Y           Z
 ---------------------------------------------------------------------
      1         12           0        5.983926    0.527378    0.104678
      2          6           0        3.517014   -1.893166   -0.146846
      3          6           0        3.732589    2.677779   -1.506405
      4          6           0        8.381925    2.811067    0.041360
      5          6           0        8.313570   -2.032267    0.765804
      6          7           0        3.825902    0.448444   -0.724504
      7          6           0        3.071769   -0.637526   -0.643855
      8          6           0        1.651628   -0.372655   -1.223133
      9          6           0        1.939478    0.933742   -2.088843
     10          6           0        3.167519    1.442132   -1.296631
     11          6           0        2.276286    0.663972   -3.520383
     12          6           0        0.512008   -0.226930   -0.108228
     13          6           0       -0.737315   -1.073330   -0.382181
     14          6           0       -1.397975   -1.861709    0.747792
     15          8           0       -0.936415   -2.780754    1.317821
     16          8           0       -2.647990   -1.333556    1.023057
     17          7           0        5.991810    2.516649   -0.507554
     18          6           0        5.001677    3.230382   -1.127672
     19          6           0        5.363333    4.567443   -1.189100
     20          6           0        6.715030    4.640834   -0.670748
     21          6           0        7.089972    3.286838   -0.416400
     22          6           0        4.393366    5.712410   -1.628428
     23          6           0        7.463712    5.824341   -0.258248
     24          8           0        8.637503    5.830036    0.155165
     25          6           0        6.745914    7.143612   -0.123435
     26          7           0        8.062560    0.424081    0.389956
     27          6           0        8.811744    1.540035    0.397072
     28          6           0       10.287073    1.208033    0.757067
     29          6           0       10.228773   -0.309420    1.108116
     30          6           0        8.735636   -0.664145    0.734624
     31          6           0       11.231411    1.595042   -0.389341
     32          6           0       10.790384   -0.645759    2.493566
     33          6           0       10.057020   -0.227811    3.825308
     34          7           0        5.950457   -1.513380    0.264936
     35          6           0        7.010269   -2.463602    0.551781
     36          6           0        6.493614   -3.754029    0.776688
     37          6           0        5.101870   -3.577850    0.555598
     38          6           0        4.829633   -2.208186    0.225837
     39          6           0        7.231885   -5.035894    1.153394
     40          6           0        3.784383   -4.259758    0.432318
     41          8           0        3.519742   -5.406105    0.719041
     42          6           0        2.645038   -3.170986   -0.022864
     43          6           0        2.077552   -3.589729   -1.349268
     44          8           0        2.674916   -3.587201   -2.397368
     45          8           0        0.755617   -4.041696   -1.116667
     46          6           0        0.004743   -4.392303   -2.302302
     47          6           0       -3.546052   -2.017884    1.905162
     48          6           0       -4.983892   -1.894630    1.444038
     49          6           0       -5.598230   -2.465824    0.400578
     50          6           0       -4.961143   -3.546314   -0.403532
     51          6           0       -7.107450   -2.313622    0.183333
     52          6           0       -7.539973   -0.973383   -0.471050
     53          6           0       -8.522058   -1.292185   -1.684008
     54          6           0       -9.938417   -0.979632   -1.278574
     55          6           0      -10.908723   -1.325281   -2.457438
     56          6           0      -10.153743    0.550859   -0.911208
     57          6           0      -11.209772    0.747088    0.125628
     58          6           0      -10.739913    1.401213    1.540123
     59          6           0      -11.475249    2.687655    1.897996
     60          6           0      -10.546912    3.468451    2.901524
     61          6           0      -12.848572    2.485276    2.627158
     62          6           0      -14.096903    2.862919    1.710053
     63          6           0      -14.788420    1.629031    1.197860
     64          6           0      -15.127159    1.664365   -0.363410
     65          6           0      -16.705264    1.519372   -0.591787
     66          6           0      -14.363864    0.659343   -1.183463
     67          1           0        3.044239    3.280504   -2.103005
     68          1           0        9.223585    3.506165    0.063602
     69          1           0        8.972622   -2.886311    0.938111
     70          1           0        1.372671   -1.168334   -1.913796
     71          1           0        1.109390    1.632723   -1.981675
     72          1           0        2.292408   -0.394780   -3.778802
     73          1           0        3.186449    1.109494   -3.919303
     74          1           0        1.548316    1.248319   -4.083450
     75          1           0        0.231101    0.821733   -0.007277
     76          1           0        0.924950   -0.378539    0.889502
     77          1           0       -0.462606   -1.789173   -1.157065
     78          1           0       -1.523667   -0.416041   -0.752139
     79          1           0        3.400915    5.421041   -1.972996
     80          1           0        4.853611    6.329978   -2.399521
     81          1           0        4.202797    6.286731   -0.720815
     82          1           0        7.516231    7.875956    0.118352
     83          1           0        6.042584    7.094858    0.707862
     84          1           0        6.321537    7.282219   -1.118303
     85          1           0       10.538642    1.808578    1.631329
     86          1           0       10.778887   -0.828362    0.323881
     87          1           0       11.969693    0.796742   -0.317363
     88          1           0       11.647783    2.587599   -0.215941
     89          1           0       10.821475    1.569974   -1.399237
     90          1           0       11.771717   -0.209176    2.681999
     91          1           0       10.933643   -1.722782    2.408454
     92          1           0       10.801603    0.355021    4.368786
     93          1           0        9.633081   -1.073509    4.364801
     94          1           0        9.229128    0.463796    3.666752
     95          1           0        6.771290   -5.833775    0.570474
     96          1           0        6.931077   -5.197524    2.188302
     97          1           0        8.310577   -5.026340    0.993548
     98          1           0        1.817714   -2.922753    0.642073
     99          1           0       -0.068705   -5.477289   -2.388620
    100          1           0        0.453321   -4.003089   -3.216095
    101          1           0       -1.014483   -4.009585   -2.347706
    102          1           0       -3.372322   -1.557638    2.878536
    103          1           0       -3.337258   -3.084916    1.983953
    104          1           0       -5.711541   -1.287917    1.982097
    105          1           0       -4.922439   -3.386206   -1.480629
    106          1           0       -5.544177   -4.453797   -0.237255
    107          1           0       -3.938675   -3.659678   -0.044026
    108          1           0       -7.618751   -2.499139    1.127616
    109          1           0       -7.334540   -3.153393   -0.472479
    110          1           0       -6.716767   -0.352435   -0.825034
    111          1           0       -8.012849   -0.514426    0.396738
    112          1           0       -8.399154   -2.330299   -1.993660
    113          1           0       -8.179138   -0.799851   -2.594074
    114          1           0      -10.148136   -1.630574   -0.430403
    115          1           0      -10.456578   -2.104226   -3.071512
    116          1           0      -11.177068   -0.467512   -3.074073
    117          1           0      -11.799795   -1.861067   -2.130940
    118          1           0      -10.446317    1.053491   -1.832645
    119          1           0       -9.247674    1.068682   -0.597135
    120          1           0      -11.745647   -0.172307    0.363285
    121          1           0      -11.946018    1.380310   -0.369374
    122          1           0       -9.653166    1.479810    1.518532
    123          1           0      -10.901470    0.600251    2.261882
    124          1           0      -11.610884    3.435060    1.115961
    125          1           0       -9.494651    3.424785    2.618655
    126          1           0      -10.738897    3.031647    3.881391
    127          1           0      -10.971390    4.471335    2.865244
    128          1           0      -12.905616    3.126860    3.507289
    129          1           0      -12.985308    1.521883    3.120429
    130          1           0      -13.760382    3.505690    0.895992
    131          1           0      -14.905981    3.335013    2.266473
    132          1           0      -15.704388    1.505052    1.775751
    133          1           0      -14.087736    0.842013    1.478280
    134          1           0      -14.777220    2.621131   -0.751309
    135          1           0      -17.176266    0.768338    0.041558
    136          1           0      -16.935081    1.179269   -1.601906
    137          1           0      -17.329740    2.406182   -0.484186
    138          1           0      -13.701614    1.082259   -1.939582
    139          1           0      -15.019413   -0.059096   -1.674953
    140          1           0      -13.683657    0.011921   -0.629570
 ---------------------------------------------------------------------

 SCF Done:  E(RB-LYP) =  -3007.36690295     A.U. after   21 cycles

 Excitation energies and oscillator strengths:

 Excited State   1:      Singlet-A      1.5471 eV  801.42 nm  f=0.0017  <S**2>=0.000
     244 -> 247        0.58350
     245 -> 247        0.39729
 This state for optimization and/or second-order correction.
 Total Energy, E(TD-HF/TD-DFT) =  -3007.31004938
 Copying the excited state density for this state as the 1-particle RhoCI density.

 Excited State   2:      Singlet-A      1.8735 eV  661.78 nm  f=0.2597  <S**2>=0.000
     244 -> 248       -0.10144
     245 -> 248        0.17359
     246 -> 247        0.67889
     246 <- 247       -0.13663

 Excited State   3:      Singlet-A      1.9655 eV  630.80 nm  f=0.0116  <S**2>=0.000
     243 -> 247        0.67060
     244 -> 247       -0.12263
     245 -> 247        0.17286

 Excited State   4:      Singlet-A      2.0368 eV  608.72 nm  f=0.1301  <S**2>=0.000
     243 -> 247       -0.22233
     244 -> 247       -0.35322
     245 -> 247        0.50858
     246 -> 248       -0.21199

 Excited State   5:      Singlet-A      2.3806 eV  520.82 nm  f=0.0002  <S**2>=0.000
     241 -> 247        0.68152
     242 -> 247       -0.18379

 The electronic state is 1-A.
 Alpha  occ. eigenvalues --  -46.27091 -18.81918 -18.81150 -18.77513 -18.77051
 Alpha  occ. eigenvalues --  -18.76017 -18.74004 -14.03134 -14.02890 -14.00698
 Alpha  occ. eigenvalues --  -14.00607 -10.04033 -10.03752 -10.00227  -9.98243
 Alpha  occ. eigenvalues --   -9.97799  -9.97198  -9.97059  -9.96554  -9.95789
 Alpha  occ. eigenvalues --   -9.95478  -9.95437  -9.95388  -9.94931  -9.94520
 Alpha  occ. eigenvalues --   -9.94482  -9.94266  -9.94107  -9.93917  -9.93875
 Alpha  occ. eigenvalues --   -9.93552  -9.93528  -9.93391  -9.93379  -9.93255
 Alpha  occ. eigenvalues --   -9.93161  -9.93123  -9.93088  -9.92959  -9.92616
 Alpha  occ. eigenvalues --   -9.92504  -9.92484  -9.92364  -9.92344  -9.92159
 Alpha  occ. eigenvalues --   -9.92119  -9.92083  -9.91969  -9.91949  -9.91924
 Alpha  occ. eigenvalues --   -9.91846  -9.91814  -9.91741  -9.91555  -9.91455
 Alpha  occ. eigenvalues --   -9.91442  -9.91274  -9.91005  -9.90974  -9.90927
 Alpha  occ. eigenvalues --   -9.90872  -9.90798  -9.90790  -9.90773  -9.90535
 Alpha  occ. eigenvalues --   -9.90209  -2.91762  -1.72180  -1.71667  -1.71452
 Alpha  occ. eigenvalues --   -0.98587  -0.97150  -0.91892  -0.91344  -0.90649
 Alpha  occ. eigenvalues --   -0.89331  -0.87687  -0.86923  -0.85939  -0.85220
 Alpha  occ. eigenvalues --   -0.74435  -0.73843  -0.72848  -0.72536  -0.71992
 Alpha  occ. eigenvalues --   -0.71953  -0.71426  -0.70937  -0.70588  -0.70434
 Alpha  occ. eigenvalues --   -0.69649  -0.69351  -0.67964  -0.67310  -0.66913
 Alpha  occ. eigenvalues --   -0.66381  -0.65660  -0.65185  -0.64784  -0.64425
 Alpha  occ. eigenvalues --   -0.63801  -0.62644  -0.62322  -0.61585  -0.60653
 Alpha  occ. eigenvalues --   -0.60335  -0.59947  -0.59903  -0.59247  -0.58630
 Alpha  occ. eigenvalues --   -0.58586  -0.58085  -0.56688  -0.55883  -0.55266
 Alpha  occ. eigenvalues --   -0.53625  -0.53450  -0.52542  -0.52499  -0.51714
 Alpha  occ. eigenvalues --   -0.51509  -0.51244  -0.50572  -0.50214  -0.50180
 Alpha  occ. eigenvalues --   -0.49904  -0.49499  -0.49270  -0.47931  -0.46324
 Alpha  occ. eigenvalues --   -0.46180  -0.45961  -0.45133  -0.44875  -0.43886
 Alpha  occ. eigenvalues --   -0.43709  -0.43534  -0.43133  -0.42990  -0.42435
 Alpha  occ. eigenvalues --   -0.41858  -0.41649  -0.41496  -0.41298  -0.40978
 Alpha  occ. eigenvalues --   -0.40760  -0.40698  -0.40461  -0.40197  -0.40064
 Alpha  occ. eigenvalues --   -0.39950  -0.39679  -0.39526  -0.39270  -0.38943
 Alpha  occ. eigenvalues --   -0.38745  -0.38638  -0.38274  -0.38207  -0.38128
 Alpha  occ. eigenvalues --   -0.37891  -0.37532  -0.37488  -0.37386  -0.37308
 Alpha  occ. eigenvalues --   -0.37058  -0.36616  -0.36543  -0.36405  -0.36346
 Alpha  occ. eigenvalues --   -0.36256  -0.36109  -0.35847  -0.35620  -0.35375
 Alpha  occ. eigenvalues --   -0.35299  -0.35188  -0.35017  -0.34736  -0.34712
 Alpha  occ. eigenvalues --   -0.34459  -0.34119  -0.34099  -0.34036  -0.33960
 Alpha  occ. eigenvalues --   -0.33607  -0.33477  -0.33425  -0.33160  -0.33129
 Alpha  occ. eigenvalues --   -0.32877  -0.32759  -0.32554  -0.32386  -0.32309
 Alpha  occ. eigenvalues --   -0.32146  -0.31685  -0.31615  -0.31533  -0.31389
 Alpha  occ. eigenvalues --   -0.31275  -0.31087  -0.30999  -0.30824  -0.30756
 Alpha  occ. eigenvalues --   -0.30566  -0.30450  -0.30374  -0.29737  -0.29567
 Alpha  occ. eigenvalues --   -0.29433  -0.29277  -0.29188  -0.28990  -0.28874
 Alpha  occ. eigenvalues --   -0.28813  -0.28770  -0.28404  -0.28028  -0.27769
 Alpha  occ. eigenvalues --   -0.27558  -0.27495  -0.27308  -0.26768  -0.26494
 Alpha  occ. eigenvalues --   -0.26294  -0.25913  -0.25445  -0.25352  -0.25090
 Alpha  occ. eigenvalues --   -0.25023  -0.24843  -0.24786  -0.23994  -0.23558
 Alpha  occ. eigenvalues --   -0.23252  -0.22777  -0.22456  -0.21991  -0.20606
 Alpha  occ. eigenvalues --   -0.20337  -0.19840  -0.18705  -0.17244  -0.17057
 Alpha  occ. eigenvalues --   -0.16164
 Alpha virt. eigenvalues --   -0.11586  -0.06608  -0.05620  -0.04027  -0.03047
 Alpha virt. eigenvalues --   -0.02711  -0.02614  -0.02020  -0.00723   0.00511
 Alpha virt. eigenvalues --    0.01572   0.02137   0.02260   0.02347   0.02486

 Mulliken charges:
               1
     1  Mg   0.700097
     2  C   -0.006932
     3  C   -0.069904
     4  C   -0.015363
     5  C   -0.081768
     6  N   -0.120088
     7  C   -0.076264
     8  C   -0.046304
     9  C    0.003422
    10  C   -0.053818
    11  C    0.157323
    12  C    0.141020
    13  C    0.138216
    14  C    0.043959
    15  O   -0.127813
    16  O   -0.277982
    17  N   -0.274141
    18  C    0.161852
    19  C   -0.142269
    20  C    0.069847
    21  C    0.102767
    22  C    0.161454
    23  C   -0.125498
    24  O   -0.193712
    25  C    0.138084
    26  N   -0.196278
    27  C   -0.016611
    28  C   -0.011301
    29  C    0.064026
    30  C    0.040379
    31  C    0.126920
    32  C    0.078470
    33  C    0.059888
    34  N   -0.303324
    35  C    0.105973
    36  C   -0.175843
    37  C    0.081294
    38  C    0.065764
    39  C    0.186300
    40  C   -0.027893
    41  O   -0.115661
    42  C    0.076822
    43  C    0.101715
    44  O   -0.155276
    45  O   -0.279437
    46  C    0.205936
    47  C    0.332620
    48  C   -0.075657
    49  C   -0.181193
    50  C    0.138376
    51  C    0.117481
    52  C    0.084265
    53  C    0.091188
    54  C   -0.064353
    55  C    0.115140
    56  C    0.112035
    57  C    0.032360
    58  C    0.119434
    59  C   -0.043553
    60  C    0.083776
    61  C    0.086875
    62  C    0.063765
    63  C    0.102955
    64  C   -0.053075
    65  C    0.074647
    66  C    0.108117
    67  H   -0.071977
    68  H   -0.051791
    69  H   -0.065615
    70  H   -0.007690
    71  H   -0.039255
    72  H    0.015447
    73  H   -0.010038
    74  H   -0.018446
    75  H   -0.026885
    76  H   -0.016779
    77  H   -0.004764
    78  H   -0.014901
    79  H   -0.020076
    80  H    0.014875
    81  H    0.006150
    82  H   -0.014407
    83  H    0.016808
    84  H   -0.007272
    85  H   -0.020877
    86  H   -0.036274
    87  H   -0.016537
    88  H    0.008999
    89  H   -0.000791
    90  H   -0.018350
    91  H   -0.023280
    92  H   -0.006016
    93  H    0.005705
    94  H   -0.007055
    95  H    0.014860
    96  H    0.015593
    97  H   -0.000478
    98  H    0.008014
    99  H    0.017493
   100  H    0.004655
   101  H    0.007859
   102  H   -0.018818
   103  H    0.003775
   104  H   -0.055081
   105  H   -0.009252
   106  H    0.005036
   107  H   -0.012602
   108  H   -0.014139
   109  H   -0.045572
   110  H   -0.016634
   111  H   -0.010068
   112  H   -0.037725
   113  H   -0.045502
   114  H   -0.040761
   115  H   -0.035881
   116  H   -0.004981
   117  H   -0.018841
   118  H   -0.043624
   119  H   -0.035253
   120  H   -0.004309
   121  H   -0.027263
   122  H   -0.037449
   123  H   -0.040160
   124  H   -0.033811
   125  H   -0.012622
   126  H   -0.013675
   127  H   -0.017049
   128  H   -0.045964
   129  H   -0.035767
   130  H   -0.025562
   131  H   -0.036230
   132  H   -0.035103
   133  H   -0.031004
   134  H   -0.033080
   135  H   -0.013910
   136  H   -0.025019
   137  H   -0.017067
   138  H   -0.012281
   139  H   -0.032806
   140  H   -0.034103
 Sum of Mulliken charges =  -0.00000

 Dipole moment (field-independent basis, Debye):
    X=             -3.5156    Y=              1.3511    Z=             -0.5101  Tot=              3.8007
 Quadrupole moment (field-independent basis, Debye-Ang):
   XX=           -386.3047   YY=           -434.5403   ZZ=           -400.0345
   XY=            -16.5804   XZ=             12.2965   YZ=             -1.2462

 Normal termination of Gaussian 16 at Thu May  5 05:37:33 2022.
