 Gaussian 16, Revision A.03,
 Gaussian 16:  ES64L-G16RevA.03 25-Dec-2016

 -----------------------------------
 #p cam-b3lyp/Def2SVP td=(nstates=5)
 -----------------------------------

 -------------------------------------------------------
 step_651_chromophore_10 TDDFT with cam-b3lyp functional
 -------------------------------------------------------
 Symbolic Z-matrix:
 Charge =  0 Multiplicity = 1

                         Standard orientation:
 ---------------------------------------------------------------------
 Center     Atomic      Atomic             Coordinates (Angstroms)
 Number     Number       Type             X           Y           Z
 ---------------------------------------------------------------------
      1         12           0        5.983926    0.527378    0.104678
      2          6           0        3.517014   -1.893166   -0.146846
      3          6           0        3.732589    2.677779   -1.506405
      4          6           0        8.381925    2.811067    0.041360
      5          6           0        8.313570   -2.032267    0.765804
      6          7           0        3.825902    0.448444   -0.724504
      7          6           0        3.071769   -0.637526   -0.643855
      8          6           0        1.651628   -0.372655   -1.223133
      9          6           0        1.939478    0.933742   -2.088843
     10          6           0        3.167519    1.442132   -1.296631
     11          6           0        2.276286    0.663972   -3.520383
     12          6           0        0.512008   -0.226930   -0.108228
     13          6           0       -0.737315   -1.073330   -0.382181
     14          6           0       -1.397975   -1.861709    0.747792
     15          8           0       -0.936415   -2.780754    1.317821
     16          8           0       -2.647990   -1.333556    1.023057
     17          7           0        5.991810    2.516649   -0.507554
     18          6           0        5.001677    3.230382   -1.127672
     19          6           0        5.363333    4.567443   -1.189100
     20          6           0        6.715030    4.640834   -0.670748
     21          6           0        7.089972    3.286838   -0.416400
     22          6           0        4.393366    5.712410   -1.628428
     23          6           0        7.463712    5.824341   -0.258248
     24          8           0        8.637503    5.830036    0.155165
     25          6           0        6.745914    7.143612   -0.123435
     26          7           0        8.062560    0.424081    0.389956
     27          6           0        8.811744    1.540035    0.397072
     28          6           0       10.287073    1.208033    0.757067
     29          6           0       10.228773   -0.309420    1.108116
     30          6           0        8.735636   -0.664145    0.734624
     31          6           0       11.231411    1.595042   -0.389341
     32          6           0       10.790384   -0.645759    2.493566
     33          6           0       10.057020   -0.227811    3.825308
     34          7           0        5.950457   -1.513380    0.264936
     35          6           0        7.010269   -2.463602    0.551781
     36          6           0        6.493614   -3.754029    0.776688
     37          6           0        5.101870   -3.577850    0.555598
     38          6           0        4.829633   -2.208186    0.225837
     39          6           0        7.231885   -5.035894    1.153394
     40          6           0        3.784383   -4.259758    0.432318
     41          8           0        3.519742   -5.406105    0.719041
     42          6           0        2.645038   -3.170986   -0.022864
     43          6           0        2.077552   -3.589729   -1.349268
     44          8           0        2.674916   -3.587201   -2.397368
     45          8           0        0.755617   -4.041696   -1.116667
     46          6           0        0.004743   -4.392303   -2.302302
     47          6           0       -3.546052   -2.017884    1.905162
     48          6           0       -4.983892   -1.894630    1.444038
     49          6           0       -5.598230   -2.465824    0.400578
     50          6           0       -4.961143   -3.546314   -0.403532
     51          6           0       -7.107450   -2.313622    0.183333
     52          6           0       -7.539973   -0.973383   -0.471050
     53          6           0       -8.522058   -1.292185   -1.684008
     54          6           0       -9.938417   -0.979632   -1.278574
     55          6           0      -10.908723   -1.325281   -2.457438
     56          6           0      -10.153743    0.550859   -0.911208
     57          6           0      -11.209772    0.747088    0.125628
     58          6           0      -10.739913    1.401213    1.540123
     59          6           0      -11.475249    2.687655    1.897996
     60          6           0      -10.546912    3.468451    2.901524
     61          6           0      -12.848572    2.485276    2.627158
     62          6           0      -14.096903    2.862919    1.710053
     63          6           0      -14.788420    1.629031    1.197860
     64          6           0      -15.127159    1.664365   -0.363410
     65          6           0      -16.705264    1.519372   -0.591787
     66          6           0      -14.363864    0.659343   -1.183463
     67          1           0        3.044239    3.280504   -2.103005
     68          1           0        9.223585    3.506165    0.063602
     69          1           0        8.972622   -2.886311    0.938111
     70          1           0        1.372671   -1.168334   -1.913796
     71          1           0        1.109390    1.632723   -1.981675
     72          1           0        2.292408   -0.394780   -3.778802
     73          1           0        3.186449    1.109494   -3.919303
     74          1           0        1.548316    1.248319   -4.083450
     75          1           0        0.231101    0.821733   -0.007277
     76          1           0        0.924950   -0.378539    0.889502
     77          1           0       -0.462606   -1.789173   -1.157065
     78          1           0       -1.523667   -0.416041   -0.752139
     79          1           0        3.400915    5.421041   -1.972996
     80          1           0        4.853611    6.329978   -2.399521
     81          1           0        4.202797    6.286731   -0.720815
     82          1           0        7.516231    7.875956    0.118352
     83          1           0        6.042584    7.094858    0.707862
     84          1           0        6.321537    7.282219   -1.118303
     85          1           0       10.538642    1.808578    1.631329
     86          1           0       10.778887   -0.828362    0.323881
     87          1           0       11.969693    0.796742   -0.317363
     88          1           0       11.647783    2.587599   -0.215941
     89          1           0       10.821475    1.569974   -1.399237
     90          1           0       11.771717   -0.209176    2.681999
     91          1           0       10.933643   -1.722782    2.408454
     92          1           0       10.801603    0.355021    4.368786
     93          1           0        9.633081   -1.073509    4.364801
     94          1           0        9.229128    0.463796    3.666752
     95          1           0        6.771290   -5.833775    0.570474
     96          1           0        6.931077   -5.197524    2.188302
     97          1           0        8.310577   -5.026340    0.993548
     98          1           0        1.817714   -2.922753    0.642073
     99          1           0       -0.068705   -5.477289   -2.388620
    100          1           0        0.453321   -4.003089   -3.216095
    101          1           0       -1.014483   -4.009585   -2.347706
    102          1           0       -3.372322   -1.557638    2.878536
    103          1           0       -3.337258   -3.084916    1.983953
    104          1           0       -5.711541   -1.287917    1.982097
    105          1           0       -4.922439   -3.386206   -1.480629
    106          1           0       -5.544177   -4.453797   -0.237255
    107          1           0       -3.938675   -3.659678   -0.044026
    108          1           0       -7.618751   -2.499139    1.127616
    109          1           0       -7.334540   -3.153393   -0.472479
    110          1           0       -6.716767   -0.352435   -0.825034
    111          1           0       -8.012849   -0.514426    0.396738
    112          1           0       -8.399154   -2.330299   -1.993660
    113          1           0       -8.179138   -0.799851   -2.594074
    114          1           0      -10.148136   -1.630574   -0.430403
    115          1           0      -10.456578   -2.104226   -3.071512
    116          1           0      -11.177068   -0.467512   -3.074073
    117          1           0      -11.799795   -1.861067   -2.130940
    118          1           0      -10.446317    1.053491   -1.832645
    119          1           0       -9.247674    1.068682   -0.597135
    120          1           0      -11.745647   -0.172307    0.363285
    121          1           0      -11.946018    1.380310   -0.369374
    122          1           0       -9.653166    1.479810    1.518532
    123          1           0      -10.901470    0.600251    2.261882
    124          1           0      -11.610884    3.435060    1.115961
    125          1           0       -9.494651    3.424785    2.618655
    126          1           0      -10.738897    3.031647    3.881391
    127          1           0      -10.971390    4.471335    2.865244
    128          1           0      -12.905616    3.126860    3.507289
    129          1           0      -12.985308    1.521883    3.120429
    130          1           0      -13.760382    3.505690    0.895992
    131          1           0      -14.905981    3.335013    2.266473
    132          1           0      -15.704388    1.505052    1.775751
    133          1           0      -14.087736    0.842013    1.478280
    134          1           0      -14.777220    2.621131   -0.751309
    135          1           0      -17.176266    0.768338    0.041558
    136          1           0      -16.935081    1.179269   -1.601906
    137          1           0      -17.329740    2.406182   -0.484186
    138          1           0      -13.701614    1.082259   -1.939582
    139          1           0      -15.019413   -0.059096   -1.674953
    140          1           0      -13.683657    0.011921   -0.629570
 ---------------------------------------------------------------------

 SCF Done:  E(RCAM-B3LYP) =  -3007.16621865     A.U. after   17 cycles

 Excitation energies and oscillator strengths:

 Excited State   1:      Singlet-A      1.8028 eV  687.72 nm  f=0.3656  <S**2>=0.000
     245 -> 248       -0.18569
     246 -> 247        0.68308
     245 <- 248       -0.10533
 This state for optimization and/or second-order correction.
 Total Energy, E(TD-HF/TD-DFT) =  -3007.09996569
 Copying the excited state density for this state as the 1-particle RhoCI density.

 Excited State   2:      Singlet-A      2.2184 eV  558.88 nm  f=0.1830  <S**2>=0.000
     245 -> 247        0.65654
     246 -> 248        0.25003

 Excited State   3:      Singlet-A      3.2779 eV  378.24 nm  f=0.0044  <S**2>=0.000
     241 -> 247       -0.26153
     244 -> 247        0.63721

 Excited State   4:      Singlet-A      3.3512 eV  369.97 nm  f=0.0001  <S**2>=0.000
     240 -> 247        0.59768
     240 -> 249       -0.27598
     240 -> 251        0.13608

 Excited State   5:      Singlet-A      3.3980 eV  364.87 nm  f=0.0018  <S**2>=0.000
     241 -> 247       -0.15937
     243 -> 247        0.54768
     243 -> 248       -0.14752
     243 -> 249        0.22750
     243 -> 251        0.23382
     244 -> 247       -0.10869

 The electronic state is 1-A.
 Alpha  occ. eigenvalues --  -46.88620 -19.25103 -19.23995 -19.20984 -19.20139
 Alpha  occ. eigenvalues --  -19.19636 -19.16732 -14.42007 -14.41733 -14.39171
 Alpha  occ. eigenvalues --  -14.38841 -10.39869 -10.39068 -10.36003 -10.33019
 Alpha  occ. eigenvalues --  -10.31923 -10.31850 -10.31359 -10.31346 -10.30291
 Alpha  occ. eigenvalues --  -10.29916 -10.29385 -10.29350 -10.29232 -10.29210
 Alpha  occ. eigenvalues --  -10.28761 -10.28604 -10.28539 -10.28043 -10.27970
 Alpha  occ. eigenvalues --  -10.27937 -10.27596 -10.27437 -10.27403 -10.27354
 Alpha  occ. eigenvalues --  -10.27309 -10.26957 -10.26787 -10.26764 -10.26751
 Alpha  occ. eigenvalues --  -10.26498 -10.26459 -10.26258 -10.26098 -10.26055
 Alpha  occ. eigenvalues --  -10.25855 -10.25830 -10.25749 -10.25674 -10.25671
 Alpha  occ. eigenvalues --  -10.25663 -10.25385 -10.25384 -10.25283 -10.25176
 Alpha  occ. eigenvalues --  -10.25152 -10.25137 -10.24642 -10.24599 -10.24588
 Alpha  occ. eigenvalues --  -10.24533 -10.24512 -10.24492 -10.24392 -10.24194
 Alpha  occ. eigenvalues --  -10.23795  -3.17195  -1.92089  -1.91668  -1.91479
 Alpha  occ. eigenvalues --   -1.17188  -1.16001  -1.10714  -1.09287  -1.08860
 Alpha  occ. eigenvalues --   -1.07259  -1.05476  -1.04675  -1.03300  -1.02912
 Alpha  occ. eigenvalues --   -0.91760  -0.90746  -0.89646  -0.89335  -0.88692
 Alpha  occ. eigenvalues --   -0.88644  -0.88106  -0.87478  -0.87351  -0.86971
 Alpha  occ. eigenvalues --   -0.85980  -0.85679  -0.84193  -0.83615  -0.82995
 Alpha  occ. eigenvalues --   -0.82422  -0.81637  -0.81135  -0.80649  -0.80232
 Alpha  occ. eigenvalues --   -0.79663  -0.78422  -0.77872  -0.77025  -0.76044
 Alpha  occ. eigenvalues --   -0.75696  -0.75358  -0.75292  -0.74502  -0.73820
 Alpha  occ. eigenvalues --   -0.73687  -0.73160  -0.71543  -0.70727  -0.69980
 Alpha  occ. eigenvalues --   -0.68252  -0.67976  -0.66978  -0.66858  -0.65874
 Alpha  occ. eigenvalues --   -0.65817  -0.65188  -0.64674  -0.64239  -0.64203
 Alpha  occ. eigenvalues --   -0.63689  -0.63429  -0.63215  -0.61793  -0.59969
 Alpha  occ. eigenvalues --   -0.59697  -0.59441  -0.58708  -0.58293  -0.57778
 Alpha  occ. eigenvalues --   -0.57056  -0.56922  -0.56550  -0.56297  -0.55754
 Alpha  occ. eigenvalues --   -0.54987  -0.54660  -0.54452  -0.54406  -0.54097
 Alpha  occ. eigenvalues --   -0.53876  -0.53453  -0.53268  -0.53032  -0.52831
 Alpha  occ. eigenvalues --   -0.52493  -0.52221  -0.52165  -0.51899  -0.51643
 Alpha  occ. eigenvalues --   -0.51570  -0.51303  -0.50913  -0.50812  -0.50487
 Alpha  occ. eigenvalues --   -0.50291  -0.50257  -0.49915  -0.49589  -0.49449
 Alpha  occ. eigenvalues --   -0.49354  -0.49185  -0.48894  -0.48589  -0.48487
 Alpha  occ. eigenvalues --   -0.48370  -0.48271  -0.48126  -0.47729  -0.47345
 Alpha  occ. eigenvalues --   -0.47333  -0.47256  -0.47096  -0.46934  -0.46504
 Alpha  occ. eigenvalues --   -0.46327  -0.46268  -0.45980  -0.45927  -0.45754
 Alpha  occ. eigenvalues --   -0.45564  -0.45202  -0.45125  -0.45040  -0.44738
 Alpha  occ. eigenvalues --   -0.44704  -0.44443  -0.44288  -0.44287  -0.44115
 Alpha  occ. eigenvalues --   -0.43874  -0.43490  -0.43109  -0.43018  -0.42824
 Alpha  occ. eigenvalues --   -0.42681  -0.42559  -0.42524  -0.42310  -0.42100
 Alpha  occ. eigenvalues --   -0.41966  -0.41778  -0.41661  -0.41523  -0.41024
 Alpha  occ. eigenvalues --   -0.40887  -0.40689  -0.40337  -0.40112  -0.40072
 Alpha  occ. eigenvalues --   -0.39952  -0.39723  -0.39612  -0.39058  -0.38638
 Alpha  occ. eigenvalues --   -0.38473  -0.38420  -0.38148  -0.37676  -0.37545
 Alpha  occ. eigenvalues --   -0.37147  -0.36797  -0.36693  -0.36463  -0.35943
 Alpha  occ. eigenvalues --   -0.35936  -0.35854  -0.35282  -0.35223  -0.34343
 Alpha  occ. eigenvalues --   -0.34080  -0.33836  -0.33380  -0.31294  -0.30820
 Alpha  occ. eigenvalues --   -0.30208  -0.30122  -0.29161  -0.28771  -0.23741
 Alpha  occ. eigenvalues --   -0.21660
 Alpha virt. eigenvalues --   -0.08758  -0.01363   0.00870   0.02259   0.03071
 Alpha virt. eigenvalues --    0.04319   0.04711   0.05394   0.06532   0.07439
 Alpha virt. eigenvalues --    0.07977   0.08353   0.08598   0.08653   0.09184

 Mulliken charges:
               1
     1  Mg   0.831931
     2  C   -0.041746
     3  C   -0.075247
     4  C   -0.029867
     5  C   -0.091931
     6  N   -0.187651
     7  C   -0.026071
     8  C   -0.097734
     9  C   -0.045534
    10  C   -0.039066
    11  C    0.093681
    12  C    0.087665
    13  C    0.069474
    14  C    0.126611
    15  O   -0.167014
    16  O   -0.343093
    17  N   -0.360630
    18  C    0.158222
    19  C   -0.148134
    20  C   -0.008010
    21  C    0.121858
    22  C    0.107530
    23  C   -0.045494
    24  O   -0.239817
    25  C    0.057989
    26  N   -0.272016
    27  C    0.001354
    28  C   -0.062532
    29  C    0.002524
    30  C    0.065763
    31  C    0.068488
    32  C    0.026163
    33  C   -0.002048
    34  N   -0.395913
    35  C    0.117725
    36  C   -0.174897
    37  C    0.008042
    38  C    0.108422
    39  C    0.137011
    40  C    0.066945
    41  O   -0.150203
    42  C    0.011150
    43  C    0.188106
    44  O   -0.189712
    45  O   -0.341544
    46  C    0.165853
    47  C    0.297953
    48  C   -0.102742
    49  C   -0.194911
    50  C    0.077736
    51  C    0.062084
    52  C    0.025230
    53  C    0.038112
    54  C   -0.119533
    55  C    0.057048
    56  C    0.056083
    57  C   -0.013644
    58  C    0.068783
    59  C   -0.103209
    60  C    0.028241
    61  C    0.027509
    62  C    0.009579
    63  C    0.052866
    64  C   -0.114586
    65  C    0.018329
    66  C    0.047709
    67  H   -0.038023
    68  H   -0.009979
    69  H   -0.028857
    70  H    0.022358
    71  H   -0.003536
    72  H    0.037961
    73  H    0.018698
    74  H    0.006271
    75  H    0.006307
    76  H    0.015950
    77  H    0.020302
    78  H    0.022382
    79  H    0.007019
    80  H    0.037385
    81  H    0.029809
    82  H    0.020450
    83  H    0.043508
    84  H    0.017659
    85  H    0.013852
    86  H    0.001347
    87  H    0.005522
    88  H    0.032604
    89  H    0.025537
    90  H    0.010917
    91  H    0.003458
    92  H    0.017561
    93  H    0.028981
    94  H    0.015502
    95  H    0.042399
    96  H    0.043567
    97  H    0.024906
    98  H    0.051242
    99  H    0.041323
   100  H    0.031484
   101  H    0.026913
   102  H    0.011920
   103  H    0.033651
   104  H   -0.022181
   105  H    0.015183
   106  H    0.028387
   107  H    0.008152
   108  H    0.015242
   109  H   -0.015787
   110  H    0.014181
   111  H    0.014199
   112  H   -0.009279
   113  H   -0.014948
   114  H   -0.010163
   115  H   -0.009832
   116  H    0.016987
   117  H    0.005080
   118  H   -0.013888
   119  H   -0.005604
   120  H    0.018806
   121  H   -0.002209
   122  H   -0.010758
   123  H   -0.010895
   124  H   -0.001945
   125  H    0.011843
   126  H    0.008803
   127  H    0.007429
   128  H   -0.013319
   129  H   -0.006400
   130  H    0.000294
   131  H   -0.005864
   132  H   -0.006072
   133  H   -0.004923
   134  H   -0.001213
   135  H    0.008776
   136  H   -0.000536
   137  H    0.007380
   138  H    0.009088
   139  H   -0.005630
   140  H   -0.011973
 Sum of Mulliken charges =  -0.00000

 Dipole moment (field-independent basis, Debye):
    X=             -3.7432    Y=              0.7050    Z=             -0.4881  Tot=              3.8402
 Quadrupole moment (field-independent basis, Debye-Ang):
   XX=           -385.8894   YY=           -432.4286   ZZ=           -399.4392
   XY=            -20.6227   XZ=             14.2836   YZ=             -1.0395

 Normal termination of Gaussian 16 at Thu May  5 04:26:06 2022.
