 Gaussian 16, Revision A.03,
 Gaussian 16:  ES64L-G16RevA.03 25-Dec-2016

 ---------------------------------
 #p PBE1PBE/Def2SVP td=(nstates=5)
 ---------------------------------

 -----------------------------------------------------
 step_651_chromophore_10 TDDFT with PBE1PBE functional
 -----------------------------------------------------
 Symbolic Z-matrix:
 Charge =  0 Multiplicity = 1

                         Standard orientation:
 ---------------------------------------------------------------------
 Center     Atomic      Atomic             Coordinates (Angstroms)
 Number     Number       Type             X           Y           Z
 ---------------------------------------------------------------------
      1         12           0        5.983926    0.527378    0.104678
      2          6           0        3.517014   -1.893166   -0.146846
      3          6           0        3.732589    2.677779   -1.506405
      4          6           0        8.381925    2.811067    0.041360
      5          6           0        8.313570   -2.032267    0.765804
      6          7           0        3.825902    0.448444   -0.724504
      7          6           0        3.071769   -0.637526   -0.643855
      8          6           0        1.651628   -0.372655   -1.223133
      9          6           0        1.939478    0.933742   -2.088843
     10          6           0        3.167519    1.442132   -1.296631
     11          6           0        2.276286    0.663972   -3.520383
     12          6           0        0.512008   -0.226930   -0.108228
     13          6           0       -0.737315   -1.073330   -0.382181
     14          6           0       -1.397975   -1.861709    0.747792
     15          8           0       -0.936415   -2.780754    1.317821
     16          8           0       -2.647990   -1.333556    1.023057
     17          7           0        5.991810    2.516649   -0.507554
     18          6           0        5.001677    3.230382   -1.127672
     19          6           0        5.363333    4.567443   -1.189100
     20          6           0        6.715030    4.640834   -0.670748
     21          6           0        7.089972    3.286838   -0.416400
     22          6           0        4.393366    5.712410   -1.628428
     23          6           0        7.463712    5.824341   -0.258248
     24          8           0        8.637503    5.830036    0.155165
     25          6           0        6.745914    7.143612   -0.123435
     26          7           0        8.062560    0.424081    0.389956
     27          6           0        8.811744    1.540035    0.397072
     28          6           0       10.287073    1.208033    0.757067
     29          6           0       10.228773   -0.309420    1.108116
     30          6           0        8.735636   -0.664145    0.734624
     31          6           0       11.231411    1.595042   -0.389341
     32          6           0       10.790384   -0.645759    2.493566
     33          6           0       10.057020   -0.227811    3.825308
     34          7           0        5.950457   -1.513380    0.264936
     35          6           0        7.010269   -2.463602    0.551781
     36          6           0        6.493614   -3.754029    0.776688
     37          6           0        5.101870   -3.577850    0.555598
     38          6           0        4.829633   -2.208186    0.225837
     39          6           0        7.231885   -5.035894    1.153394
     40          6           0        3.784383   -4.259758    0.432318
     41          8           0        3.519742   -5.406105    0.719041
     42          6           0        2.645038   -3.170986   -0.022864
     43          6           0        2.077552   -3.589729   -1.349268
     44          8           0        2.674916   -3.587201   -2.397368
     45          8           0        0.755617   -4.041696   -1.116667
     46          6           0        0.004743   -4.392303   -2.302302
     47          6           0       -3.546052   -2.017884    1.905162
     48          6           0       -4.983892   -1.894630    1.444038
     49          6           0       -5.598230   -2.465824    0.400578
     50          6           0       -4.961143   -3.546314   -0.403532
     51          6           0       -7.107450   -2.313622    0.183333
     52          6           0       -7.539973   -0.973383   -0.471050
     53          6           0       -8.522058   -1.292185   -1.684008
     54          6           0       -9.938417   -0.979632   -1.278574
     55          6           0      -10.908723   -1.325281   -2.457438
     56          6           0      -10.153743    0.550859   -0.911208
     57          6           0      -11.209772    0.747088    0.125628
     58          6           0      -10.739913    1.401213    1.540123
     59          6           0      -11.475249    2.687655    1.897996
     60          6           0      -10.546912    3.468451    2.901524
     61          6           0      -12.848572    2.485276    2.627158
     62          6           0      -14.096903    2.862919    1.710053
     63          6           0      -14.788420    1.629031    1.197860
     64          6           0      -15.127159    1.664365   -0.363410
     65          6           0      -16.705264    1.519372   -0.591787
     66          6           0      -14.363864    0.659343   -1.183463
     67          1           0        3.044239    3.280504   -2.103005
     68          1           0        9.223585    3.506165    0.063602
     69          1           0        8.972622   -2.886311    0.938111
     70          1           0        1.372671   -1.168334   -1.913796
     71          1           0        1.109390    1.632723   -1.981675
     72          1           0        2.292408   -0.394780   -3.778802
     73          1           0        3.186449    1.109494   -3.919303
     74          1           0        1.548316    1.248319   -4.083450
     75          1           0        0.231101    0.821733   -0.007277
     76          1           0        0.924950   -0.378539    0.889502
     77          1           0       -0.462606   -1.789173   -1.157065
     78          1           0       -1.523667   -0.416041   -0.752139
     79          1           0        3.400915    5.421041   -1.972996
     80          1           0        4.853611    6.329978   -2.399521
     81          1           0        4.202797    6.286731   -0.720815
     82          1           0        7.516231    7.875956    0.118352
     83          1           0        6.042584    7.094858    0.707862
     84          1           0        6.321537    7.282219   -1.118303
     85          1           0       10.538642    1.808578    1.631329
     86          1           0       10.778887   -0.828362    0.323881
     87          1           0       11.969693    0.796742   -0.317363
     88          1           0       11.647783    2.587599   -0.215941
     89          1           0       10.821475    1.569974   -1.399237
     90          1           0       11.771717   -0.209176    2.681999
     91          1           0       10.933643   -1.722782    2.408454
     92          1           0       10.801603    0.355021    4.368786
     93          1           0        9.633081   -1.073509    4.364801
     94          1           0        9.229128    0.463796    3.666752
     95          1           0        6.771290   -5.833775    0.570474
     96          1           0        6.931077   -5.197524    2.188302
     97          1           0        8.310577   -5.026340    0.993548
     98          1           0        1.817714   -2.922753    0.642073
     99          1           0       -0.068705   -5.477289   -2.388620
    100          1           0        0.453321   -4.003089   -3.216095
    101          1           0       -1.014483   -4.009585   -2.347706
    102          1           0       -3.372322   -1.557638    2.878536
    103          1           0       -3.337258   -3.084916    1.983953
    104          1           0       -5.711541   -1.287917    1.982097
    105          1           0       -4.922439   -3.386206   -1.480629
    106          1           0       -5.544177   -4.453797   -0.237255
    107          1           0       -3.938675   -3.659678   -0.044026
    108          1           0       -7.618751   -2.499139    1.127616
    109          1           0       -7.334540   -3.153393   -0.472479
    110          1           0       -6.716767   -0.352435   -0.825034
    111          1           0       -8.012849   -0.514426    0.396738
    112          1           0       -8.399154   -2.330299   -1.993660
    113          1           0       -8.179138   -0.799851   -2.594074
    114          1           0      -10.148136   -1.630574   -0.430403
    115          1           0      -10.456578   -2.104226   -3.071512
    116          1           0      -11.177068   -0.467512   -3.074073
    117          1           0      -11.799795   -1.861067   -2.130940
    118          1           0      -10.446317    1.053491   -1.832645
    119          1           0       -9.247674    1.068682   -0.597135
    120          1           0      -11.745647   -0.172307    0.363285
    121          1           0      -11.946018    1.380310   -0.369374
    122          1           0       -9.653166    1.479810    1.518532
    123          1           0      -10.901470    0.600251    2.261882
    124          1           0      -11.610884    3.435060    1.115961
    125          1           0       -9.494651    3.424785    2.618655
    126          1           0      -10.738897    3.031647    3.881391
    127          1           0      -10.971390    4.471335    2.865244
    128          1           0      -12.905616    3.126860    3.507289
    129          1           0      -12.985308    1.521883    3.120429
    130          1           0      -13.760382    3.505690    0.895992
    131          1           0      -14.905981    3.335013    2.266473
    132          1           0      -15.704388    1.505052    1.775751
    133          1           0      -14.087736    0.842013    1.478280
    134          1           0      -14.777220    2.621131   -0.751309
    135          1           0      -17.176266    0.768338    0.041558
    136          1           0      -16.935081    1.179269   -1.601906
    137          1           0      -17.329740    2.406182   -0.484186
    138          1           0      -13.701614    1.082259   -1.939582
    139          1           0      -15.019413   -0.059096   -1.674953
    140          1           0      -13.683657    0.011921   -0.629570
 ---------------------------------------------------------------------

 SCF Done:  E(RPBE1PBE) =  -3005.35342249     A.U. after   15 cycles

 Excitation energies and oscillator strengths:

 Excited State   1:      Singlet-A      1.9337 eV  641.17 nm  f=0.3463  <S**2>=0.000
     245 -> 248        0.18328
     246 -> 247        0.68822
 This state for optimization and/or second-order correction.
 Total Energy, E(TD-HF/TD-DFT) =  -3005.28236020
 Copying the excited state density for this state as the 1-particle RhoCI density.

 Excited State   2:      Singlet-A      2.2241 eV  557.46 nm  f=0.1721  <S**2>=0.000
     245 -> 247        0.66377
     246 -> 248       -0.22899

 Excited State   3:      Singlet-A      2.7166 eV  456.40 nm  f=0.0001  <S**2>=0.000
     244 -> 247        0.68365
     244 -> 249        0.11749

 Excited State   4:      Singlet-A      2.9123 eV  425.73 nm  f=0.0004  <S**2>=0.000
     241 -> 247        0.64996
     241 -> 249       -0.14820
     243 -> 247       -0.19357

 Excited State   5:      Singlet-A      2.9179 eV  424.90 nm  f=0.0075  <S**2>=0.000
     241 -> 247        0.19515
     243 -> 247        0.66745

 The electronic state is 1-A.
 Alpha  occ. eigenvalues --  -46.92024 -19.25650 -19.24660 -19.21025 -19.20273
 Alpha  occ. eigenvalues --  -19.19579 -19.17246 -14.41455 -14.41188 -14.38741
 Alpha  occ. eigenvalues --  -14.38672 -10.36743 -10.36001 -10.32947 -10.30380
 Alpha  occ. eigenvalues --  -10.29405 -10.29196 -10.28884 -10.28499 -10.27814
 Alpha  occ. eigenvalues --  -10.27654 -10.27326 -10.27313 -10.26616 -10.26613
 Alpha  occ. eigenvalues --  -10.26586 -10.26558 -10.26087 -10.25891 -10.25710
 Alpha  occ. eigenvalues --  -10.25536 -10.25442 -10.25347 -10.24906 -10.24872
 Alpha  occ. eigenvalues --  -10.24804 -10.24541 -10.24441 -10.24384 -10.24347
 Alpha  occ. eigenvalues --  -10.24201 -10.23942 -10.23937 -10.23799 -10.23769
 Alpha  occ. eigenvalues --  -10.23639 -10.23490 -10.23272 -10.23239 -10.23191
 Alpha  occ. eigenvalues --  -10.23180 -10.23093 -10.22925 -10.22857 -10.22763
 Alpha  occ. eigenvalues --  -10.22715 -10.22712 -10.22154 -10.22058 -10.22048
 Alpha  occ. eigenvalues --  -10.22026 -10.22007 -10.21999 -10.21821 -10.21735
 Alpha  occ. eigenvalues --  -10.21170  -3.14177  -1.87012  -1.86568  -1.86384
 Alpha  occ. eigenvalues --   -1.11938  -1.10599  -1.05228  -1.04117  -1.03561
 Alpha  occ. eigenvalues --   -1.02226  -1.00107  -0.99267  -0.98122  -0.97535
 Alpha  occ. eigenvalues --   -0.85929  -0.84865  -0.83741  -0.83499  -0.82913
 Alpha  occ. eigenvalues --   -0.82756  -0.82428  -0.81829  -0.81566  -0.81073
 Alpha  occ. eigenvalues --   -0.80420  -0.80019  -0.78350  -0.77814  -0.77300
 Alpha  occ. eigenvalues --   -0.76613  -0.75859  -0.75369  -0.74945  -0.74397
 Alpha  occ. eigenvalues --   -0.73982  -0.72653  -0.72195  -0.71356  -0.70361
 Alpha  occ. eigenvalues --   -0.69858  -0.69598  -0.69366  -0.68652  -0.68074
 Alpha  occ. eigenvalues --   -0.67975  -0.67522  -0.66006  -0.65007  -0.64273
 Alpha  occ. eigenvalues --   -0.62693  -0.62207  -0.61381  -0.61158  -0.60379
 Alpha  occ. eigenvalues --   -0.60011  -0.59722  -0.59179  -0.58700  -0.58351
 Alpha  occ. eigenvalues --   -0.58144  -0.57609  -0.57391  -0.56271  -0.54394
 Alpha  occ. eigenvalues --   -0.54369  -0.54081  -0.53159  -0.52790  -0.52067
 Alpha  occ. eigenvalues --   -0.51568  -0.51332  -0.51018  -0.50791  -0.50202
 Alpha  occ. eigenvalues --   -0.49472  -0.49102  -0.48913  -0.48869  -0.48666
 Alpha  occ. eigenvalues --   -0.48427  -0.47867  -0.47720  -0.47571  -0.47300
 Alpha  occ. eigenvalues --   -0.46974  -0.46791  -0.46731  -0.46407  -0.46229
 Alpha  occ. eigenvalues --   -0.45931  -0.45780  -0.45425  -0.45368  -0.45019
 Alpha  occ. eigenvalues --   -0.44840  -0.44754  -0.44510  -0.44186  -0.44051
 Alpha  occ. eigenvalues --   -0.43877  -0.43733  -0.43456  -0.43231  -0.43159
 Alpha  occ. eigenvalues --   -0.43028  -0.42896  -0.42736  -0.42478  -0.42041
 Alpha  occ. eigenvalues --   -0.41985  -0.41923  -0.41725  -0.41649  -0.41110
 Alpha  occ. eigenvalues --   -0.40873  -0.40831  -0.40746  -0.40570  -0.40349
 Alpha  occ. eigenvalues --   -0.40292  -0.39972  -0.39734  -0.39711  -0.39487
 Alpha  occ. eigenvalues --   -0.39376  -0.39148  -0.39007  -0.38961  -0.38890
 Alpha  occ. eigenvalues --   -0.38658  -0.38288  -0.37972  -0.37762  -0.37707
 Alpha  occ. eigenvalues --   -0.37457  -0.37358  -0.37265  -0.37140  -0.36906
 Alpha  occ. eigenvalues --   -0.36750  -0.36506  -0.36395  -0.36378  -0.35768
 Alpha  occ. eigenvalues --   -0.35609  -0.35522  -0.35116  -0.35115  -0.34875
 Alpha  occ. eigenvalues --   -0.34821  -0.34557  -0.34454  -0.33995  -0.33444
 Alpha  occ. eigenvalues --   -0.33425  -0.33196  -0.32936  -0.32682  -0.32297
 Alpha  occ. eigenvalues --   -0.32165  -0.31645  -0.31586  -0.31305  -0.31003
 Alpha  occ. eigenvalues --   -0.30801  -0.30769  -0.30222  -0.29896  -0.29319
 Alpha  occ. eigenvalues --   -0.29112  -0.28982  -0.28836  -0.26940  -0.25670
 Alpha  occ. eigenvalues --   -0.25544  -0.25407  -0.24687  -0.24103  -0.20724
 Alpha  occ. eigenvalues --   -0.19200
 Alpha virt. eigenvalues --   -0.11215  -0.04921  -0.03327  -0.01401  -0.00455
 Alpha virt. eigenvalues --   -0.00134   0.00286   0.01019   0.02298   0.03529
 Alpha virt. eigenvalues --    0.04175   0.05124   0.05139   0.05277   0.05521

 Mulliken charges:
               1
     1  Mg   0.977553
     2  C   -0.053287
     3  C   -0.076680
     4  C   -0.022962
     5  C   -0.078235
     6  N   -0.292457
     7  C    0.056300
     8  C   -0.175913
     9  C   -0.128580
    10  C    0.011859
    11  C    0.042400
    12  C    0.050233
    13  C   -0.022098
    14  C    0.201715
    15  O   -0.203297
    16  O   -0.375290
    17  N   -0.478409
    18  C    0.183099
    19  C   -0.167064
    20  C   -0.061503
    21  C    0.158569
    22  C    0.047581
    23  C    0.006225
    24  O   -0.274267
    25  C   -0.020109
    26  N   -0.385531
    27  C    0.041473
    28  C   -0.137186
    29  C   -0.075510
    30  C    0.105656
    31  C    0.009271
    32  C   -0.036775
    33  C   -0.071987
    34  N   -0.521017
    35  C    0.129080
    36  C   -0.193858
    37  C   -0.046478
    38  C    0.167434
    39  C    0.081655
    40  C    0.164054
    41  O   -0.196222
    42  C   -0.097189
    43  C    0.272444
    44  O   -0.224677
    45  O   -0.371898
    46  C    0.109975
    47  C    0.253125
    48  C   -0.114559
    49  C   -0.228783
    50  C    0.007750
    51  C   -0.000880
    52  C   -0.040324
    53  C   -0.013810
    54  C   -0.213003
    55  C    0.001225
    56  C    0.002755
    57  C   -0.073702
    58  C    0.018105
    59  C   -0.192592
    60  C   -0.036200
    61  C   -0.023569
    62  C   -0.053114
    63  C    0.001012
    64  C   -0.208104
    65  C   -0.043695
    66  C   -0.015832
    67  H   -0.004643
    68  H    0.022318
    69  H    0.003289
    70  H    0.062530
    71  H    0.032325
    72  H    0.064981
    73  H    0.046364
    74  H    0.034233
    75  H    0.037124
    76  H    0.046460
    77  H    0.060987
    78  H    0.054861
    79  H    0.035527
    80  H    0.065487
    81  H    0.059398
    82  H    0.049763
    83  H    0.070844
    84  H    0.046163
    85  H    0.051195
    86  H    0.039500
    87  H    0.035355
    88  H    0.058983
    89  H    0.053341
    90  H    0.042782
    91  H    0.036239
    92  H    0.043679
    93  H    0.056133
    94  H    0.043835
    95  H    0.069116
    96  H    0.070721
    97  H    0.049174
    98  H    0.089020
    99  H    0.063896
   100  H    0.052277
   101  H    0.047071
   102  H    0.039804
   103  H    0.059092
   104  H    0.009126
   105  H    0.043758
   106  H    0.056113
   107  H    0.038614
   108  H    0.046683
   109  H    0.016977
   110  H    0.046074
   111  H    0.048738
   112  H    0.022623
   113  H    0.017564
   114  H    0.028266
   115  H    0.018062
   116  H    0.042763
   117  H    0.032577
   118  H    0.018906
   119  H    0.026600
   120  H    0.047834
   121  H    0.036594
   122  H    0.019983
   123  H    0.021382
   124  H    0.034927
   125  H    0.039607
   126  H    0.037542
   127  H    0.036809
   128  H    0.019470
   129  H    0.023998
   130  H    0.030914
   131  H    0.027466
   132  H    0.026164
   133  H    0.028808
   134  H    0.036020
   135  H    0.035994
   136  H    0.027133
   137  H    0.035300
   138  H    0.035541
   139  H    0.022573
   140  H    0.019371
 Sum of Mulliken charges =  -0.00000

 Dipole moment (field-independent basis, Debye):
    X=             -3.6740    Y=              1.3266    Z=             -0.6012  Tot=              3.9521
 Quadrupole moment (field-independent basis, Debye-Ang):
   XX=           -379.6022   YY=           -428.9885   ZZ=           -396.5796
   XY=            -17.3495   XZ=             14.2687   YZ=             -1.2538

 Normal termination of Gaussian 16 at Thu May  5 04:46:10 2022.
