 Gaussian 16, Revision A.03,
 Gaussian 16:  ES64L-G16RevA.03 25-Dec-2016

 --------------------------------
 #p wB97XD/Def2SVP td=(nstates=5)
 --------------------------------

 ----------------------------------------------------
 step_651_chromophore_10 TDDFT with wB97XD functional
 ----------------------------------------------------
 Symbolic Z-matrix:
 Charge =  0 Multiplicity = 1

                         Standard orientation:
 ---------------------------------------------------------------------
 Center     Atomic      Atomic             Coordinates (Angstroms)
 Number     Number       Type             X           Y           Z
 ---------------------------------------------------------------------
      1         12           0        5.983926    0.527378    0.104678
      2          6           0        3.517014   -1.893166   -0.146846
      3          6           0        3.732589    2.677779   -1.506405
      4          6           0        8.381925    2.811067    0.041360
      5          6           0        8.313570   -2.032267    0.765804
      6          7           0        3.825902    0.448444   -0.724504
      7          6           0        3.071769   -0.637526   -0.643855
      8          6           0        1.651628   -0.372655   -1.223133
      9          6           0        1.939478    0.933742   -2.088843
     10          6           0        3.167519    1.442132   -1.296631
     11          6           0        2.276286    0.663972   -3.520383
     12          6           0        0.512008   -0.226930   -0.108228
     13          6           0       -0.737315   -1.073330   -0.382181
     14          6           0       -1.397975   -1.861709    0.747792
     15          8           0       -0.936415   -2.780754    1.317821
     16          8           0       -2.647990   -1.333556    1.023057
     17          7           0        5.991810    2.516649   -0.507554
     18          6           0        5.001677    3.230382   -1.127672
     19          6           0        5.363333    4.567443   -1.189100
     20          6           0        6.715030    4.640834   -0.670748
     21          6           0        7.089972    3.286838   -0.416400
     22          6           0        4.393366    5.712410   -1.628428
     23          6           0        7.463712    5.824341   -0.258248
     24          8           0        8.637503    5.830036    0.155165
     25          6           0        6.745914    7.143612   -0.123435
     26          7           0        8.062560    0.424081    0.389956
     27          6           0        8.811744    1.540035    0.397072
     28          6           0       10.287073    1.208033    0.757067
     29          6           0       10.228773   -0.309420    1.108116
     30          6           0        8.735636   -0.664145    0.734624
     31          6           0       11.231411    1.595042   -0.389341
     32          6           0       10.790384   -0.645759    2.493566
     33          6           0       10.057020   -0.227811    3.825308
     34          7           0        5.950457   -1.513380    0.264936
     35          6           0        7.010269   -2.463602    0.551781
     36          6           0        6.493614   -3.754029    0.776688
     37          6           0        5.101870   -3.577850    0.555598
     38          6           0        4.829633   -2.208186    0.225837
     39          6           0        7.231885   -5.035894    1.153394
     40          6           0        3.784383   -4.259758    0.432318
     41          8           0        3.519742   -5.406105    0.719041
     42          6           0        2.645038   -3.170986   -0.022864
     43          6           0        2.077552   -3.589729   -1.349268
     44          8           0        2.674916   -3.587201   -2.397368
     45          8           0        0.755617   -4.041696   -1.116667
     46          6           0        0.004743   -4.392303   -2.302302
     47          6           0       -3.546052   -2.017884    1.905162
     48          6           0       -4.983892   -1.894630    1.444038
     49          6           0       -5.598230   -2.465824    0.400578
     50          6           0       -4.961143   -3.546314   -0.403532
     51          6           0       -7.107450   -2.313622    0.183333
     52          6           0       -7.539973   -0.973383   -0.471050
     53          6           0       -8.522058   -1.292185   -1.684008
     54          6           0       -9.938417   -0.979632   -1.278574
     55          6           0      -10.908723   -1.325281   -2.457438
     56          6           0      -10.153743    0.550859   -0.911208
     57          6           0      -11.209772    0.747088    0.125628
     58          6           0      -10.739913    1.401213    1.540123
     59          6           0      -11.475249    2.687655    1.897996
     60          6           0      -10.546912    3.468451    2.901524
     61          6           0      -12.848572    2.485276    2.627158
     62          6           0      -14.096903    2.862919    1.710053
     63          6           0      -14.788420    1.629031    1.197860
     64          6           0      -15.127159    1.664365   -0.363410
     65          6           0      -16.705264    1.519372   -0.591787
     66          6           0      -14.363864    0.659343   -1.183463
     67          1           0        3.044239    3.280504   -2.103005
     68          1           0        9.223585    3.506165    0.063602
     69          1           0        8.972622   -2.886311    0.938111
     70          1           0        1.372671   -1.168334   -1.913796
     71          1           0        1.109390    1.632723   -1.981675
     72          1           0        2.292408   -0.394780   -3.778802
     73          1           0        3.186449    1.109494   -3.919303
     74          1           0        1.548316    1.248319   -4.083450
     75          1           0        0.231101    0.821733   -0.007277
     76          1           0        0.924950   -0.378539    0.889502
     77          1           0       -0.462606   -1.789173   -1.157065
     78          1           0       -1.523667   -0.416041   -0.752139
     79          1           0        3.400915    5.421041   -1.972996
     80          1           0        4.853611    6.329978   -2.399521
     81          1           0        4.202797    6.286731   -0.720815
     82          1           0        7.516231    7.875956    0.118352
     83          1           0        6.042584    7.094858    0.707862
     84          1           0        6.321537    7.282219   -1.118303
     85          1           0       10.538642    1.808578    1.631329
     86          1           0       10.778887   -0.828362    0.323881
     87          1           0       11.969693    0.796742   -0.317363
     88          1           0       11.647783    2.587599   -0.215941
     89          1           0       10.821475    1.569974   -1.399237
     90          1           0       11.771717   -0.209176    2.681999
     91          1           0       10.933643   -1.722782    2.408454
     92          1           0       10.801603    0.355021    4.368786
     93          1           0        9.633081   -1.073509    4.364801
     94          1           0        9.229128    0.463796    3.666752
     95          1           0        6.771290   -5.833775    0.570474
     96          1           0        6.931077   -5.197524    2.188302
     97          1           0        8.310577   -5.026340    0.993548
     98          1           0        1.817714   -2.922753    0.642073
     99          1           0       -0.068705   -5.477289   -2.388620
    100          1           0        0.453321   -4.003089   -3.216095
    101          1           0       -1.014483   -4.009585   -2.347706
    102          1           0       -3.372322   -1.557638    2.878536
    103          1           0       -3.337258   -3.084916    1.983953
    104          1           0       -5.711541   -1.287917    1.982097
    105          1           0       -4.922439   -3.386206   -1.480629
    106          1           0       -5.544177   -4.453797   -0.237255
    107          1           0       -3.938675   -3.659678   -0.044026
    108          1           0       -7.618751   -2.499139    1.127616
    109          1           0       -7.334540   -3.153393   -0.472479
    110          1           0       -6.716767   -0.352435   -0.825034
    111          1           0       -8.012849   -0.514426    0.396738
    112          1           0       -8.399154   -2.330299   -1.993660
    113          1           0       -8.179138   -0.799851   -2.594074
    114          1           0      -10.148136   -1.630574   -0.430403
    115          1           0      -10.456578   -2.104226   -3.071512
    116          1           0      -11.177068   -0.467512   -3.074073
    117          1           0      -11.799795   -1.861067   -2.130940
    118          1           0      -10.446317    1.053491   -1.832645
    119          1           0       -9.247674    1.068682   -0.597135
    120          1           0      -11.745647   -0.172307    0.363285
    121          1           0      -11.946018    1.380310   -0.369374
    122          1           0       -9.653166    1.479810    1.518532
    123          1           0      -10.901470    0.600251    2.261882
    124          1           0      -11.610884    3.435060    1.115961
    125          1           0       -9.494651    3.424785    2.618655
    126          1           0      -10.738897    3.031647    3.881391
    127          1           0      -10.971390    4.471335    2.865244
    128          1           0      -12.905616    3.126860    3.507289
    129          1           0      -12.985308    1.521883    3.120429
    130          1           0      -13.760382    3.505690    0.895992
    131          1           0      -14.905981    3.335013    2.266473
    132          1           0      -15.704388    1.505052    1.775751
    133          1           0      -14.087736    0.842013    1.478280
    134          1           0      -14.777220    2.621131   -0.751309
    135          1           0      -17.176266    0.768338    0.041558
    136          1           0      -16.935081    1.179269   -1.601906
    137          1           0      -17.329740    2.406182   -0.484186
    138          1           0      -13.701614    1.082259   -1.939582
    139          1           0      -15.019413   -0.059096   -1.674953
    140          1           0      -13.683657    0.011921   -0.629570
 ---------------------------------------------------------------------

 SCF Done:  E(RwB97XD) =  -3007.86789207     A.U. after   19 cycles

 Excitation energies and oscillator strengths:

 Excited State   1:      Singlet-A      1.7598 eV  704.55 nm  f=0.3640  <S**2>=0.000
     245 -> 248       -0.18898
     246 -> 247        0.68096
     245 <- 248       -0.11321
 This state for optimization and/or second-order correction.
 Total Energy, E(TD-HF/TD-DFT) =  -3007.80322212
 Copying the excited state density for this state as the 1-particle RhoCI density.

 Excited State   2:      Singlet-A      2.1649 eV  572.71 nm  f=0.1798  <S**2>=0.000
     245 -> 247        0.65369
     246 -> 248        0.25319

 Excited State   3:      Singlet-A      3.3089 eV  374.70 nm  f=0.0026  <S**2>=0.000
     241 -> 247       -0.40192
     243 -> 247        0.16560
     244 -> 247        0.52681

 Excited State   4:      Singlet-A      3.3627 eV  368.70 nm  f=0.0001  <S**2>=0.000
     240 -> 247        0.58710
     240 -> 249       -0.29331
     240 -> 250        0.13174
     244 -> 247        0.15311

 Excited State   5:      Singlet-A      3.4391 eV  360.52 nm  f=0.0028  <S**2>=0.000
     240 -> 247       -0.11082
     241 -> 247        0.35137
     243 -> 247       -0.32419
     243 -> 248        0.11466
     243 -> 249       -0.17076
     243 -> 250       -0.18166
     244 -> 247        0.35174
     244 -> 249        0.10158
     246 -> 248       -0.10783

 The electronic state is 1-A.
 Alpha  occ. eigenvalues --  -46.94973 -19.30359 -19.29257 -19.25937 -19.25034
 Alpha  occ. eigenvalues --  -19.24773 -19.21693 -14.46586 -14.46302 -14.43825
 Alpha  occ. eigenvalues --  -14.43399 -10.43758 -10.42862 -10.40116 -10.36897
 Alpha  occ. eigenvalues --  -10.36013 -10.35740 -10.35420 -10.35123 -10.34426
 Alpha  occ. eigenvalues --  -10.33896 -10.33457 -10.33336 -10.33306 -10.33279
 Alpha  occ. eigenvalues --  -10.32871 -10.32713 -10.32466 -10.32103 -10.32076
 Alpha  occ. eigenvalues --  -10.31966 -10.31661 -10.31473 -10.31406 -10.31370
 Alpha  occ. eigenvalues --  -10.31261 -10.30973 -10.30742 -10.30737 -10.30675
 Alpha  occ. eigenvalues --  -10.30656 -10.30471 -10.30234 -10.30085 -10.30039
 Alpha  occ. eigenvalues --  -10.29888 -10.29647 -10.29634 -10.29619 -10.29571
 Alpha  occ. eigenvalues --  -10.29491 -10.29371 -10.29238 -10.29231 -10.29105
 Alpha  occ. eigenvalues --  -10.29100 -10.29084 -10.28530 -10.28484 -10.28438
 Alpha  occ. eigenvalues --  -10.28434 -10.28413 -10.28341 -10.28235 -10.28101
 Alpha  occ. eigenvalues --  -10.27628  -3.20983  -1.94567  -1.94127  -1.93937
 Alpha  occ. eigenvalues --   -1.19354  -1.18177  -1.13046  -1.11500  -1.11091
 Alpha  occ. eigenvalues --   -1.09388  -1.07478  -1.06684  -1.05363  -1.04952
 Alpha  occ. eigenvalues --   -0.93767  -0.92550  -0.91424  -0.91168  -0.90546
 Alpha  occ. eigenvalues --   -0.90425  -0.90071  -0.89403  -0.89322  -0.88743
 Alpha  occ. eigenvalues --   -0.87864  -0.87566  -0.86019  -0.85546  -0.84886
 Alpha  occ. eigenvalues --   -0.84270  -0.83529  -0.83030  -0.82600  -0.82069
 Alpha  occ. eigenvalues --   -0.81580  -0.80377  -0.79761  -0.78923  -0.77992
 Alpha  occ. eigenvalues --   -0.77553  -0.77295  -0.77078  -0.76334  -0.75665
 Alpha  occ. eigenvalues --   -0.75630  -0.75128  -0.73520  -0.72646  -0.71885
 Alpha  occ. eigenvalues --   -0.70245  -0.69861  -0.68845  -0.68824  -0.67825
 Alpha  occ. eigenvalues --   -0.67664  -0.67156  -0.66667  -0.66207  -0.66036
 Alpha  occ. eigenvalues --   -0.65657  -0.65263  -0.65044  -0.63805  -0.61936
 Alpha  occ. eigenvalues --   -0.61682  -0.61418  -0.60702  -0.60267  -0.59763
 Alpha  occ. eigenvalues --   -0.58990  -0.58856  -0.58496  -0.58268  -0.57731
 Alpha  occ. eigenvalues --   -0.56923  -0.56586  -0.56385  -0.56331  -0.56003
 Alpha  occ. eigenvalues --   -0.55848  -0.55353  -0.55166  -0.54919  -0.54714
 Alpha  occ. eigenvalues --   -0.54358  -0.54117  -0.54047  -0.53787  -0.53596
 Alpha  occ. eigenvalues --   -0.53523  -0.53176  -0.52861  -0.52713  -0.52379
 Alpha  occ. eigenvalues --   -0.52266  -0.52138  -0.51803  -0.51471  -0.51349
 Alpha  occ. eigenvalues --   -0.51280  -0.51101  -0.50800  -0.50499  -0.50390
 Alpha  occ. eigenvalues --   -0.50285  -0.50190  -0.50024  -0.49670  -0.49261
 Alpha  occ. eigenvalues --   -0.49231  -0.49186  -0.48977  -0.48860  -0.48374
 Alpha  occ. eigenvalues --   -0.48303  -0.48125  -0.47953  -0.47855  -0.47614
 Alpha  occ. eigenvalues --   -0.47514  -0.47102  -0.47003  -0.46961  -0.46692
 Alpha  occ. eigenvalues --   -0.46575  -0.46426  -0.46221  -0.46159  -0.46052
 Alpha  occ. eigenvalues --   -0.45821  -0.45429  -0.45025  -0.44886  -0.44700
 Alpha  occ. eigenvalues --   -0.44607  -0.44429  -0.44392  -0.44186  -0.44024
 Alpha  occ. eigenvalues --   -0.43909  -0.43718  -0.43513  -0.43441  -0.42909
 Alpha  occ. eigenvalues --   -0.42751  -0.42571  -0.42189  -0.42091  -0.41931
 Alpha  occ. eigenvalues --   -0.41830  -0.41553  -0.41517  -0.40957  -0.40497
 Alpha  occ. eigenvalues --   -0.40368  -0.40265  -0.39998  -0.39617  -0.39374
 Alpha  occ. eigenvalues --   -0.39299  -0.38846  -0.38658  -0.38346  -0.37853
 Alpha  occ. eigenvalues --   -0.37776  -0.37724  -0.37189  -0.37129  -0.36266
 Alpha  occ. eigenvalues --   -0.36079  -0.35676  -0.35637  -0.33543  -0.32890
 Alpha  occ. eigenvalues --   -0.32439  -0.32157  -0.31017  -0.30873  -0.25664
 Alpha  occ. eigenvalues --   -0.23496
 Alpha virt. eigenvalues --   -0.07113   0.00560   0.02914   0.05146   0.05458
 Alpha virt. eigenvalues --    0.06398   0.06963   0.07730   0.09054   0.10066
 Alpha virt. eigenvalues --    0.10603   0.11837   0.11868   0.11927   0.12378

 Mulliken charges:
               1
     1  Mg   0.967755
     2  C   -0.057397
     3  C   -0.083737
     4  C   -0.036880
     5  C   -0.099336
     6  N   -0.255028
     7  C    0.018747
     8  C   -0.137558
     9  C   -0.096329
    10  C   -0.013656
    11  C    0.045546
    12  C    0.050004
    13  C    0.009393
    14  C    0.186489
    15  O   -0.198501
    16  O   -0.373033
    17  N   -0.444030
    18  C    0.170555
    19  C   -0.163179
    20  C   -0.056728
    21  C    0.145779
    22  C    0.061971
    23  C    0.001527
    24  O   -0.271617
    25  C   -0.004444
    26  N   -0.347333
    27  C    0.023219
    28  C   -0.113070
    29  C   -0.048408
    30  C    0.090599
    31  C    0.020056
    32  C   -0.022133
    33  C   -0.057497
    34  N   -0.486238
    35  C    0.131227
    36  C   -0.188287
    37  C   -0.039013
    38  C    0.150185
    39  C    0.093204
    40  C    0.143943
    41  O   -0.185204
    42  C   -0.051298
    43  C    0.249851
    44  O   -0.218747
    45  O   -0.369196
    46  C    0.125259
    47  C    0.265538
    48  C   -0.124233
    49  C   -0.218865
    50  C    0.027123
    51  C    0.019867
    52  C   -0.023988
    53  C    0.000125
    54  C   -0.178155
    55  C    0.010905
    56  C    0.019206
    57  C   -0.050932
    58  C    0.032805
    59  C   -0.163259
    60  C   -0.019399
    61  C   -0.012475
    62  C   -0.035719
    63  C    0.017778
    64  C   -0.178692
    65  C   -0.029443
    66  C    0.001482
    67  H   -0.013241
    68  H    0.016969
    69  H   -0.002509
    70  H    0.041301
    71  H    0.023320
    72  H    0.060002
    73  H    0.040850
    74  H    0.028785
    75  H    0.031786
    76  H    0.040048
    77  H    0.041039
    78  H    0.050718
    79  H    0.030315
    80  H    0.058979
    81  H    0.050851
    82  H    0.047020
    83  H    0.065649
    84  H    0.037528
    85  H    0.041321
    86  H    0.028827
    87  H    0.026581
    88  H    0.054718
    89  H    0.048043
    90  H    0.035732
    91  H    0.028203
    92  H    0.039169
    93  H    0.051070
    94  H    0.036212
    95  H    0.065834
    96  H    0.066992
    97  H    0.046569
    98  H    0.078641
    99  H    0.060729
   100  H    0.048372
   101  H    0.043831
   102  H    0.037092
   103  H    0.053773
   104  H    0.005134
   105  H    0.038263
   106  H    0.049984
   107  H    0.029180
   108  H    0.040376
   109  H    0.005047
   110  H    0.039621
   111  H    0.035548
   112  H    0.012184
   113  H    0.010411
   114  H    0.015095
   115  H    0.011958
   116  H    0.036639
   117  H    0.027113
   118  H    0.009600
   119  H    0.015893
   120  H    0.036601
   121  H    0.016599
   122  H    0.009185
   123  H    0.013473
   124  H    0.023745
   125  H    0.034338
   126  H    0.029242
   127  H    0.030129
   128  H    0.011076
   129  H    0.015929
   130  H    0.019647
   131  H    0.020945
   132  H    0.018664
   133  H    0.013250
   134  H    0.024922
   135  H    0.029235
   136  H    0.020430
   137  H    0.030004
   138  H    0.029861
   139  H    0.017156
   140  H    0.005302
 Sum of Mulliken charges =  -0.00000

 Dipole moment (field-independent basis, Debye):
    X=             -3.8031    Y=              0.5869    Z=             -0.4516  Tot=              3.8745
 Quadrupole moment (field-independent basis, Debye-Ang):
   XX=           -380.8562   YY=           -428.4733   ZZ=           -396.2494
   XY=            -21.6582   XZ=             15.3414   YZ=             -0.9753

 Normal termination of Gaussian 16 at Thu May  5 05:17:04 2022.
