 Gaussian 16, Revision A.03,
 Gaussian 16:  ES64L-G16RevA.03 25-Dec-2016

 --------------------
 #p ZINDO=(nstates=5)
 --------------------

 -----------------------------
 step_651_chromophore_10 ZINDO
 -----------------------------
 Symbolic Z-matrix:
 Charge =  0 Multiplicity = 1

                         Standard orientation:
 ---------------------------------------------------------------------
 Center     Atomic      Atomic             Coordinates (Angstroms)
 Number     Number       Type             X           Y           Z
 ---------------------------------------------------------------------
      1         12           0        5.983926    0.527378    0.104678
      2          6           0        3.517014   -1.893166   -0.146846
      3          6           0        3.732589    2.677779   -1.506405
      4          6           0        8.381925    2.811067    0.041360
      5          6           0        8.313570   -2.032267    0.765804
      6          7           0        3.825902    0.448444   -0.724504
      7          6           0        3.071769   -0.637526   -0.643855
      8          6           0        1.651628   -0.372655   -1.223133
      9          6           0        1.939478    0.933742   -2.088843
     10          6           0        3.167519    1.442132   -1.296631
     11          6           0        2.276286    0.663972   -3.520383
     12          6           0        0.512008   -0.226930   -0.108228
     13          6           0       -0.737315   -1.073330   -0.382181
     14          6           0       -1.397975   -1.861709    0.747792
     15          8           0       -0.936415   -2.780754    1.317821
     16          8           0       -2.647990   -1.333556    1.023057
     17          7           0        5.991810    2.516649   -0.507554
     18          6           0        5.001677    3.230382   -1.127672
     19          6           0        5.363333    4.567443   -1.189100
     20          6           0        6.715030    4.640834   -0.670748
     21          6           0        7.089972    3.286838   -0.416400
     22          6           0        4.393366    5.712410   -1.628428
     23          6           0        7.463712    5.824341   -0.258248
     24          8           0        8.637503    5.830036    0.155165
     25          6           0        6.745914    7.143612   -0.123435
     26          7           0        8.062560    0.424081    0.389956
     27          6           0        8.811744    1.540035    0.397072
     28          6           0       10.287073    1.208033    0.757067
     29          6           0       10.228773   -0.309420    1.108116
     30          6           0        8.735636   -0.664145    0.734624
     31          6           0       11.231411    1.595042   -0.389341
     32          6           0       10.790384   -0.645759    2.493566
     33          6           0       10.057020   -0.227811    3.825308
     34          7           0        5.950457   -1.513380    0.264936
     35          6           0        7.010269   -2.463602    0.551781
     36          6           0        6.493614   -3.754029    0.776688
     37          6           0        5.101870   -3.577850    0.555598
     38          6           0        4.829633   -2.208186    0.225837
     39          6           0        7.231885   -5.035894    1.153394
     40          6           0        3.784383   -4.259758    0.432318
     41          8           0        3.519742   -5.406105    0.719041
     42          6           0        2.645038   -3.170986   -0.022864
     43          6           0        2.077552   -3.589729   -1.349268
     44          8           0        2.674916   -3.587201   -2.397368
     45          8           0        0.755617   -4.041696   -1.116667
     46          6           0        0.004743   -4.392303   -2.302302
     47          6           0       -3.546052   -2.017884    1.905162
     48          6           0       -4.983892   -1.894630    1.444038
     49          6           0       -5.598230   -2.465824    0.400578
     50          6           0       -4.961143   -3.546314   -0.403532
     51          6           0       -7.107450   -2.313622    0.183333
     52          6           0       -7.539973   -0.973383   -0.471050
     53          6           0       -8.522058   -1.292185   -1.684008
     54          6           0       -9.938417   -0.979632   -1.278574
     55          6           0      -10.908723   -1.325281   -2.457438
     56          6           0      -10.153743    0.550859   -0.911208
     57          6           0      -11.209772    0.747088    0.125628
     58          6           0      -10.739913    1.401213    1.540123
     59          6           0      -11.475249    2.687655    1.897996
     60          6           0      -10.546912    3.468451    2.901524
     61          6           0      -12.848572    2.485276    2.627158
     62          6           0      -14.096903    2.862919    1.710053
     63          6           0      -14.788420    1.629031    1.197860
     64          6           0      -15.127159    1.664365   -0.363410
     65          6           0      -16.705264    1.519372   -0.591787
     66          6           0      -14.363864    0.659343   -1.183463
     67          1           0        3.044239    3.280504   -2.103005
     68          1           0        9.223585    3.506165    0.063602
     69          1           0        8.972622   -2.886311    0.938111
     70          1           0        1.372671   -1.168334   -1.913796
     71          1           0        1.109390    1.632723   -1.981675
     72          1           0        2.292408   -0.394780   -3.778802
     73          1           0        3.186449    1.109494   -3.919303
     74          1           0        1.548316    1.248319   -4.083450
     75          1           0        0.231101    0.821733   -0.007277
     76          1           0        0.924950   -0.378539    0.889502
     77          1           0       -0.462606   -1.789173   -1.157065
     78          1           0       -1.523667   -0.416041   -0.752139
     79          1           0        3.400915    5.421041   -1.972996
     80          1           0        4.853611    6.329978   -2.399521
     81          1           0        4.202797    6.286731   -0.720815
     82          1           0        7.516231    7.875956    0.118352
     83          1           0        6.042584    7.094858    0.707862
     84          1           0        6.321537    7.282219   -1.118303
     85          1           0       10.538642    1.808578    1.631329
     86          1           0       10.778887   -0.828362    0.323881
     87          1           0       11.969693    0.796742   -0.317363
     88          1           0       11.647783    2.587599   -0.215941
     89          1           0       10.821475    1.569974   -1.399237
     90          1           0       11.771717   -0.209176    2.681999
     91          1           0       10.933643   -1.722782    2.408454
     92          1           0       10.801603    0.355021    4.368786
     93          1           0        9.633081   -1.073509    4.364801
     94          1           0        9.229128    0.463796    3.666752
     95          1           0        6.771290   -5.833775    0.570474
     96          1           0        6.931077   -5.197524    2.188302
     97          1           0        8.310577   -5.026340    0.993548
     98          1           0        1.817714   -2.922753    0.642073
     99          1           0       -0.068705   -5.477289   -2.388620
    100          1           0        0.453321   -4.003089   -3.216095
    101          1           0       -1.014483   -4.009585   -2.347706
    102          1           0       -3.372322   -1.557638    2.878536
    103          1           0       -3.337258   -3.084916    1.983953
    104          1           0       -5.711541   -1.287917    1.982097
    105          1           0       -4.922439   -3.386206   -1.480629
    106          1           0       -5.544177   -4.453797   -0.237255
    107          1           0       -3.938675   -3.659678   -0.044026
    108          1           0       -7.618751   -2.499139    1.127616
    109          1           0       -7.334540   -3.153393   -0.472479
    110          1           0       -6.716767   -0.352435   -0.825034
    111          1           0       -8.012849   -0.514426    0.396738
    112          1           0       -8.399154   -2.330299   -1.993660
    113          1           0       -8.179138   -0.799851   -2.594074
    114          1           0      -10.148136   -1.630574   -0.430403
    115          1           0      -10.456578   -2.104226   -3.071512
    116          1           0      -11.177068   -0.467512   -3.074073
    117          1           0      -11.799795   -1.861067   -2.130940
    118          1           0      -10.446317    1.053491   -1.832645
    119          1           0       -9.247674    1.068682   -0.597135
    120          1           0      -11.745647   -0.172307    0.363285
    121          1           0      -11.946018    1.380310   -0.369374
    122          1           0       -9.653166    1.479810    1.518532
    123          1           0      -10.901470    0.600251    2.261882
    124          1           0      -11.610884    3.435060    1.115961
    125          1           0       -9.494651    3.424785    2.618655
    126          1           0      -10.738897    3.031647    3.881391
    127          1           0      -10.971390    4.471335    2.865244
    128          1           0      -12.905616    3.126860    3.507289
    129          1           0      -12.985308    1.521883    3.120429
    130          1           0      -13.760382    3.505690    0.895992
    131          1           0      -14.905981    3.335013    2.266473
    132          1           0      -15.704388    1.505052    1.775751
    133          1           0      -14.087736    0.842013    1.478280
    134          1           0      -14.777220    2.621131   -0.751309
    135          1           0      -17.176266    0.768338    0.041558
    136          1           0      -16.935081    1.179269   -1.601906
    137          1           0      -17.329740    2.406182   -0.484186
    138          1           0      -13.701614    1.082259   -1.939582
    139          1           0      -15.019413   -0.059096   -1.674953
    140          1           0      -13.683657    0.011921   -0.629570
 ---------------------------------------------------------------------

 SCF Done:  E(RZINDO/S) =  -474.360990163     A.U. after   20 cycles

 Excitation energies and oscillator strengths:

 Excited State   1:      Singlet-A      1.3830 eV  896.47 nm  f=0.5437  <S**2>=0.000
     175 ->178         0.18007
     176 ->177         0.66779
 This state for optimization and/or second-order correction.
 Total Energy, E(CIS/TDA) =  -474.310165061
 Copying the excited state density for this state as the 1-particle RhoCI density.

 Excited State   2:      Singlet-A      1.9270 eV  643.40 nm  f=0.1251  <S**2>=0.000
     175 ->177         0.58751
     176 ->178        -0.36036

 Excited State   3:      Singlet-A      2.9161 eV  425.17 nm  f=0.0066  <S**2>=0.000
     167 ->177         0.14472
     167 ->179        -0.18789
     168 ->177         0.39031
     168 ->179        -0.38231
     168 ->182         0.16205
     168 ->186        -0.16698

 Excited State   4:      Singlet-A      2.9516 eV  420.06 nm  f=0.0015  <S**2>=0.000
     171 ->177         0.27906
     171 ->178        -0.12665
     171 ->179         0.22625
     171 ->180        -0.26480
     171 ->182         0.34758
     171 ->186         0.21470
     171 ->188         0.24271

 Excited State   5:      Singlet-A      3.0770 eV  402.94 nm  f=0.9698  <S**2>=0.000
     170 ->177         0.20926
     173 ->177        -0.14514
     175 ->177         0.31563
     176 ->178         0.52897
     176 ->179         0.12964

 The electronic state is 1-A.
 Alpha  occ. eigenvalues --   -1.84562  -1.81873  -1.81773  -1.74390  -1.72354
 Alpha  occ. eigenvalues --   -1.71085  -1.65242  -1.60795  -1.57745  -1.57140
 Alpha  occ. eigenvalues --   -1.54346  -1.51360  -1.49936  -1.48913  -1.46653
 Alpha  occ. eigenvalues --   -1.44619  -1.44347  -1.39802  -1.38895  -1.37688
 Alpha  occ. eigenvalues --   -1.35838  -1.34671  -1.33354  -1.31875  -1.29295
 Alpha  occ. eigenvalues --   -1.29127  -1.24864  -1.21520  -1.19738  -1.17817
 Alpha  occ. eigenvalues --   -1.17444  -1.16039  -1.14913  -1.13583  -1.12650
 Alpha  occ. eigenvalues --   -1.12133  -1.10756  -1.09602  -1.06242  -1.03813
 Alpha  occ. eigenvalues --   -1.02059  -1.01746  -0.99030  -0.97798  -0.97435
 Alpha  occ. eigenvalues --   -0.95050  -0.94580  -0.94064  -0.93899  -0.92645
 Alpha  occ. eigenvalues --   -0.92549  -0.90575  -0.89875  -0.88261  -0.87683
 Alpha  occ. eigenvalues --   -0.85908  -0.84865  -0.83335  -0.81129  -0.79881
 Alpha  occ. eigenvalues --   -0.79105  -0.78497  -0.77420  -0.76586  -0.75985
 Alpha  occ. eigenvalues --   -0.75496  -0.75258  -0.74440  -0.74169  -0.73665
 Alpha  occ. eigenvalues --   -0.73238  -0.72932  -0.72304  -0.71435  -0.71026
 Alpha  occ. eigenvalues --   -0.70624  -0.69677  -0.69371  -0.69069  -0.67747
 Alpha  occ. eigenvalues --   -0.67532  -0.67245  -0.66986  -0.65980  -0.65811
 Alpha  occ. eigenvalues --   -0.65470  -0.64539  -0.64018  -0.63838  -0.63380
 Alpha  occ. eigenvalues --   -0.63133  -0.62797  -0.62219  -0.61575  -0.61496
 Alpha  occ. eigenvalues --   -0.61043  -0.60786  -0.60134  -0.59772  -0.59614
 Alpha  occ. eigenvalues --   -0.58933  -0.58774  -0.58582  -0.58535  -0.57984
 Alpha  occ. eigenvalues --   -0.57836  -0.57525  -0.57167  -0.56903  -0.56453
 Alpha  occ. eigenvalues --   -0.56051  -0.55523  -0.55133  -0.55031  -0.54884
 Alpha  occ. eigenvalues --   -0.54320  -0.53719  -0.53419  -0.53167  -0.53040
 Alpha  occ. eigenvalues --   -0.52646  -0.52338  -0.52217  -0.51922  -0.51179
 Alpha  occ. eigenvalues --   -0.51004  -0.50789  -0.50606  -0.50563  -0.50335
 Alpha  occ. eigenvalues --   -0.49918  -0.49794  -0.49460  -0.49317  -0.49289
 Alpha  occ. eigenvalues --   -0.48804  -0.48610  -0.48224  -0.48169  -0.48025
 Alpha  occ. eigenvalues --   -0.47778  -0.47456  -0.46845  -0.46763  -0.46271
 Alpha  occ. eigenvalues --   -0.46135  -0.46077  -0.45919  -0.45384  -0.45227
 Alpha  occ. eigenvalues --   -0.45054  -0.44713  -0.44037  -0.43738  -0.43662
 Alpha  occ. eigenvalues --   -0.43368  -0.43253  -0.42683  -0.42485  -0.42271
 Alpha  occ. eigenvalues --   -0.42083  -0.41799  -0.41625  -0.39479  -0.39258
 Alpha  occ. eigenvalues --   -0.38879  -0.36925  -0.35729  -0.35016  -0.33702
 Alpha  occ. eigenvalues --   -0.32909  -0.32549  -0.32314  -0.30661  -0.26263
 Alpha  occ. eigenvalues --   -0.22383
 Alpha virt. eigenvalues --   -0.08473  -0.01716  -0.00398   0.01682   0.01955
 Alpha virt. eigenvalues --    0.02363   0.02512   0.03501   0.04726   0.04918
 Alpha virt. eigenvalues --    0.06146   0.06889   0.07214   0.07791   0.07921

 Mulliken charges:
               1
     1  Mg   0.428979
     2  C   -0.070940
     3  C   -0.066089
     4  C   -0.057132
     5  C   -0.071139
     6  N   -0.266062
     7  C    0.163461
     8  C   -0.007363
     9  C    0.007998
    10  C    0.084515
    11  C   -0.044440
    12  C   -0.019337
    13  C    0.002896
    14  C    0.472241
    15  O   -0.493712
    16  O   -0.283813
    17  N   -0.316749
    18  C    0.076458
    19  C   -0.025582
    20  C   -0.063770
    21  C    0.134042
    22  C   -0.048406
    23  C    0.317590
    24  O   -0.567735
    25  C   -0.037564
    26  N   -0.239722
    27  C    0.098624
    28  C   -0.001102
    29  C    0.002316
    30  C    0.168434
    31  C   -0.049729
    32  C   -0.027164
    33  C   -0.057318
    34  N   -0.352658
    35  C    0.116976
    36  C    0.058985
    37  C   -0.043582
    38  C    0.152445
    39  C   -0.034451
    40  C    0.336817
    41  O   -0.487412
    42  C    0.045618
    43  C    0.488767
    44  O   -0.508898
    45  O   -0.267940
    46  C    0.073365
    47  C    0.117368
    48  C   -0.094895
    49  C   -0.003826
    50  C   -0.042776
    51  C   -0.027724
    52  C   -0.039469
    53  C   -0.032816
    54  C   -0.005003
    55  C   -0.064926
    56  C   -0.030581
    57  C   -0.048890
    58  C   -0.033198
    59  C   -0.008223
    60  C   -0.068927
    61  C   -0.038901
    62  C   -0.042944
    63  C   -0.039225
    64  C   -0.005170
    65  C   -0.061883
    66  C   -0.055990
    67  H    0.016371
    68  H    0.046403
    69  H    0.037509
    70  H    0.034917
    71  H    0.023778
    72  H    0.031192
    73  H    0.025739
    74  H    0.011252
    75  H    0.022843
    76  H    0.029679
    77  H    0.046449
    78  H    0.030071
    79  H    0.021879
    80  H    0.027257
    81  H    0.024321
    82  H    0.034641
    83  H    0.042412
    84  H    0.037056
    85  H    0.033105
    86  H    0.028414
    87  H    0.012566
    88  H    0.029427
    89  H    0.028646
    90  H    0.022519
    91  H    0.012598
    92  H    0.024144
    93  H    0.026850
    94  H    0.020979
    95  H    0.038587
    96  H    0.041824
    97  H    0.034187
    98  H    0.069472
    99  H    0.040361
   100  H    0.039925
   101  H    0.030263
   102  H    0.035621
   103  H    0.051901
   104  H    0.022789
   105  H    0.025667
   106  H    0.028654
   107  H    0.021801
   108  H    0.026013
   109  H    0.016062
   110  H    0.026789
   111  H    0.026255
   112  H    0.015982
   113  H    0.015287
   114  H    0.026210
   115  H    0.010494
   116  H    0.027994
   117  H    0.014646
   118  H    0.015517
   119  H    0.019080
   120  H    0.019095
   121  H    0.017461
   122  H    0.020825
   123  H    0.017906
   124  H    0.030762
   125  H    0.022997
   126  H    0.020960
   127  H    0.015680
   128  H    0.009085
   129  H    0.025035
   130  H    0.024930
   131  H    0.018005
   132  H    0.019150
   133  H    0.022712
   134  H    0.023279
   135  H    0.018948
   136  H    0.011038
   137  H    0.018603
   138  H    0.016438
   139  H    0.014033
   140  H    0.015944
 Sum of Mulliken charges =  -0.00000

 Dipole moment (field-independent basis, Debye):
    X=             -4.8556    Y=             -1.0130    Z=             -0.2232  Tot=              4.9651
 N-N= 4.286690796806D+03 E-N= 0.000000000000D+00  KE=-9.247834490369D+03
 Leave Link  601 at Thu May  5 05:37:40 2022, MaxMem=  6710886400 cpu:               0.7 elap:               0.0
 (Enter /sw/apps/gaussian-16.0/g16/l9999.exe)
 1\1\GINC-BP1-COMPUTE211\SP\RZINDO CIS\STO-3G\C55H74Mg1N4O6\OF15641\05-
 May-2022\0\\#p ZINDO=(nstates=5)\\step_651_chromophore_10 ZINDO\\0,1\M
 g,0,40.629,8.165,29.205\C,0,42.274,9.397,31.995\C,0,38.577,6.426,31.45
 3\C,0,39.189,6.716,26.598\C,0,43.371,9.183,27.24\N,0,40.395,7.937,31.4
 95\C,0,41.165,8.584,32.357\C,0,40.732,8.286,33.822\C,0,39.883,6.956,33
 .6\C,0,39.493,7.202,32.123\C,0,40.663,5.691,33.764\C,0,39.954,9.494,34
 .528\C,0,40.486,9.845,35.923\C,0,40.682,11.305,36.329\O,0,41.465,12.05

 Normal termination of Gaussian 16 at Thu May  5 05:37:41 2022.
