 Gaussian 16, Revision A.03,
 Gaussian 16:  ES64L-G16RevA.03 25-Dec-2016

 ------------------------------
 #p blyp/Def2SVP td=(nstates=5)
 ------------------------------

 ---------------------------------------------------
 step_1551_chromophore_24 TDDFT with blyp functional
 ---------------------------------------------------
 Symbolic Z-matrix:
 Charge =  0 Multiplicity = 1

                         Standard orientation:
 ---------------------------------------------------------------------
 Center     Atomic      Atomic             Coordinates (Angstroms)
 Number     Number       Type             X           Y           Z
 ---------------------------------------------------------------------
      1         12           0        5.303482    1.089100    0.379143
      2          6           0        4.806582   -2.307491   -0.031607
      3          6           0        1.911040    1.499845   -0.093053
      4          6           0        5.813386    4.473336   -0.111269
      5          6           0        8.639700    0.530034    0.298709
      6          7           0        3.506941   -0.293428   -0.174904
      7          6           0        3.551759   -1.679342   -0.116446
      8          6           0        2.094666   -2.353005   -0.224186
      9          6           0        1.210701   -0.973903   -0.327105
     10          6           0        2.248052    0.179003   -0.156740
     11          6           0        0.308879   -0.863101   -1.524285
     12          6           0        1.688858   -3.227076    0.950867
     13          6           0        0.168117   -3.555593    1.082479
     14          6           0       -0.646696   -3.784971   -0.234393
     15          8           0       -0.246172   -4.511572   -1.174665
     16          8           0       -1.736643   -2.869161   -0.304122
     17          7           0        4.030689    2.747006    0.121284
     18          6           0        2.711888    2.703349    0.022753
     19          6           0        2.136287    4.036315   -0.074044
     20          6           0        3.294484    4.911669   -0.185108
     21          6           0        4.445532    4.080377   -0.068329
     22          6           0        0.695093    4.410176   -0.176504
     23          6           0        3.298423    6.397931   -0.453028
     24          8           0        4.304338    7.058689   -0.304674
     25          6           0        2.037391    7.233685   -0.840137
     26          7           0        6.956793    2.266644    0.113502
     27          6           0        6.897340    3.640637    0.050958
     28          6           0        8.333273    4.279448    0.040768
     29          6           0        9.208347    3.010594    0.335281
     30          6           0        8.204943    1.869789    0.300733
     31          6           0        8.662782    4.986298   -1.296521
     32          6           0       10.076447    3.050688    1.620246
     33          6           0        9.281370    3.079991    3.009636
     34          7           0        6.561300   -0.533196    0.231864
     35          6           0        7.896635   -0.647741    0.213400
     36          6           0        8.305377   -2.033345    0.107919
     37          6           0        7.113922   -2.758052    0.102443
     38          6           0        6.085466   -1.753260    0.113064
     39          6           0        9.801216   -2.445770    0.099506
     40          6           0        6.506808   -4.103985    0.045032
     41          8           0        7.003757   -5.209989   -0.047746
     42          6           0        4.956368   -3.879541    0.004999
     43          6           0        4.379093   -4.594353   -1.135770
     44          8           0        4.732257   -4.347110   -2.288547
     45          8           0        3.542978   -5.625828   -0.697871
     46          6           0        2.945423   -6.493124   -1.722729
     47          6           0       -2.555897   -2.874250   -1.556336
     48          6           0       -3.996126   -2.788596   -1.100611
     49          6           0       -4.705594   -3.713312   -0.472597
     50          6           0       -4.216947   -5.106944   -0.151903
     51          6           0       -6.091268   -3.475319    0.114191
     52          6           0       -6.097934   -2.872478    1.551343
     53          6           0       -6.794145   -1.531388    1.585317
     54          6           0       -8.359820   -1.505066    1.835754
     55          6           0       -8.570376   -1.477652    3.395221
     56          6           0       -9.145007   -0.273081    1.201532
     57          6           0      -10.478494   -0.598838    0.532720
     58          6           0      -11.712891   -0.216269    1.392281
     59          6           0      -12.324816    1.124248    1.037421
     60          6           0      -11.952743    2.254041    2.088394
     61          6           0      -13.931378    1.018866    1.006271
     62          6           0      -14.668585    1.464589   -0.282165
     63          6           0      -14.345235    2.991126   -0.574509
     64          6           0      -13.971134    2.971314   -2.128621
     65          6           0      -12.460743    3.033062   -2.315628
     66          6           0      -14.677551    4.047501   -2.912270
     67          1           0        0.834094    1.680356   -0.085108
     68          1           0        6.103313    5.489002   -0.391047
     69          1           0        9.725343    0.416372    0.334519
     70          1           0        2.076490   -2.987702   -1.110081
     71          1           0        0.572039   -0.920779    0.555131
     72          1           0       -0.695821   -0.579646   -1.210782
     73          1           0        0.320737   -1.864201   -1.954851
     74          1           0        0.485796   -0.225416   -2.390005
     75          1           0        1.978870   -2.698921    1.859701
     76          1           0        2.192079   -4.185603    1.078146
     77          1           0       -0.302758   -2.715306    1.594037
     78          1           0        0.106203   -4.456343    1.692674
     79          1           0        0.408806    5.200635   -0.870445
     80          1           0        0.461306    4.825026    0.803715
     81          1           0        0.029204    3.575274   -0.391759
     82          1           0        1.296774    7.081368   -0.055253
     83          1           0        1.598504    6.831105   -1.752688
     84          1           0        2.382406    8.246898   -1.046238
     85          1           0        8.337505    5.091121    0.768139
     86          1           0        9.840080    2.768396   -0.519446
     87          1           0        9.212071    4.323451   -1.965674
     88          1           0        9.141960    5.961253   -1.205850
     89          1           0        7.803429    5.296476   -1.890729
     90          1           0       10.650993    3.977194    1.631825
     91          1           0       10.927302    2.369609    1.580305
     92          1           0        9.526095    4.023501    3.497565
     93          1           0        9.669055    2.235542    3.578911
     94          1           0        8.194474    3.079441    2.916274
     95          1           0       10.324523   -2.212587    1.025738
     96          1           0       10.276700   -1.958138   -0.751477
     97          1           0        9.933652   -3.516970   -0.052052
     98          1           0        4.491563   -4.302103    0.895389
     99          1           0        3.688294   -6.748395   -2.478746
    100          1           0        2.119419   -6.065559   -2.291599
    101          1           0        2.665404   -7.486985   -1.375391
    102          1           0       -2.384756   -3.713046   -2.231402
    103          1           0       -2.401960   -1.938154   -2.092649
    104          1           0       -4.377395   -1.770876   -1.187616
    105          1           0       -3.754389   -5.139658    0.834511
    106          1           0       -3.375940   -5.351866   -0.799646
    107          1           0       -4.975570   -5.882330   -0.261503
    108          1           0       -6.726320   -4.359738    0.161550
    109          1           0       -6.636685   -2.803706   -0.548858
    110          1           0       -5.035421   -2.757171    1.761642
    111          1           0       -6.584377   -3.633977    2.160324
    112          1           0       -6.714126   -0.999352    0.637993
    113          1           0       -6.192673   -0.897334    2.236006
    114          1           0       -8.753656   -2.394035    1.342706
    115          1           0       -8.293728   -0.495460    3.779542
    116          1           0       -8.094908   -2.307238    3.919975
    117          1           0       -9.646690   -1.508365    3.567340
    118          1           0       -8.504700    0.295902    0.527739
    119          1           0       -9.276381    0.487372    1.972043
    120          1           0      -10.484813   -1.663993    0.300805
    121          1           0      -10.524399   -0.020977   -0.389967
    122          1           0      -11.413544   -0.130660    2.436720
    123          1           0      -12.452172   -1.014335    1.325827
    124          1           0      -11.862319    1.533840    0.139788
    125          1           0      -11.121612    2.784800    1.623108
    126          1           0      -11.480780    1.871636    2.993577
    127          1           0      -12.724589    2.982373    2.337199
    128          1           0      -14.362924    1.572087    1.840548
    129          1           0      -14.282487   -0.004971    1.132546
    130          1           0      -15.726016    1.215203   -0.197788
    131          1           0      -14.423393    0.761321   -1.078974
    132          1           0      -13.452774    3.235572    0.001511
    133          1           0      -15.236216    3.593897   -0.397561
    134          1           0      -14.310142    2.058671   -2.618296
    135          1           0      -12.032952    2.040164   -2.461323
    136          1           0      -11.939249    3.554785   -1.513534
    137          1           0      -12.174647    3.573800   -3.216381
    138          1           0      -14.955331    3.687556   -3.903655
    139          1           0      -14.033958    4.912273   -3.071178
    140          1           0      -15.561509    4.393601   -2.376511
 ---------------------------------------------------------------------

 SCF Done:  E(RB-LYP) =  -3007.38924517     A.U. after   21 cycles

 Excitation energies and oscillator strengths:

 Excited State   1:      Singlet-A      1.8523 eV  669.34 nm  f=0.2836  <S**2>=0.000
     244 -> 247       -0.18922
     245 -> 248       -0.17417
     246 -> 247        0.66188
     246 <- 247       -0.14276
 This state for optimization and/or second-order correction.
 Total Energy, E(TD-HF/TD-DFT) =  -3007.32117348
 Copying the excited state density for this state as the 1-particle RhoCI density.

 Excited State   2:      Singlet-A      1.9010 eV  652.21 nm  f=0.0371  <S**2>=0.000
     244 -> 247        0.64473
     245 -> 247        0.20265
     246 -> 247        0.19314

 Excited State   3:      Singlet-A      2.0362 eV  608.91 nm  f=0.0760  <S**2>=0.000
     243 -> 247        0.23260
     244 -> 247       -0.21033
     245 -> 247        0.58926
     246 -> 248        0.19568

 Excited State   4:      Singlet-A      2.1364 eV  580.35 nm  f=0.0122  <S**2>=0.000
     243 -> 247        0.66546
     245 -> 247       -0.20135

 Excited State   5:      Singlet-A      2.5671 eV  482.98 nm  f=0.0024  <S**2>=0.000
     242 -> 247        0.68402
     246 -> 248       -0.12193

 The electronic state is 1-A.
 Alpha  occ. eigenvalues --  -46.27403 -18.83128 -18.82109 -18.78477 -18.76163
 Alpha  occ. eigenvalues --  -18.75954 -18.75178 -14.02971 -14.02918 -14.00956
 Alpha  occ. eigenvalues --  -14.00838 -10.05681 -10.03355  -9.99967  -9.99597
 Alpha  occ. eigenvalues --   -9.98356  -9.96784  -9.96766  -9.96119  -9.95806
 Alpha  occ. eigenvalues --   -9.95659  -9.95489  -9.95430  -9.95028  -9.94882
 Alpha  occ. eigenvalues --   -9.94691  -9.94649  -9.94345  -9.93877  -9.93750
 Alpha  occ. eigenvalues --   -9.93683  -9.93643  -9.93606  -9.93603  -9.93383
 Alpha  occ. eigenvalues --   -9.93312  -9.93055  -9.93036  -9.93035  -9.92514
 Alpha  occ. eigenvalues --   -9.92377  -9.92372  -9.92262  -9.92249  -9.92216
 Alpha  occ. eigenvalues --   -9.92078  -9.92018  -9.91888  -9.91835  -9.91828
 Alpha  occ. eigenvalues --   -9.91791  -9.91789  -9.91707  -9.91660  -9.91584
 Alpha  occ. eigenvalues --   -9.91525  -9.91515  -9.91405  -9.91340  -9.91335
 Alpha  occ. eigenvalues --   -9.91137  -9.91006  -9.90986  -9.90968  -9.90774
 Alpha  occ. eigenvalues --   -9.90276  -2.92086  -1.72485  -1.71973  -1.71807
 Alpha  occ. eigenvalues --   -0.96243  -0.96126  -0.91885  -0.91697  -0.89657
 Alpha  occ. eigenvalues --   -0.89065  -0.87916  -0.86348  -0.85451  -0.84544
 Alpha  occ. eigenvalues --   -0.74841  -0.74002  -0.72927  -0.72704  -0.71860
 Alpha  occ. eigenvalues --   -0.71701  -0.71514  -0.70792  -0.70563  -0.70006
 Alpha  occ. eigenvalues --   -0.69611  -0.68909  -0.68273  -0.67393  -0.66877
 Alpha  occ. eigenvalues --   -0.66369  -0.65513  -0.65000  -0.64624  -0.64026
 Alpha  occ. eigenvalues --   -0.63777  -0.62616  -0.62443  -0.61710  -0.60559
 Alpha  occ. eigenvalues --   -0.60300  -0.60235  -0.59835  -0.59815  -0.58697
 Alpha  occ. eigenvalues --   -0.58381  -0.57657  -0.56537  -0.55828  -0.55308
 Alpha  occ. eigenvalues --   -0.54307  -0.54059  -0.52852  -0.52437  -0.51734
 Alpha  occ. eigenvalues --   -0.51184  -0.51081  -0.50538  -0.50126  -0.49815
 Alpha  occ. eigenvalues --   -0.49319  -0.49283  -0.49105  -0.48345  -0.46443
 Alpha  occ. eigenvalues --   -0.46378  -0.45733  -0.45672  -0.44988  -0.43851
 Alpha  occ. eigenvalues --   -0.43665  -0.43414  -0.43264  -0.42616  -0.42371
 Alpha  occ. eigenvalues --   -0.41989  -0.41671  -0.41411  -0.41158  -0.40752
 Alpha  occ. eigenvalues --   -0.40673  -0.40283  -0.40202  -0.39991  -0.39788
 Alpha  occ. eigenvalues --   -0.39621  -0.39359  -0.39315  -0.39094  -0.38959
 Alpha  occ. eigenvalues --   -0.38812  -0.38619  -0.38495  -0.38273  -0.38076
 Alpha  occ. eigenvalues --   -0.38040  -0.37877  -0.37449  -0.37325  -0.37204
 Alpha  occ. eigenvalues --   -0.36839  -0.36732  -0.36658  -0.36465  -0.36198
 Alpha  occ. eigenvalues --   -0.36126  -0.36094  -0.36018  -0.35759  -0.35611
 Alpha  occ. eigenvalues --   -0.35321  -0.34967  -0.34822  -0.34752  -0.34628
 Alpha  occ. eigenvalues --   -0.34363  -0.34267  -0.34197  -0.34104  -0.34029
 Alpha  occ. eigenvalues --   -0.33626  -0.33588  -0.33480  -0.33226  -0.33104
 Alpha  occ. eigenvalues --   -0.32833  -0.32772  -0.32646  -0.32564  -0.32291
 Alpha  occ. eigenvalues --   -0.32218  -0.32079  -0.31955  -0.31861  -0.31584
 Alpha  occ. eigenvalues --   -0.31502  -0.31275  -0.31097  -0.30779  -0.30584
 Alpha  occ. eigenvalues --   -0.30553  -0.30284  -0.30184  -0.30107  -0.29899
 Alpha  occ. eigenvalues --   -0.29894  -0.29485  -0.29362  -0.28985  -0.28848
 Alpha  occ. eigenvalues --   -0.28553  -0.28406  -0.28265  -0.27935  -0.27854
 Alpha  occ. eigenvalues --   -0.27557  -0.27501  -0.27158  -0.26969  -0.26574
 Alpha  occ. eigenvalues --   -0.26558  -0.26247  -0.26140  -0.25823  -0.25230
 Alpha  occ. eigenvalues --   -0.24933  -0.24595  -0.24487  -0.23723  -0.23530
 Alpha  occ. eigenvalues --   -0.23355  -0.23192  -0.22191  -0.21293  -0.21169
 Alpha  occ. eigenvalues --   -0.21068  -0.20141  -0.18939  -0.18195  -0.16962
 Alpha  occ. eigenvalues --   -0.15646
 Alpha virt. eigenvalues --   -0.11254  -0.06469  -0.05843  -0.05264  -0.04208
 Alpha virt. eigenvalues --   -0.03211  -0.03138  -0.02871  -0.00882   0.00525
 Alpha virt. eigenvalues --    0.01559   0.02096   0.02278   0.02492   0.03026

 Mulliken charges:
               1
     1  Mg   0.709102
     2  C    0.006062
     3  C   -0.064051
     4  C   -0.063887
     5  C   -0.108424
     6  N   -0.200648
     7  C   -0.103145
     8  C    0.035749
     9  C    0.004443
    10  C    0.023412
    11  C    0.122438
    12  C    0.087478
    13  C    0.124457
    14  C    0.121052
    15  O   -0.213286
    16  O   -0.303915
    17  N   -0.262976
    18  C    0.117284
    19  C   -0.134986
    20  C    0.065272
    21  C    0.104206
    22  C    0.157272
    23  C   -0.105165
    24  O   -0.162616
    25  C    0.122622
    26  N   -0.231808
    27  C    0.042402
    28  C    0.004243
    29  C    0.094142
    30  C    0.024332
    31  C    0.106707
    32  C    0.070314
    33  C    0.054761
    34  N   -0.213500
    35  C    0.118165
    36  C   -0.175193
    37  C    0.057751
    38  C    0.106204
    39  C    0.159704
    40  C   -0.014742
    41  O   -0.110998
    42  C    0.056023
    43  C    0.114264
    44  O   -0.184742
    45  O   -0.285225
    46  C    0.221467
    47  C    0.319252
    48  C   -0.124681
    49  C   -0.112457
    50  C    0.147252
    51  C    0.103316
    52  C    0.111614
    53  C    0.086807
    54  C   -0.048634
    55  C    0.105228
    56  C    0.078930
    57  C    0.094258
    58  C    0.120469
    59  C   -0.086850
    60  C    0.081963
    61  C    0.088127
    62  C    0.039784
    63  C    0.129967
    64  C   -0.107302
    65  C    0.108461
    66  C    0.113596
    67  H   -0.080366
    68  H   -0.036506
    69  H   -0.073167
    70  H    0.015311
    71  H   -0.022505
    72  H   -0.008975
    73  H   -0.000769
    74  H   -0.010813
    75  H   -0.031731
    76  H    0.003681
    77  H   -0.008435
    78  H    0.003260
    79  H   -0.008660
    80  H    0.004212
    81  H   -0.011162
    82  H    0.005938
    83  H    0.004605
    84  H   -0.001139
    85  H   -0.019272
    86  H   -0.030216
    87  H   -0.015278
    88  H   -0.010846
    89  H   -0.011761
    90  H   -0.030851
    91  H   -0.026573
    92  H   -0.007261
    93  H    0.005399
    94  H    0.009351
    95  H    0.005685
    96  H    0.001085
    97  H   -0.000186
    98  H   -0.007068
    99  H    0.001430
   100  H    0.023578
   101  H    0.009068
   102  H    0.019728
   103  H   -0.010921
   104  H   -0.042390
   105  H    0.001042
   106  H   -0.017312
   107  H   -0.000960
   108  H   -0.040438
   109  H   -0.029568
   110  H   -0.023327
   111  H   -0.024006
   112  H   -0.045819
   113  H   -0.043229
   114  H   -0.040686
   115  H   -0.012256
   116  H   -0.010017
   117  H   -0.021740
   118  H   -0.050504
   119  H   -0.045840
   120  H   -0.033965
   121  H   -0.030319
   122  H   -0.028043
   123  H   -0.034576
   124  H   -0.022646
   125  H   -0.030904
   126  H   -0.020187
   127  H    0.002932
   128  H   -0.031971
   129  H   -0.043041
   130  H   -0.039643
   131  H   -0.030478
   132  H   -0.016633
   133  H   -0.022052
   134  H   -0.027658
   135  H   -0.013688
   136  H   -0.011629
   137  H   -0.032843
   138  H   -0.020110
   139  H   -0.027856
   140  H   -0.026628
 Sum of Mulliken charges =  -0.00000

 Dipole moment (field-independent basis, Debye):
    X=             -4.6763    Y=              1.5475    Z=              2.8099  Tot=              5.6708
 Quadrupole moment (field-independent basis, Debye-Ang):
   XX=           -386.3188   YY=           -434.4783   ZZ=           -407.2522
   XY=             30.4444   XZ=             18.5415   YZ=             -8.1151

 Normal termination of Gaussian 16 at Wed May  4 09:59:57 2022.
