 Gaussian 16, Revision A.03,
 Gaussian 16:  ES64L-G16RevA.03 25-Dec-2016

 -----------------------------------
 #p cam-b3lyp/Def2SVP td=(nstates=5)
 -----------------------------------

 --------------------------------------------------------
 step_1551_chromophore_24 TDDFT with cam-b3lyp functional
 --------------------------------------------------------
 Symbolic Z-matrix:
 Charge =  0 Multiplicity = 1

                         Standard orientation:
 ---------------------------------------------------------------------
 Center     Atomic      Atomic             Coordinates (Angstroms)
 Number     Number       Type             X           Y           Z
 ---------------------------------------------------------------------
      1         12           0        5.303482    1.089100    0.379143
      2          6           0        4.806582   -2.307491   -0.031607
      3          6           0        1.911040    1.499845   -0.093053
      4          6           0        5.813386    4.473336   -0.111269
      5          6           0        8.639700    0.530034    0.298709
      6          7           0        3.506941   -0.293428   -0.174904
      7          6           0        3.551759   -1.679342   -0.116446
      8          6           0        2.094666   -2.353005   -0.224186
      9          6           0        1.210701   -0.973903   -0.327105
     10          6           0        2.248052    0.179003   -0.156740
     11          6           0        0.308879   -0.863101   -1.524285
     12          6           0        1.688858   -3.227076    0.950867
     13          6           0        0.168117   -3.555593    1.082479
     14          6           0       -0.646696   -3.784971   -0.234393
     15          8           0       -0.246172   -4.511572   -1.174665
     16          8           0       -1.736643   -2.869161   -0.304122
     17          7           0        4.030689    2.747006    0.121284
     18          6           0        2.711888    2.703349    0.022753
     19          6           0        2.136287    4.036315   -0.074044
     20          6           0        3.294484    4.911669   -0.185108
     21          6           0        4.445532    4.080377   -0.068329
     22          6           0        0.695093    4.410176   -0.176504
     23          6           0        3.298423    6.397931   -0.453028
     24          8           0        4.304338    7.058689   -0.304674
     25          6           0        2.037391    7.233685   -0.840137
     26          7           0        6.956793    2.266644    0.113502
     27          6           0        6.897340    3.640637    0.050958
     28          6           0        8.333273    4.279448    0.040768
     29          6           0        9.208347    3.010594    0.335281
     30          6           0        8.204943    1.869789    0.300733
     31          6           0        8.662782    4.986298   -1.296521
     32          6           0       10.076447    3.050688    1.620246
     33          6           0        9.281370    3.079991    3.009636
     34          7           0        6.561300   -0.533196    0.231864
     35          6           0        7.896635   -0.647741    0.213400
     36          6           0        8.305377   -2.033345    0.107919
     37          6           0        7.113922   -2.758052    0.102443
     38          6           0        6.085466   -1.753260    0.113064
     39          6           0        9.801216   -2.445770    0.099506
     40          6           0        6.506808   -4.103985    0.045032
     41          8           0        7.003757   -5.209989   -0.047746
     42          6           0        4.956368   -3.879541    0.004999
     43          6           0        4.379093   -4.594353   -1.135770
     44          8           0        4.732257   -4.347110   -2.288547
     45          8           0        3.542978   -5.625828   -0.697871
     46          6           0        2.945423   -6.493124   -1.722729
     47          6           0       -2.555897   -2.874250   -1.556336
     48          6           0       -3.996126   -2.788596   -1.100611
     49          6           0       -4.705594   -3.713312   -0.472597
     50          6           0       -4.216947   -5.106944   -0.151903
     51          6           0       -6.091268   -3.475319    0.114191
     52          6           0       -6.097934   -2.872478    1.551343
     53          6           0       -6.794145   -1.531388    1.585317
     54          6           0       -8.359820   -1.505066    1.835754
     55          6           0       -8.570376   -1.477652    3.395221
     56          6           0       -9.145007   -0.273081    1.201532
     57          6           0      -10.478494   -0.598838    0.532720
     58          6           0      -11.712891   -0.216269    1.392281
     59          6           0      -12.324816    1.124248    1.037421
     60          6           0      -11.952743    2.254041    2.088394
     61          6           0      -13.931378    1.018866    1.006271
     62          6           0      -14.668585    1.464589   -0.282165
     63          6           0      -14.345235    2.991126   -0.574509
     64          6           0      -13.971134    2.971314   -2.128621
     65          6           0      -12.460743    3.033062   -2.315628
     66          6           0      -14.677551    4.047501   -2.912270
     67          1           0        0.834094    1.680356   -0.085108
     68          1           0        6.103313    5.489002   -0.391047
     69          1           0        9.725343    0.416372    0.334519
     70          1           0        2.076490   -2.987702   -1.110081
     71          1           0        0.572039   -0.920779    0.555131
     72          1           0       -0.695821   -0.579646   -1.210782
     73          1           0        0.320737   -1.864201   -1.954851
     74          1           0        0.485796   -0.225416   -2.390005
     75          1           0        1.978870   -2.698921    1.859701
     76          1           0        2.192079   -4.185603    1.078146
     77          1           0       -0.302758   -2.715306    1.594037
     78          1           0        0.106203   -4.456343    1.692674
     79          1           0        0.408806    5.200635   -0.870445
     80          1           0        0.461306    4.825026    0.803715
     81          1           0        0.029204    3.575274   -0.391759
     82          1           0        1.296774    7.081368   -0.055253
     83          1           0        1.598504    6.831105   -1.752688
     84          1           0        2.382406    8.246898   -1.046238
     85          1           0        8.337505    5.091121    0.768139
     86          1           0        9.840080    2.768396   -0.519446
     87          1           0        9.212071    4.323451   -1.965674
     88          1           0        9.141960    5.961253   -1.205850
     89          1           0        7.803429    5.296476   -1.890729
     90          1           0       10.650993    3.977194    1.631825
     91          1           0       10.927302    2.369609    1.580305
     92          1           0        9.526095    4.023501    3.497565
     93          1           0        9.669055    2.235542    3.578911
     94          1           0        8.194474    3.079441    2.916274
     95          1           0       10.324523   -2.212587    1.025738
     96          1           0       10.276700   -1.958138   -0.751477
     97          1           0        9.933652   -3.516970   -0.052052
     98          1           0        4.491563   -4.302103    0.895389
     99          1           0        3.688294   -6.748395   -2.478746
    100          1           0        2.119419   -6.065559   -2.291599
    101          1           0        2.665404   -7.486985   -1.375391
    102          1           0       -2.384756   -3.713046   -2.231402
    103          1           0       -2.401960   -1.938154   -2.092649
    104          1           0       -4.377395   -1.770876   -1.187616
    105          1           0       -3.754389   -5.139658    0.834511
    106          1           0       -3.375940   -5.351866   -0.799646
    107          1           0       -4.975570   -5.882330   -0.261503
    108          1           0       -6.726320   -4.359738    0.161550
    109          1           0       -6.636685   -2.803706   -0.548858
    110          1           0       -5.035421   -2.757171    1.761642
    111          1           0       -6.584377   -3.633977    2.160324
    112          1           0       -6.714126   -0.999352    0.637993
    113          1           0       -6.192673   -0.897334    2.236006
    114          1           0       -8.753656   -2.394035    1.342706
    115          1           0       -8.293728   -0.495460    3.779542
    116          1           0       -8.094908   -2.307238    3.919975
    117          1           0       -9.646690   -1.508365    3.567340
    118          1           0       -8.504700    0.295902    0.527739
    119          1           0       -9.276381    0.487372    1.972043
    120          1           0      -10.484813   -1.663993    0.300805
    121          1           0      -10.524399   -0.020977   -0.389967
    122          1           0      -11.413544   -0.130660    2.436720
    123          1           0      -12.452172   -1.014335    1.325827
    124          1           0      -11.862319    1.533840    0.139788
    125          1           0      -11.121612    2.784800    1.623108
    126          1           0      -11.480780    1.871636    2.993577
    127          1           0      -12.724589    2.982373    2.337199
    128          1           0      -14.362924    1.572087    1.840548
    129          1           0      -14.282487   -0.004971    1.132546
    130          1           0      -15.726016    1.215203   -0.197788
    131          1           0      -14.423393    0.761321   -1.078974
    132          1           0      -13.452774    3.235572    0.001511
    133          1           0      -15.236216    3.593897   -0.397561
    134          1           0      -14.310142    2.058671   -2.618296
    135          1           0      -12.032952    2.040164   -2.461323
    136          1           0      -11.939249    3.554785   -1.513534
    137          1           0      -12.174647    3.573800   -3.216381
    138          1           0      -14.955331    3.687556   -3.903655
    139          1           0      -14.033958    4.912273   -3.071178
    140          1           0      -15.561509    4.393601   -2.376511
 ---------------------------------------------------------------------

 SCF Done:  E(RCAM-B3LYP) =  -3007.17834360     A.U. after   19 cycles

 Excitation energies and oscillator strengths:

 Excited State   1:      Singlet-A      1.7536 eV  707.03 nm  f=0.3939  <S**2>=0.000
     245 -> 248        0.17769
     246 -> 247        0.68525
     245 <- 248        0.10568
 This state for optimization and/or second-order correction.
 Total Energy, E(TD-HF/TD-DFT) =  -3007.11390028
 Copying the excited state density for this state as the 1-particle RhoCI density.

 Excited State   2:      Singlet-A      2.2471 eV  551.76 nm  f=0.1364  <S**2>=0.000
     245 -> 247        0.64682
     246 -> 248       -0.27504

 Excited State   3:      Singlet-A      3.4286 eV  361.62 nm  f=0.0044  <S**2>=0.000
     244 -> 247        0.67233
     246 -> 248        0.15229

 Excited State   4:      Singlet-A      3.5680 eV  347.49 nm  f=0.1344  <S**2>=0.000
     240 -> 247        0.36904
     240 -> 249       -0.25844
     242 -> 247        0.34258
     242 -> 249       -0.11626
     245 -> 247        0.11665
     246 -> 248        0.30924

 Excited State   5:      Singlet-A      3.6336 eV  341.22 nm  f=0.4722  <S**2>=0.000
     239 -> 247        0.12066
     240 -> 247       -0.31979
     240 -> 249        0.18193
     244 -> 247       -0.10894
     245 -> 247        0.22050
     246 -> 248        0.50407

 The electronic state is 1-A.
 Alpha  occ. eigenvalues --  -46.88944 -19.26049 -19.25206 -19.21537 -19.19498
 Alpha  occ. eigenvalues --  -19.19448 -19.18150 -14.41780 -14.41770 -14.39361
 Alpha  occ. eigenvalues --  -14.39212 -10.41296 -10.39028 -10.35572 -10.34522
 Alpha  occ. eigenvalues --  -10.32533 -10.31556 -10.30841 -10.30648 -10.30002
 Alpha  occ. eigenvalues --  -10.29838 -10.29516 -10.29471 -10.29423 -10.29205
 Alpha  occ. eigenvalues --  -10.29137 -10.28786 -10.28698 -10.28363 -10.28034
 Alpha  occ. eigenvalues --  -10.27848 -10.27764 -10.27614 -10.27593 -10.27583
 Alpha  occ. eigenvalues --  -10.27503 -10.26861 -10.26805 -10.26689 -10.26503
 Alpha  occ. eigenvalues --  -10.26339 -10.26207 -10.26206 -10.26184 -10.26146
 Alpha  occ. eigenvalues --  -10.25914 -10.25880 -10.25837 -10.25752 -10.25700
 Alpha  occ. eigenvalues --  -10.25634 -10.25485 -10.25338 -10.25332 -10.25256
 Alpha  occ. eigenvalues --  -10.25238 -10.25162 -10.25102 -10.24993 -10.24957
 Alpha  occ. eigenvalues --  -10.24805 -10.24706 -10.24621 -10.24607 -10.24353
 Alpha  occ. eigenvalues --  -10.23825  -3.17531  -1.92405  -1.91987  -1.91841
 Alpha  occ. eigenvalues --   -1.14775  -1.14635  -1.10413  -1.10091  -1.07502
 Alpha  occ. eigenvalues --   -1.07163  -1.05821  -1.03968  -1.02894  -1.01984
 Alpha  occ. eigenvalues --   -0.92141  -0.90876  -0.89730  -0.89524  -0.88534
 Alpha  occ. eigenvalues --   -0.88338  -0.88056  -0.87328  -0.87189  -0.86451
 Alpha  occ. eigenvalues --   -0.86169  -0.85210  -0.84546  -0.83662  -0.82941
 Alpha  occ. eigenvalues --   -0.82398  -0.81420  -0.80903  -0.80504  -0.79803
 Alpha  occ. eigenvalues --   -0.79650  -0.78226  -0.78183  -0.77174  -0.76060
 Alpha  occ. eigenvalues --   -0.75627  -0.75587  -0.75128  -0.75070  -0.73884
 Alpha  occ. eigenvalues --   -0.73457  -0.72715  -0.71371  -0.70635  -0.69967
 Alpha  occ. eigenvalues --   -0.68929  -0.68748  -0.67221  -0.66799  -0.65908
 Alpha  occ. eigenvalues --   -0.65272  -0.65148  -0.64542  -0.64096  -0.63749
 Alpha  occ. eigenvalues --   -0.63262  -0.63076  -0.62983  -0.62109  -0.59939
 Alpha  occ. eigenvalues --   -0.59844  -0.59447  -0.59197  -0.58355  -0.57523
 Alpha  occ. eigenvalues --   -0.56906  -0.56831  -0.56625  -0.55691  -0.55369
 Alpha  occ. eigenvalues --   -0.55123  -0.54735  -0.54390  -0.54186  -0.53970
 Alpha  occ. eigenvalues --   -0.53478  -0.53005  -0.52937  -0.52808  -0.52682
 Alpha  occ. eigenvalues --   -0.52319  -0.52034  -0.51814  -0.51701  -0.51523
 Alpha  occ. eigenvalues --   -0.51397  -0.51241  -0.51088  -0.50879  -0.50483
 Alpha  occ. eigenvalues --   -0.50364  -0.50329  -0.49760  -0.49534  -0.49441
 Alpha  occ. eigenvalues --   -0.49290  -0.49144  -0.48850  -0.48707  -0.48619
 Alpha  occ. eigenvalues --   -0.48439  -0.48189  -0.48067  -0.47983  -0.47658
 Alpha  occ. eigenvalues --   -0.47429  -0.47325  -0.47134  -0.46675  -0.46482
 Alpha  occ. eigenvalues --   -0.46160  -0.46110  -0.45938  -0.45881  -0.45776
 Alpha  occ. eigenvalues --   -0.45490  -0.45425  -0.45204  -0.45056  -0.44975
 Alpha  occ. eigenvalues --   -0.44592  -0.44379  -0.44362  -0.44190  -0.44103
 Alpha  occ. eigenvalues --   -0.43746  -0.43702  -0.43539  -0.43266  -0.43187
 Alpha  occ. eigenvalues --   -0.43115  -0.42809  -0.42665  -0.42179  -0.41988
 Alpha  occ. eigenvalues --   -0.41914  -0.41784  -0.41512  -0.41437  -0.41309
 Alpha  occ. eigenvalues --   -0.41235  -0.40995  -0.40464  -0.40373  -0.39999
 Alpha  occ. eigenvalues --   -0.39528  -0.39365  -0.39223  -0.38985  -0.38823
 Alpha  occ. eigenvalues --   -0.38542  -0.38347  -0.37907  -0.37786  -0.37735
 Alpha  occ. eigenvalues --   -0.37342  -0.37079  -0.36828  -0.36738  -0.36191
 Alpha  occ. eigenvalues --   -0.35785  -0.35751  -0.35117  -0.34883  -0.34131
 Alpha  occ. eigenvalues --   -0.33956  -0.33855  -0.32951  -0.31485  -0.31283
 Alpha  occ. eigenvalues --   -0.30995  -0.30740  -0.30150  -0.29161  -0.23672
 Alpha  occ. eigenvalues --   -0.20969
 Alpha virt. eigenvalues --   -0.08357  -0.01087   0.00627   0.01781   0.02496
 Alpha virt. eigenvalues --    0.02895   0.04304   0.04621   0.06148   0.07414
 Alpha virt. eigenvalues --    0.08201   0.08558   0.08694   0.09181   0.09413

 Mulliken charges:
               1
     1  Mg   0.840233
     2  C   -0.021891
     3  C   -0.075889
     4  C   -0.070030
     5  C   -0.113321
     6  N   -0.268433
     7  C   -0.055826
     8  C   -0.014509
     9  C   -0.044928
    10  C    0.042007
    11  C    0.060096
    12  C    0.042965
    13  C    0.055323
    14  C    0.196889
    15  O   -0.253472
    16  O   -0.367470
    17  N   -0.351477
    18  C    0.129788
    19  C   -0.146249
    20  C   -0.003938
    21  C    0.119224
    22  C    0.098311
    23  C   -0.031428
    24  O   -0.205148
    25  C    0.049233
    26  N   -0.304880
    27  C    0.053122
    28  C   -0.048507
    29  C    0.029891
    30  C    0.045740
    31  C    0.048628
    32  C    0.018430
    33  C   -0.006628
    34  N   -0.306557
    35  C    0.119791
    36  C   -0.165787
    37  C   -0.022998
    38  C    0.140037
    39  C    0.111066
    40  C    0.090480
    41  O   -0.147177
    42  C   -0.021789
    43  C    0.203584
    44  O   -0.219620
    45  O   -0.350629
    46  C    0.181451
    47  C    0.283649
    48  C   -0.143385
    49  C   -0.136592
    50  C    0.085439
    51  C    0.047792
    52  C    0.055622
    53  C    0.032654
    54  C   -0.103965
    55  C    0.051006
    56  C    0.028249
    57  C    0.036248
    58  C    0.068729
    59  C   -0.142321
    60  C    0.025091
    61  C    0.038337
    62  C   -0.006745
    63  C    0.072517
    64  C   -0.165809
    65  C    0.046578
    66  C    0.054904
    67  H   -0.045913
    68  H    0.002616
    69  H   -0.036724
    70  H    0.046231
    71  H    0.011593
    72  H    0.014260
    73  H    0.020076
    74  H    0.018527
    75  H    0.000811
    76  H    0.032187
    77  H    0.025757
    78  H    0.036039
    79  H    0.016971
    80  H    0.029839
    81  H    0.014981
    82  H    0.030677
    83  H    0.030471
    84  H    0.032712
    85  H    0.015366
    86  H    0.006788
    87  H    0.008841
    88  H    0.014075
    89  H    0.014203
    90  H   -0.000653
    91  H    0.001686
    92  H    0.016593
    93  H    0.028007
    94  H    0.030068
    95  H    0.031915
    96  H    0.027087
    97  H    0.028683
    98  H    0.036884
    99  H    0.027046
   100  H    0.045796
   101  H    0.032924
   102  H    0.050771
   103  H    0.016158
   104  H   -0.010146
   105  H    0.024594
   106  H    0.006299
   107  H    0.024185
   108  H   -0.009459
   109  H    0.000197
   110  H    0.007432
   111  H    0.003391
   112  H   -0.018591
   113  H   -0.013041
   114  H   -0.011693
   115  H    0.010672
   116  H    0.013685
   117  H    0.000917
   118  H   -0.018660
   119  H   -0.019083
   120  H   -0.004365
   121  H   -0.001984
   122  H   -0.003628
   123  H   -0.003542
   124  H    0.004400
   125  H   -0.007148
   126  H    0.003885
   127  H    0.025734
   128  H   -0.004058
   129  H   -0.014266
   130  H   -0.010095
   131  H   -0.004621
   132  H    0.006448
   133  H    0.007521
   134  H    0.003790
   135  H    0.008800
   136  H    0.010099
   137  H   -0.005202
   138  H    0.004439
   139  H   -0.003346
   140  H   -0.002614
 Sum of Mulliken charges =  -0.00000

 Dipole moment (field-independent basis, Debye):
    X=             -4.6281    Y=              1.1864    Z=              2.8658  Tot=              5.5713
 Quadrupole moment (field-independent basis, Debye-Ang):
   XX=           -382.6813   YY=           -431.7798   ZZ=           -407.3341
   XY=             28.1145   XZ=             19.6145   YZ=             -9.1750

 Normal termination of Gaussian 16 at Wed May  4 09:04:31 2022.
