 Gaussian 16, Revision A.03,
 Gaussian 16:  ES64L-G16RevA.03 25-Dec-2016

 ---------------------------------
 #p PBE1PBE/Def2SVP td=(nstates=5)
 ---------------------------------

 ------------------------------------------------------
 step_1551_chromophore_24 TDDFT with PBE1PBE functional
 ------------------------------------------------------
 Symbolic Z-matrix:
 Charge =  0 Multiplicity = 1

                         Standard orientation:
 ---------------------------------------------------------------------
 Center     Atomic      Atomic             Coordinates (Angstroms)
 Number     Number       Type             X           Y           Z
 ---------------------------------------------------------------------
      1         12           0        5.303482    1.089100    0.379143
      2          6           0        4.806582   -2.307491   -0.031607
      3          6           0        1.911040    1.499845   -0.093053
      4          6           0        5.813386    4.473336   -0.111269
      5          6           0        8.639700    0.530034    0.298709
      6          7           0        3.506941   -0.293428   -0.174904
      7          6           0        3.551759   -1.679342   -0.116446
      8          6           0        2.094666   -2.353005   -0.224186
      9          6           0        1.210701   -0.973903   -0.327105
     10          6           0        2.248052    0.179003   -0.156740
     11          6           0        0.308879   -0.863101   -1.524285
     12          6           0        1.688858   -3.227076    0.950867
     13          6           0        0.168117   -3.555593    1.082479
     14          6           0       -0.646696   -3.784971   -0.234393
     15          8           0       -0.246172   -4.511572   -1.174665
     16          8           0       -1.736643   -2.869161   -0.304122
     17          7           0        4.030689    2.747006    0.121284
     18          6           0        2.711888    2.703349    0.022753
     19          6           0        2.136287    4.036315   -0.074044
     20          6           0        3.294484    4.911669   -0.185108
     21          6           0        4.445532    4.080377   -0.068329
     22          6           0        0.695093    4.410176   -0.176504
     23          6           0        3.298423    6.397931   -0.453028
     24          8           0        4.304338    7.058689   -0.304674
     25          6           0        2.037391    7.233685   -0.840137
     26          7           0        6.956793    2.266644    0.113502
     27          6           0        6.897340    3.640637    0.050958
     28          6           0        8.333273    4.279448    0.040768
     29          6           0        9.208347    3.010594    0.335281
     30          6           0        8.204943    1.869789    0.300733
     31          6           0        8.662782    4.986298   -1.296521
     32          6           0       10.076447    3.050688    1.620246
     33          6           0        9.281370    3.079991    3.009636
     34          7           0        6.561300   -0.533196    0.231864
     35          6           0        7.896635   -0.647741    0.213400
     36          6           0        8.305377   -2.033345    0.107919
     37          6           0        7.113922   -2.758052    0.102443
     38          6           0        6.085466   -1.753260    0.113064
     39          6           0        9.801216   -2.445770    0.099506
     40          6           0        6.506808   -4.103985    0.045032
     41          8           0        7.003757   -5.209989   -0.047746
     42          6           0        4.956368   -3.879541    0.004999
     43          6           0        4.379093   -4.594353   -1.135770
     44          8           0        4.732257   -4.347110   -2.288547
     45          8           0        3.542978   -5.625828   -0.697871
     46          6           0        2.945423   -6.493124   -1.722729
     47          6           0       -2.555897   -2.874250   -1.556336
     48          6           0       -3.996126   -2.788596   -1.100611
     49          6           0       -4.705594   -3.713312   -0.472597
     50          6           0       -4.216947   -5.106944   -0.151903
     51          6           0       -6.091268   -3.475319    0.114191
     52          6           0       -6.097934   -2.872478    1.551343
     53          6           0       -6.794145   -1.531388    1.585317
     54          6           0       -8.359820   -1.505066    1.835754
     55          6           0       -8.570376   -1.477652    3.395221
     56          6           0       -9.145007   -0.273081    1.201532
     57          6           0      -10.478494   -0.598838    0.532720
     58          6           0      -11.712891   -0.216269    1.392281
     59          6           0      -12.324816    1.124248    1.037421
     60          6           0      -11.952743    2.254041    2.088394
     61          6           0      -13.931378    1.018866    1.006271
     62          6           0      -14.668585    1.464589   -0.282165
     63          6           0      -14.345235    2.991126   -0.574509
     64          6           0      -13.971134    2.971314   -2.128621
     65          6           0      -12.460743    3.033062   -2.315628
     66          6           0      -14.677551    4.047501   -2.912270
     67          1           0        0.834094    1.680356   -0.085108
     68          1           0        6.103313    5.489002   -0.391047
     69          1           0        9.725343    0.416372    0.334519
     70          1           0        2.076490   -2.987702   -1.110081
     71          1           0        0.572039   -0.920779    0.555131
     72          1           0       -0.695821   -0.579646   -1.210782
     73          1           0        0.320737   -1.864201   -1.954851
     74          1           0        0.485796   -0.225416   -2.390005
     75          1           0        1.978870   -2.698921    1.859701
     76          1           0        2.192079   -4.185603    1.078146
     77          1           0       -0.302758   -2.715306    1.594037
     78          1           0        0.106203   -4.456343    1.692674
     79          1           0        0.408806    5.200635   -0.870445
     80          1           0        0.461306    4.825026    0.803715
     81          1           0        0.029204    3.575274   -0.391759
     82          1           0        1.296774    7.081368   -0.055253
     83          1           0        1.598504    6.831105   -1.752688
     84          1           0        2.382406    8.246898   -1.046238
     85          1           0        8.337505    5.091121    0.768139
     86          1           0        9.840080    2.768396   -0.519446
     87          1           0        9.212071    4.323451   -1.965674
     88          1           0        9.141960    5.961253   -1.205850
     89          1           0        7.803429    5.296476   -1.890729
     90          1           0       10.650993    3.977194    1.631825
     91          1           0       10.927302    2.369609    1.580305
     92          1           0        9.526095    4.023501    3.497565
     93          1           0        9.669055    2.235542    3.578911
     94          1           0        8.194474    3.079441    2.916274
     95          1           0       10.324523   -2.212587    1.025738
     96          1           0       10.276700   -1.958138   -0.751477
     97          1           0        9.933652   -3.516970   -0.052052
     98          1           0        4.491563   -4.302103    0.895389
     99          1           0        3.688294   -6.748395   -2.478746
    100          1           0        2.119419   -6.065559   -2.291599
    101          1           0        2.665404   -7.486985   -1.375391
    102          1           0       -2.384756   -3.713046   -2.231402
    103          1           0       -2.401960   -1.938154   -2.092649
    104          1           0       -4.377395   -1.770876   -1.187616
    105          1           0       -3.754389   -5.139658    0.834511
    106          1           0       -3.375940   -5.351866   -0.799646
    107          1           0       -4.975570   -5.882330   -0.261503
    108          1           0       -6.726320   -4.359738    0.161550
    109          1           0       -6.636685   -2.803706   -0.548858
    110          1           0       -5.035421   -2.757171    1.761642
    111          1           0       -6.584377   -3.633977    2.160324
    112          1           0       -6.714126   -0.999352    0.637993
    113          1           0       -6.192673   -0.897334    2.236006
    114          1           0       -8.753656   -2.394035    1.342706
    115          1           0       -8.293728   -0.495460    3.779542
    116          1           0       -8.094908   -2.307238    3.919975
    117          1           0       -9.646690   -1.508365    3.567340
    118          1           0       -8.504700    0.295902    0.527739
    119          1           0       -9.276381    0.487372    1.972043
    120          1           0      -10.484813   -1.663993    0.300805
    121          1           0      -10.524399   -0.020977   -0.389967
    122          1           0      -11.413544   -0.130660    2.436720
    123          1           0      -12.452172   -1.014335    1.325827
    124          1           0      -11.862319    1.533840    0.139788
    125          1           0      -11.121612    2.784800    1.623108
    126          1           0      -11.480780    1.871636    2.993577
    127          1           0      -12.724589    2.982373    2.337199
    128          1           0      -14.362924    1.572087    1.840548
    129          1           0      -14.282487   -0.004971    1.132546
    130          1           0      -15.726016    1.215203   -0.197788
    131          1           0      -14.423393    0.761321   -1.078974
    132          1           0      -13.452774    3.235572    0.001511
    133          1           0      -15.236216    3.593897   -0.397561
    134          1           0      -14.310142    2.058671   -2.618296
    135          1           0      -12.032952    2.040164   -2.461323
    136          1           0      -11.939249    3.554785   -1.513534
    137          1           0      -12.174647    3.573800   -3.216381
    138          1           0      -14.955331    3.687556   -3.903655
    139          1           0      -14.033958    4.912273   -3.071178
    140          1           0      -15.561509    4.393601   -2.376511
 ---------------------------------------------------------------------

 SCF Done:  E(RPBE1PBE) =  -3005.36413855     A.U. after   15 cycles

 Excitation energies and oscillator strengths:

 Excited State   1:      Singlet-A      1.9063 eV  650.38 nm  f=0.3822  <S**2>=0.000
     245 -> 248       -0.17074
     246 -> 247        0.69236
     246 <- 247       -0.10750
 This state for optimization and/or second-order correction.
 Total Energy, E(TD-HF/TD-DFT) =  -3005.29408199
 Copying the excited state density for this state as the 1-particle RhoCI density.

 Excited State   2:      Singlet-A      2.2557 eV  549.65 nm  f=0.1276  <S**2>=0.000
     245 -> 247        0.65691
     246 -> 248        0.24936

 Excited State   3:      Singlet-A      3.0563 eV  405.66 nm  f=0.0009  <S**2>=0.000
     243 -> 247        0.10958
     244 -> 247        0.67688

 Excited State   4:      Singlet-A      3.1172 eV  397.75 nm  f=0.0005  <S**2>=0.000
     243 -> 247        0.67388
     244 -> 247       -0.12200

 Excited State   5:      Singlet-A      3.1458 eV  394.12 nm  f=0.0007  <S**2>=0.000
     240 -> 247       -0.14472
     242 -> 247        0.64762
     242 -> 249       -0.18463

 The electronic state is 1-A.
 Alpha  occ. eigenvalues --  -46.92357 -19.26739 -19.25782 -19.21782 -19.19562
 Alpha  occ. eigenvalues --  -19.19528 -19.18518 -14.41282 -14.41273 -14.38983
 Alpha  occ. eigenvalues --  -14.38890 -10.38342 -10.35937 -10.32573 -10.31838
 Alpha  occ. eigenvalues --  -10.29938 -10.29199 -10.28252 -10.28004 -10.27798
 Alpha  occ. eigenvalues --  -10.27744 -10.27400 -10.27336 -10.27005 -10.26912
 Alpha  occ. eigenvalues --  -10.26697 -10.26283 -10.26181 -10.26164 -10.25806
 Alpha  occ. eigenvalues --  -10.25737 -10.25470 -10.25410 -10.25382 -10.25177
 Alpha  occ. eigenvalues --  -10.25160 -10.24606 -10.24441 -10.24275 -10.24143
 Alpha  occ. eigenvalues --  -10.24050 -10.23900 -10.23788 -10.23775 -10.23701
 Alpha  occ. eigenvalues --  -10.23487 -10.23290 -10.23282 -10.23255 -10.23245
 Alpha  occ. eigenvalues --  -10.23201 -10.23060 -10.22943 -10.22895 -10.22849
 Alpha  occ. eigenvalues --  -10.22814 -10.22730 -10.22698 -10.22588 -10.22381
 Alpha  occ. eigenvalues --  -10.22372 -10.22316 -10.22191 -10.22081 -10.21752
 Alpha  occ. eigenvalues --  -10.21202  -3.14520  -1.87335  -1.86895  -1.86753
 Alpha  occ. eigenvalues --   -1.09425  -1.09369  -1.04996  -1.04988  -1.02322
 Alpha  occ. eigenvalues --   -1.01880  -1.00402  -0.98610  -0.97636  -0.96685
 Alpha  occ. eigenvalues --   -0.86375  -0.85020  -0.83838  -0.83656  -0.82653
 Alpha  occ. eigenvalues --   -0.82637  -0.82405  -0.81499  -0.81452  -0.80824
 Alpha  occ. eigenvalues --   -0.80491  -0.79432  -0.78759  -0.77916  -0.77178
 Alpha  occ. eigenvalues --   -0.76635  -0.75628  -0.75146  -0.74815  -0.74003
 Alpha  occ. eigenvalues --   -0.73889  -0.72591  -0.72381  -0.71470  -0.70303
 Alpha  occ. eigenvalues --   -0.69800  -0.69681  -0.69441  -0.69250  -0.68068
 Alpha  occ. eigenvalues --   -0.67749  -0.67120  -0.65793  -0.64987  -0.64283
 Alpha  occ. eigenvalues --   -0.63267  -0.63076  -0.61743  -0.61050  -0.60388
 Alpha  occ. eigenvalues --   -0.59631  -0.59459  -0.59120  -0.58673  -0.57955
 Alpha  occ. eigenvalues --   -0.57499  -0.57449  -0.57234  -0.56637  -0.54506
 Alpha  occ. eigenvalues --   -0.54303  -0.53910  -0.53798  -0.52910  -0.51880
 Alpha  occ. eigenvalues --   -0.51365  -0.51352  -0.51094  -0.50284  -0.49883
 Alpha  occ. eigenvalues --   -0.49591  -0.49232  -0.48989  -0.48698  -0.48390
 Alpha  occ. eigenvalues --   -0.47952  -0.47527  -0.47442  -0.47372  -0.47143
 Alpha  occ. eigenvalues --   -0.46798  -0.46676  -0.46338  -0.46225  -0.46093
 Alpha  occ. eigenvalues --   -0.45871  -0.45681  -0.45638  -0.45403  -0.45055
 Alpha  occ. eigenvalues --   -0.44995  -0.44837  -0.44328  -0.44094  -0.43995
 Alpha  occ. eigenvalues --   -0.43846  -0.43767  -0.43460  -0.43302  -0.43270
 Alpha  occ. eigenvalues --   -0.43084  -0.42848  -0.42653  -0.42593  -0.42350
 Alpha  occ. eigenvalues --   -0.42069  -0.41929  -0.41769  -0.41334  -0.41202
 Alpha  occ. eigenvalues --   -0.40907  -0.40747  -0.40627  -0.40506  -0.40394
 Alpha  occ. eigenvalues --   -0.40223  -0.40111  -0.39876  -0.39797  -0.39643
 Alpha  occ. eigenvalues --   -0.39322  -0.39237  -0.39060  -0.38955  -0.38846
 Alpha  occ. eigenvalues --   -0.38564  -0.38519  -0.38234  -0.38045  -0.37951
 Alpha  occ. eigenvalues --   -0.37896  -0.37655  -0.37501  -0.37012  -0.36852
 Alpha  occ. eigenvalues --   -0.36748  -0.36576  -0.36366  -0.36164  -0.36160
 Alpha  occ. eigenvalues --   -0.35953  -0.35755  -0.35370  -0.35234  -0.34862
 Alpha  occ. eigenvalues --   -0.34332  -0.34314  -0.34000  -0.33914  -0.33631
 Alpha  occ. eigenvalues --   -0.33509  -0.33131  -0.32819  -0.32725  -0.32533
 Alpha  occ. eigenvalues --   -0.32240  -0.31997  -0.31879  -0.31640  -0.31063
 Alpha  occ. eigenvalues --   -0.30833  -0.30697  -0.29936  -0.29833  -0.29375
 Alpha  occ. eigenvalues --   -0.28918  -0.28851  -0.28256  -0.27013  -0.26395
 Alpha  occ. eigenvalues --   -0.26277  -0.25880  -0.25151  -0.24911  -0.20618
 Alpha  occ. eigenvalues --   -0.18580
 Alpha virt. eigenvalues --   -0.10821  -0.04675  -0.03547  -0.02109  -0.01599
 Alpha virt. eigenvalues --   -0.00965  -0.00199   0.00056   0.01972   0.03538
 Alpha virt. eigenvalues --    0.04485   0.04986   0.05260   0.05413   0.05905

 Mulliken charges:
               1
     1  Mg   0.983971
     2  C   -0.027014
     3  C   -0.067114
     4  C   -0.054160
     5  C   -0.100019
     6  N   -0.367138
     7  C    0.028056
     8  C   -0.092392
     9  C   -0.120126
    10  C    0.083824
    11  C    0.003537
    12  C    0.000939
    13  C   -0.024979
    14  C    0.258240
    15  O   -0.284492
    16  O   -0.391740
    17  N   -0.471403
    18  C    0.163397
    19  C   -0.175810
    20  C   -0.053143
    21  C    0.146487
    22  C    0.038828
    23  C    0.022502
    24  O   -0.238688
    25  C   -0.026098
    26  N   -0.416190
    27  C    0.080817
    28  C   -0.122103
    29  C   -0.050379
    30  C    0.087126
    31  C   -0.004933
    32  C   -0.039103
    33  C   -0.079444
    34  N   -0.439189
    35  C    0.133716
    36  C   -0.176849
    37  C   -0.078381
    38  C    0.176454
    39  C    0.058847
    40  C    0.192940
    41  O   -0.195216
    42  C   -0.134348
    43  C    0.295911
    44  O   -0.253929
    45  O   -0.384508
    46  C    0.126583
    47  C    0.234634
    48  C   -0.152189
    49  C   -0.184499
    50  C    0.024826
    51  C   -0.007959
    52  C   -0.009158
    53  C   -0.021226
    54  C   -0.190154
    55  C   -0.012889
    56  C   -0.019859
    57  C   -0.033935
    58  C    0.016446
    59  C   -0.227816
    60  C   -0.034169
    61  C   -0.018883
    62  C   -0.065482
    63  C    0.009173
    64  C   -0.257995
    65  C   -0.013893
    66  C   -0.005483
    67  H   -0.011592
    68  H    0.032760
    69  H   -0.004904
    70  H    0.083995
    71  H    0.049912
    72  H    0.040680
    73  H    0.048382
    74  H    0.046017
    75  H    0.034715
    76  H    0.064760
    77  H    0.056861
    78  H    0.068092
    79  H    0.044691
    80  H    0.059737
    81  H    0.042683
    82  H    0.057849
    83  H    0.057842
    84  H    0.060499
    85  H    0.051511
    86  H    0.044184
    87  H    0.036918
    88  H    0.041698
    89  H    0.041171
    90  H    0.033086
    91  H    0.032331
    92  H    0.043534
    93  H    0.055651
    94  H    0.058796
    95  H    0.057667
    96  H    0.053370
    97  H    0.056222
    98  H    0.073733
    99  H    0.048604
   100  H    0.067778
   101  H    0.054556
   102  H    0.075656
   103  H    0.043194
   104  H    0.019275
   105  H    0.052613
   106  H    0.035236
   107  H    0.050575
   108  H    0.022431
   109  H    0.032711
   110  H    0.041639
   111  H    0.035454
   112  H    0.014292
   113  H    0.019242
   114  H    0.026204
   115  H    0.038182
   116  H    0.041758
   117  H    0.031848
   118  H    0.012736
   119  H    0.014758
   120  H    0.027968
   121  H    0.031267
   122  H    0.029704
   123  H    0.028470
   124  H    0.046126
   125  H    0.020912
   126  H    0.030386
   127  H    0.050794
   128  H    0.029329
   129  H    0.018083
   130  H    0.022714
   131  H    0.027316
   132  H    0.044386
   133  H    0.039361
   134  H    0.041273
   135  H    0.036290
   136  H    0.036038
   137  H    0.023411
   138  H    0.032178
   139  H    0.024426
   140  H    0.025198
 Sum of Mulliken charges =  -0.00000

 Dipole moment (field-independent basis, Debye):
    X=             -4.8020    Y=              1.6283    Z=              2.8885  Tot=              5.8356
 Quadrupole moment (field-independent basis, Debye-Ang):
   XX=           -378.9958   YY=           -428.1228   ZZ=           -405.0670
   XY=             30.7753   XZ=             19.5430   YZ=             -9.4052

 Normal termination of Gaussian 16 at Wed May  4 09:20:05 2022.
