 Gaussian 16, Revision A.03,
 Gaussian 16:  ES64L-G16RevA.03 25-Dec-2016

 --------------------------------
 #p wB97XD/Def2SVP td=(nstates=5)
 --------------------------------

 -----------------------------------------------------
 step_1551_chromophore_24 TDDFT with wB97XD functional
 -----------------------------------------------------
 Symbolic Z-matrix:
 Charge =  0 Multiplicity = 1

                         Standard orientation:
 ---------------------------------------------------------------------
 Center     Atomic      Atomic             Coordinates (Angstroms)
 Number     Number       Type             X           Y           Z
 ---------------------------------------------------------------------
      1         12           0        5.303482    1.089100    0.379143
      2          6           0        4.806582   -2.307491   -0.031607
      3          6           0        1.911040    1.499845   -0.093053
      4          6           0        5.813386    4.473336   -0.111269
      5          6           0        8.639700    0.530034    0.298709
      6          7           0        3.506941   -0.293428   -0.174904
      7          6           0        3.551759   -1.679342   -0.116446
      8          6           0        2.094666   -2.353005   -0.224186
      9          6           0        1.210701   -0.973903   -0.327105
     10          6           0        2.248052    0.179003   -0.156740
     11          6           0        0.308879   -0.863101   -1.524285
     12          6           0        1.688858   -3.227076    0.950867
     13          6           0        0.168117   -3.555593    1.082479
     14          6           0       -0.646696   -3.784971   -0.234393
     15          8           0       -0.246172   -4.511572   -1.174665
     16          8           0       -1.736643   -2.869161   -0.304122
     17          7           0        4.030689    2.747006    0.121284
     18          6           0        2.711888    2.703349    0.022753
     19          6           0        2.136287    4.036315   -0.074044
     20          6           0        3.294484    4.911669   -0.185108
     21          6           0        4.445532    4.080377   -0.068329
     22          6           0        0.695093    4.410176   -0.176504
     23          6           0        3.298423    6.397931   -0.453028
     24          8           0        4.304338    7.058689   -0.304674
     25          6           0        2.037391    7.233685   -0.840137
     26          7           0        6.956793    2.266644    0.113502
     27          6           0        6.897340    3.640637    0.050958
     28          6           0        8.333273    4.279448    0.040768
     29          6           0        9.208347    3.010594    0.335281
     30          6           0        8.204943    1.869789    0.300733
     31          6           0        8.662782    4.986298   -1.296521
     32          6           0       10.076447    3.050688    1.620246
     33          6           0        9.281370    3.079991    3.009636
     34          7           0        6.561300   -0.533196    0.231864
     35          6           0        7.896635   -0.647741    0.213400
     36          6           0        8.305377   -2.033345    0.107919
     37          6           0        7.113922   -2.758052    0.102443
     38          6           0        6.085466   -1.753260    0.113064
     39          6           0        9.801216   -2.445770    0.099506
     40          6           0        6.506808   -4.103985    0.045032
     41          8           0        7.003757   -5.209989   -0.047746
     42          6           0        4.956368   -3.879541    0.004999
     43          6           0        4.379093   -4.594353   -1.135770
     44          8           0        4.732257   -4.347110   -2.288547
     45          8           0        3.542978   -5.625828   -0.697871
     46          6           0        2.945423   -6.493124   -1.722729
     47          6           0       -2.555897   -2.874250   -1.556336
     48          6           0       -3.996126   -2.788596   -1.100611
     49          6           0       -4.705594   -3.713312   -0.472597
     50          6           0       -4.216947   -5.106944   -0.151903
     51          6           0       -6.091268   -3.475319    0.114191
     52          6           0       -6.097934   -2.872478    1.551343
     53          6           0       -6.794145   -1.531388    1.585317
     54          6           0       -8.359820   -1.505066    1.835754
     55          6           0       -8.570376   -1.477652    3.395221
     56          6           0       -9.145007   -0.273081    1.201532
     57          6           0      -10.478494   -0.598838    0.532720
     58          6           0      -11.712891   -0.216269    1.392281
     59          6           0      -12.324816    1.124248    1.037421
     60          6           0      -11.952743    2.254041    2.088394
     61          6           0      -13.931378    1.018866    1.006271
     62          6           0      -14.668585    1.464589   -0.282165
     63          6           0      -14.345235    2.991126   -0.574509
     64          6           0      -13.971134    2.971314   -2.128621
     65          6           0      -12.460743    3.033062   -2.315628
     66          6           0      -14.677551    4.047501   -2.912270
     67          1           0        0.834094    1.680356   -0.085108
     68          1           0        6.103313    5.489002   -0.391047
     69          1           0        9.725343    0.416372    0.334519
     70          1           0        2.076490   -2.987702   -1.110081
     71          1           0        0.572039   -0.920779    0.555131
     72          1           0       -0.695821   -0.579646   -1.210782
     73          1           0        0.320737   -1.864201   -1.954851
     74          1           0        0.485796   -0.225416   -2.390005
     75          1           0        1.978870   -2.698921    1.859701
     76          1           0        2.192079   -4.185603    1.078146
     77          1           0       -0.302758   -2.715306    1.594037
     78          1           0        0.106203   -4.456343    1.692674
     79          1           0        0.408806    5.200635   -0.870445
     80          1           0        0.461306    4.825026    0.803715
     81          1           0        0.029204    3.575274   -0.391759
     82          1           0        1.296774    7.081368   -0.055253
     83          1           0        1.598504    6.831105   -1.752688
     84          1           0        2.382406    8.246898   -1.046238
     85          1           0        8.337505    5.091121    0.768139
     86          1           0        9.840080    2.768396   -0.519446
     87          1           0        9.212071    4.323451   -1.965674
     88          1           0        9.141960    5.961253   -1.205850
     89          1           0        7.803429    5.296476   -1.890729
     90          1           0       10.650993    3.977194    1.631825
     91          1           0       10.927302    2.369609    1.580305
     92          1           0        9.526095    4.023501    3.497565
     93          1           0        9.669055    2.235542    3.578911
     94          1           0        8.194474    3.079441    2.916274
     95          1           0       10.324523   -2.212587    1.025738
     96          1           0       10.276700   -1.958138   -0.751477
     97          1           0        9.933652   -3.516970   -0.052052
     98          1           0        4.491563   -4.302103    0.895389
     99          1           0        3.688294   -6.748395   -2.478746
    100          1           0        2.119419   -6.065559   -2.291599
    101          1           0        2.665404   -7.486985   -1.375391
    102          1           0       -2.384756   -3.713046   -2.231402
    103          1           0       -2.401960   -1.938154   -2.092649
    104          1           0       -4.377395   -1.770876   -1.187616
    105          1           0       -3.754389   -5.139658    0.834511
    106          1           0       -3.375940   -5.351866   -0.799646
    107          1           0       -4.975570   -5.882330   -0.261503
    108          1           0       -6.726320   -4.359738    0.161550
    109          1           0       -6.636685   -2.803706   -0.548858
    110          1           0       -5.035421   -2.757171    1.761642
    111          1           0       -6.584377   -3.633977    2.160324
    112          1           0       -6.714126   -0.999352    0.637993
    113          1           0       -6.192673   -0.897334    2.236006
    114          1           0       -8.753656   -2.394035    1.342706
    115          1           0       -8.293728   -0.495460    3.779542
    116          1           0       -8.094908   -2.307238    3.919975
    117          1           0       -9.646690   -1.508365    3.567340
    118          1           0       -8.504700    0.295902    0.527739
    119          1           0       -9.276381    0.487372    1.972043
    120          1           0      -10.484813   -1.663993    0.300805
    121          1           0      -10.524399   -0.020977   -0.389967
    122          1           0      -11.413544   -0.130660    2.436720
    123          1           0      -12.452172   -1.014335    1.325827
    124          1           0      -11.862319    1.533840    0.139788
    125          1           0      -11.121612    2.784800    1.623108
    126          1           0      -11.480780    1.871636    2.993577
    127          1           0      -12.724589    2.982373    2.337199
    128          1           0      -14.362924    1.572087    1.840548
    129          1           0      -14.282487   -0.004971    1.132546
    130          1           0      -15.726016    1.215203   -0.197788
    131          1           0      -14.423393    0.761321   -1.078974
    132          1           0      -13.452774    3.235572    0.001511
    133          1           0      -15.236216    3.593897   -0.397561
    134          1           0      -14.310142    2.058671   -2.618296
    135          1           0      -12.032952    2.040164   -2.461323
    136          1           0      -11.939249    3.554785   -1.513534
    137          1           0      -12.174647    3.573800   -3.216381
    138          1           0      -14.955331    3.687556   -3.903655
    139          1           0      -14.033958    4.912273   -3.071178
    140          1           0      -15.561509    4.393601   -2.376511
 ---------------------------------------------------------------------

 SCF Done:  E(RwB97XD) =  -3007.88051260     A.U. after   19 cycles

 Excitation energies and oscillator strengths:

 Excited State   1:      Singlet-A      1.7002 eV  729.24 nm  f=0.3923  <S**2>=0.000
     245 -> 248        0.18312
     246 -> 247        0.68294
     245 <- 248        0.11459
 This state for optimization and/or second-order correction.
 Total Energy, E(TD-HF/TD-DFT) =  -3007.81803175
 Copying the excited state density for this state as the 1-particle RhoCI density.

 Excited State   2:      Singlet-A      2.1919 eV  565.66 nm  f=0.1332  <S**2>=0.000
     245 -> 247        0.64492
     246 -> 248       -0.27784

 Excited State   3:      Singlet-A      3.4725 eV  357.05 nm  f=0.0094  <S**2>=0.000
     244 -> 247        0.65900
     246 -> 248        0.17255

 Excited State   4:      Singlet-A      3.5829 eV  346.04 nm  f=0.1734  <S**2>=0.000
     240 -> 247        0.27843
     240 -> 249       -0.24915
     241 -> 247        0.16320
     242 -> 247        0.37282
     242 -> 249       -0.14693
     245 -> 247        0.13129
     246 -> 248        0.34280

 Excited State   5:      Singlet-A      3.6513 eV  339.56 nm  f=0.4174  <S**2>=0.000
     240 -> 247       -0.37451
     240 -> 249        0.22451
     244 -> 247       -0.10932
     245 -> 247        0.20539
     246 -> 248        0.46407

 The electronic state is 1-A.
 Alpha  occ. eigenvalues --  -46.95304 -19.31268 -19.30459 -19.26468 -19.24613
 Alpha  occ. eigenvalues --  -19.24417 -19.23120 -14.46390 -14.46357 -14.43960
 Alpha  occ. eigenvalues --  -14.43789 -10.45155 -10.42914 -10.39656 -10.38452
 Alpha  occ. eigenvalues --  -10.36452 -10.35658 -10.34675 -10.34584 -10.33988
 Alpha  occ. eigenvalues --  -10.33840 -10.33586 -10.33472 -10.33400 -10.33256
 Alpha  occ. eigenvalues --  -10.33241 -10.32910 -10.32726 -10.32424 -10.32198
 Alpha  occ. eigenvalues --  -10.31942 -10.31866 -10.31647 -10.31622 -10.31612
 Alpha  occ. eigenvalues --  -10.31496 -10.30874 -10.30765 -10.30590 -10.30437
 Alpha  occ. eigenvalues --  -10.30388 -10.30315 -10.30259 -10.30252 -10.30162
 Alpha  occ. eigenvalues --  -10.29770 -10.29748 -10.29709 -10.29678 -10.29617
 Alpha  occ. eigenvalues --  -10.29558 -10.29418 -10.29224 -10.29197 -10.29186
 Alpha  occ. eigenvalues --  -10.29180 -10.29082 -10.29039 -10.28937 -10.28811
 Alpha  occ. eigenvalues --  -10.28719 -10.28652 -10.28542 -10.28487 -10.28174
 Alpha  occ. eigenvalues --  -10.27621  -3.21331  -1.94893  -1.94455  -1.94311
 Alpha  occ. eigenvalues --   -1.16961  -1.16777  -1.12716  -1.12259  -1.09690
 Alpha  occ. eigenvalues --   -1.09384  -1.07904  -1.05976  -1.04894  -1.04004
 Alpha  occ. eigenvalues --   -0.94155  -0.92687  -0.91519  -0.91338  -0.90299
 Alpha  occ. eigenvalues --   -0.90237  -0.89938  -0.89161  -0.89109  -0.88378
 Alpha  occ. eigenvalues --   -0.88116  -0.87078  -0.86406  -0.85601  -0.84802
 Alpha  occ. eigenvalues --   -0.84260  -0.83294  -0.82819  -0.82433  -0.81650
 Alpha  occ. eigenvalues --   -0.81544  -0.80185  -0.80093  -0.79082  -0.78013
 Alpha  occ. eigenvalues --   -0.77474  -0.77364  -0.77009  -0.76938  -0.75726
 Alpha  occ. eigenvalues --   -0.75362  -0.74708  -0.73323  -0.72582  -0.71884
 Alpha  occ. eigenvalues --   -0.70869  -0.70707  -0.69193  -0.68668  -0.67883
 Alpha  occ. eigenvalues --   -0.67113  -0.67081  -0.66566  -0.66105  -0.65592
 Alpha  occ. eigenvalues --   -0.65080  -0.64990  -0.64872  -0.64132  -0.61853
 Alpha  occ. eigenvalues --   -0.61810  -0.61443  -0.61214  -0.60340  -0.59495
 Alpha  occ. eigenvalues --   -0.58854  -0.58777  -0.58563  -0.57670  -0.57340
 Alpha  occ. eigenvalues --   -0.57040  -0.56660  -0.56358  -0.56119  -0.55883
 Alpha  occ. eigenvalues --   -0.55369  -0.54892  -0.54838  -0.54788  -0.54542
 Alpha  occ. eigenvalues --   -0.54184  -0.53952  -0.53710  -0.53626  -0.53436
 Alpha  occ. eigenvalues --   -0.53314  -0.53210  -0.52997  -0.52760  -0.52405
 Alpha  occ. eigenvalues --   -0.52269  -0.52199  -0.51673  -0.51472  -0.51321
 Alpha  occ. eigenvalues --   -0.51214  -0.51054  -0.50745  -0.50599  -0.50537
 Alpha  occ. eigenvalues --   -0.50347  -0.50112  -0.49954  -0.49884  -0.49563
 Alpha  occ. eigenvalues --   -0.49394  -0.49237  -0.49062  -0.48564  -0.48392
 Alpha  occ. eigenvalues --   -0.48073  -0.47989  -0.47846  -0.47714  -0.47638
 Alpha  occ. eigenvalues --   -0.47411  -0.47339  -0.47068  -0.47036  -0.46910
 Alpha  occ. eigenvalues --   -0.46532  -0.46289  -0.46254  -0.46080  -0.46057
 Alpha  occ. eigenvalues --   -0.45660  -0.45632  -0.45402  -0.45206  -0.45063
 Alpha  occ. eigenvalues --   -0.44989  -0.44759  -0.44568  -0.44125  -0.43938
 Alpha  occ. eigenvalues --   -0.43874  -0.43661  -0.43474  -0.43300  -0.43225
 Alpha  occ. eigenvalues --   -0.43150  -0.42850  -0.42386  -0.42282  -0.41876
 Alpha  occ. eigenvalues --   -0.41385  -0.41253  -0.41055  -0.40890  -0.40667
 Alpha  occ. eigenvalues --   -0.40461  -0.40189  -0.39754  -0.39721  -0.39574
 Alpha  occ. eigenvalues --   -0.39263  -0.39034  -0.38936  -0.38591  -0.38226
 Alpha  occ. eigenvalues --   -0.37666  -0.37639  -0.37027  -0.36733  -0.36125
 Alpha  occ. eigenvalues --   -0.35845  -0.35799  -0.35183  -0.33709  -0.33366
 Alpha  occ. eigenvalues --   -0.33021  -0.32916  -0.32059  -0.31310  -0.25600
 Alpha  occ. eigenvalues --   -0.22792
 Alpha virt. eigenvalues --   -0.06713   0.00831   0.02687   0.04716   0.04864
 Alpha virt. eigenvalues --    0.05065   0.06503   0.06694   0.08668   0.10165
 Alpha virt. eigenvalues --    0.11011   0.11663   0.12096   0.12133   0.12559

 Mulliken charges:
               1
     1  Mg   0.974715
     2  C   -0.032890
     3  C   -0.081578
     4  C   -0.072186
     5  C   -0.119094
     6  N   -0.333506
     7  C   -0.009055
     8  C   -0.060538
     9  C   -0.090786
    10  C    0.065995
    11  C    0.013700
    12  C    0.006934
    13  C   -0.003313
    14  C    0.241556
    15  O   -0.280301
    16  O   -0.390182
    17  N   -0.436380
    18  C    0.149604
    19  C   -0.166273
    20  C   -0.047052
    21  C    0.138046
    22  C    0.050862
    23  C    0.015259
    24  O   -0.235956
    25  C   -0.011216
    26  N   -0.379585
    27  C    0.069072
    28  C   -0.099540
    29  C   -0.021446
    30  C    0.072936
    31  C    0.003506
    32  C   -0.028038
    33  C   -0.062230
    34  N   -0.399011
    35  C    0.128920
    36  C   -0.174100
    37  C   -0.071489
    38  C    0.166939
    39  C    0.068277
    40  C    0.172669
    41  O   -0.184066
    42  C   -0.090944
    43  C    0.268584
    44  O   -0.247756
    45  O   -0.381623
    46  C    0.140830
    47  C    0.248001
    48  C   -0.161647
    49  C   -0.167506
    50  C    0.037864
    51  C    0.006565
    52  C    0.005185
    53  C   -0.002547
    54  C   -0.162722
    55  C    0.003678
    56  C   -0.005241
    57  C   -0.014071
    58  C    0.034939
    59  C   -0.194014
    60  C   -0.022437
    61  C    0.001505
    62  C   -0.050794
    63  C    0.030696
    64  C   -0.226817
    65  C   -0.002979
    66  C    0.006783
    67  H   -0.020846
    68  H    0.027617
    69  H   -0.010619
    70  H    0.070658
    71  H    0.036302
    72  H    0.034299
    73  H    0.038373
    74  H    0.042631
    75  H    0.027098
    76  H    0.054444
    77  H    0.050607
    78  H    0.063762
    79  H    0.037878
    80  H    0.053217
    81  H    0.037957
    82  H    0.051191
    83  H    0.051415
    84  H    0.058836
    85  H    0.042702
    86  H    0.033547
    87  H    0.030359
    88  H    0.036609
    89  H    0.034652
    90  H    0.024893
    91  H    0.025860
    92  H    0.038746
    93  H    0.049996
    94  H    0.050017
    95  H    0.054267
    96  H    0.049052
    97  H    0.053651
    98  H    0.066504
    99  H    0.043998
   100  H    0.065937
   101  H    0.051486
   102  H    0.071704
   103  H    0.038367
   104  H    0.016519
   105  H    0.046753
   106  H    0.027143
   107  H    0.046353
   108  H    0.015636
   109  H    0.022971
   110  H    0.032318
   111  H    0.027958
   112  H    0.000686
   113  H    0.012279
   114  H    0.012547
   115  H    0.030951
   116  H    0.036186
   117  H    0.022801
   118  H    0.006030
   119  H    0.000634
   120  H    0.020316
   121  H    0.022900
   122  H    0.013352
   123  H    0.020900
   124  H    0.020892
   125  H    0.014889
   126  H    0.024627
   127  H    0.045791
   128  H    0.019398
   129  H    0.009314
   130  H    0.016153
   131  H    0.016467
   132  H    0.024788
   133  H    0.032524
   134  H    0.028979
   135  H    0.030132
   136  H    0.029643
   137  H    0.017987
   138  H    0.027020
   139  H    0.017742
   140  H    0.018541
 Sum of Mulliken charges =  -0.00000

 Dipole moment (field-independent basis, Debye):
    X=             -4.6104    Y=              1.1505    Z=              2.9405  Tot=              5.5881
 Quadrupole moment (field-independent basis, Debye-Ang):
   XX=           -377.1378   YY=           -427.7232   ZZ=           -404.6027
   XY=             27.8599   XZ=             19.9688   YZ=             -9.5819

 Normal termination of Gaussian 16 at Wed May  4 09:47:44 2022.
