 Gaussian 16, Revision A.03,
 Gaussian 16:  ES64L-G16RevA.03 25-Dec-2016

 --------------------
 #p ZINDO=(nstates=5)
 --------------------

 ------------------------------
 step_1551_chromophore_24 ZINDO
 ------------------------------
 Symbolic Z-matrix:
 Charge =  0 Multiplicity = 1

                         Standard orientation:
 ---------------------------------------------------------------------
 Center     Atomic      Atomic             Coordinates (Angstroms)
 Number     Number       Type             X           Y           Z
 ---------------------------------------------------------------------
      1         12           0        5.303482    1.089100    0.379143
      2          6           0        4.806582   -2.307491   -0.031607
      3          6           0        1.911040    1.499845   -0.093053
      4          6           0        5.813386    4.473336   -0.111269
      5          6           0        8.639700    0.530034    0.298709
      6          7           0        3.506941   -0.293428   -0.174904
      7          6           0        3.551759   -1.679342   -0.116446
      8          6           0        2.094666   -2.353005   -0.224186
      9          6           0        1.210701   -0.973903   -0.327105
     10          6           0        2.248052    0.179003   -0.156740
     11          6           0        0.308879   -0.863101   -1.524285
     12          6           0        1.688858   -3.227076    0.950867
     13          6           0        0.168117   -3.555593    1.082479
     14          6           0       -0.646696   -3.784971   -0.234393
     15          8           0       -0.246172   -4.511572   -1.174665
     16          8           0       -1.736643   -2.869161   -0.304122
     17          7           0        4.030689    2.747006    0.121284
     18          6           0        2.711888    2.703349    0.022753
     19          6           0        2.136287    4.036315   -0.074044
     20          6           0        3.294484    4.911669   -0.185108
     21          6           0        4.445532    4.080377   -0.068329
     22          6           0        0.695093    4.410176   -0.176504
     23          6           0        3.298423    6.397931   -0.453028
     24          8           0        4.304338    7.058689   -0.304674
     25          6           0        2.037391    7.233685   -0.840137
     26          7           0        6.956793    2.266644    0.113502
     27          6           0        6.897340    3.640637    0.050958
     28          6           0        8.333273    4.279448    0.040768
     29          6           0        9.208347    3.010594    0.335281
     30          6           0        8.204943    1.869789    0.300733
     31          6           0        8.662782    4.986298   -1.296521
     32          6           0       10.076447    3.050688    1.620246
     33          6           0        9.281370    3.079991    3.009636
     34          7           0        6.561300   -0.533196    0.231864
     35          6           0        7.896635   -0.647741    0.213400
     36          6           0        8.305377   -2.033345    0.107919
     37          6           0        7.113922   -2.758052    0.102443
     38          6           0        6.085466   -1.753260    0.113064
     39          6           0        9.801216   -2.445770    0.099506
     40          6           0        6.506808   -4.103985    0.045032
     41          8           0        7.003757   -5.209989   -0.047746
     42          6           0        4.956368   -3.879541    0.004999
     43          6           0        4.379093   -4.594353   -1.135770
     44          8           0        4.732257   -4.347110   -2.288547
     45          8           0        3.542978   -5.625828   -0.697871
     46          6           0        2.945423   -6.493124   -1.722729
     47          6           0       -2.555897   -2.874250   -1.556336
     48          6           0       -3.996126   -2.788596   -1.100611
     49          6           0       -4.705594   -3.713312   -0.472597
     50          6           0       -4.216947   -5.106944   -0.151903
     51          6           0       -6.091268   -3.475319    0.114191
     52          6           0       -6.097934   -2.872478    1.551343
     53          6           0       -6.794145   -1.531388    1.585317
     54          6           0       -8.359820   -1.505066    1.835754
     55          6           0       -8.570376   -1.477652    3.395221
     56          6           0       -9.145007   -0.273081    1.201532
     57          6           0      -10.478494   -0.598838    0.532720
     58          6           0      -11.712891   -0.216269    1.392281
     59          6           0      -12.324816    1.124248    1.037421
     60          6           0      -11.952743    2.254041    2.088394
     61          6           0      -13.931378    1.018866    1.006271
     62          6           0      -14.668585    1.464589   -0.282165
     63          6           0      -14.345235    2.991126   -0.574509
     64          6           0      -13.971134    2.971314   -2.128621
     65          6           0      -12.460743    3.033062   -2.315628
     66          6           0      -14.677551    4.047501   -2.912270
     67          1           0        0.834094    1.680356   -0.085108
     68          1           0        6.103313    5.489002   -0.391047
     69          1           0        9.725343    0.416372    0.334519
     70          1           0        2.076490   -2.987702   -1.110081
     71          1           0        0.572039   -0.920779    0.555131
     72          1           0       -0.695821   -0.579646   -1.210782
     73          1           0        0.320737   -1.864201   -1.954851
     74          1           0        0.485796   -0.225416   -2.390005
     75          1           0        1.978870   -2.698921    1.859701
     76          1           0        2.192079   -4.185603    1.078146
     77          1           0       -0.302758   -2.715306    1.594037
     78          1           0        0.106203   -4.456343    1.692674
     79          1           0        0.408806    5.200635   -0.870445
     80          1           0        0.461306    4.825026    0.803715
     81          1           0        0.029204    3.575274   -0.391759
     82          1           0        1.296774    7.081368   -0.055253
     83          1           0        1.598504    6.831105   -1.752688
     84          1           0        2.382406    8.246898   -1.046238
     85          1           0        8.337505    5.091121    0.768139
     86          1           0        9.840080    2.768396   -0.519446
     87          1           0        9.212071    4.323451   -1.965674
     88          1           0        9.141960    5.961253   -1.205850
     89          1           0        7.803429    5.296476   -1.890729
     90          1           0       10.650993    3.977194    1.631825
     91          1           0       10.927302    2.369609    1.580305
     92          1           0        9.526095    4.023501    3.497565
     93          1           0        9.669055    2.235542    3.578911
     94          1           0        8.194474    3.079441    2.916274
     95          1           0       10.324523   -2.212587    1.025738
     96          1           0       10.276700   -1.958138   -0.751477
     97          1           0        9.933652   -3.516970   -0.052052
     98          1           0        4.491563   -4.302103    0.895389
     99          1           0        3.688294   -6.748395   -2.478746
    100          1           0        2.119419   -6.065559   -2.291599
    101          1           0        2.665404   -7.486985   -1.375391
    102          1           0       -2.384756   -3.713046   -2.231402
    103          1           0       -2.401960   -1.938154   -2.092649
    104          1           0       -4.377395   -1.770876   -1.187616
    105          1           0       -3.754389   -5.139658    0.834511
    106          1           0       -3.375940   -5.351866   -0.799646
    107          1           0       -4.975570   -5.882330   -0.261503
    108          1           0       -6.726320   -4.359738    0.161550
    109          1           0       -6.636685   -2.803706   -0.548858
    110          1           0       -5.035421   -2.757171    1.761642
    111          1           0       -6.584377   -3.633977    2.160324
    112          1           0       -6.714126   -0.999352    0.637993
    113          1           0       -6.192673   -0.897334    2.236006
    114          1           0       -8.753656   -2.394035    1.342706
    115          1           0       -8.293728   -0.495460    3.779542
    116          1           0       -8.094908   -2.307238    3.919975
    117          1           0       -9.646690   -1.508365    3.567340
    118          1           0       -8.504700    0.295902    0.527739
    119          1           0       -9.276381    0.487372    1.972043
    120          1           0      -10.484813   -1.663993    0.300805
    121          1           0      -10.524399   -0.020977   -0.389967
    122          1           0      -11.413544   -0.130660    2.436720
    123          1           0      -12.452172   -1.014335    1.325827
    124          1           0      -11.862319    1.533840    0.139788
    125          1           0      -11.121612    2.784800    1.623108
    126          1           0      -11.480780    1.871636    2.993577
    127          1           0      -12.724589    2.982373    2.337199
    128          1           0      -14.362924    1.572087    1.840548
    129          1           0      -14.282487   -0.004971    1.132546
    130          1           0      -15.726016    1.215203   -0.197788
    131          1           0      -14.423393    0.761321   -1.078974
    132          1           0      -13.452774    3.235572    0.001511
    133          1           0      -15.236216    3.593897   -0.397561
    134          1           0      -14.310142    2.058671   -2.618296
    135          1           0      -12.032952    2.040164   -2.461323
    136          1           0      -11.939249    3.554785   -1.513534
    137          1           0      -12.174647    3.573800   -3.216381
    138          1           0      -14.955331    3.687556   -3.903655
    139          1           0      -14.033958    4.912273   -3.071178
    140          1           0      -15.561509    4.393601   -2.376511
 ---------------------------------------------------------------------

 SCF Done:  E(RZINDO/S) =  -474.056399952     A.U. after   19 cycles

 Excitation energies and oscillator strengths:

 Excited State   1:      Singlet-A      1.2935 eV  958.54 nm  f=0.5980  <S**2>=0.000
     175 ->178        -0.18288
     176 ->177         0.66486
 This state for optimization and/or second-order correction.
 Total Energy, E(CIS/TDA) =  -474.008866044
 Copying the excited state density for this state as the 1-particle RhoCI density.

 Excited State   2:      Singlet-A      1.9285 eV  642.92 nm  f=0.0650  <S**2>=0.000
     175 ->177         0.56259
     176 ->178         0.39164

 Excited State   3:      Singlet-A      2.9818 eV  415.80 nm  f=0.0360  <S**2>=0.000
     168 ->177        -0.33271
     168 ->178         0.15965
     168 ->179         0.41981
     168 ->182        -0.11811
     168 ->183         0.13871
     168 ->186         0.19899
     168 ->195        -0.12949
     176 ->178         0.12059

 Excited State   4:      Singlet-A      3.0043 eV  412.69 nm  f=0.0364  <S**2>=0.000
     171 ->177         0.21549
     171 ->178        -0.13171
     171 ->179         0.22972
     171 ->182         0.35701
     171 ->183        -0.24767
     171 ->186         0.19904
     171 ->188        -0.19234
     171 ->202         0.10554

 Excited State   5:      Singlet-A      3.0433 eV  407.40 nm  f=0.8844  <S**2>=0.000
     168 ->179        -0.11368
     175 ->177        -0.32909
     176 ->178         0.52233
     176 ->179         0.17469

 The electronic state is 1-A.
 Alpha  occ. eigenvalues --   -1.86954  -1.80984  -1.78229  -1.71379  -1.70555
 Alpha  occ. eigenvalues --   -1.67458  -1.64772  -1.60735  -1.58599  -1.58419
 Alpha  occ. eigenvalues --   -1.55632  -1.51058  -1.48058  -1.47241  -1.44853
 Alpha  occ. eigenvalues --   -1.44119  -1.43051  -1.40535  -1.38818  -1.37608
 Alpha  occ. eigenvalues --   -1.35412  -1.33256  -1.32243  -1.30961  -1.28772
 Alpha  occ. eigenvalues --   -1.26136  -1.25053  -1.22090  -1.19624  -1.19108
 Alpha  occ. eigenvalues --   -1.17509  -1.15829  -1.14888  -1.14775  -1.13495
 Alpha  occ. eigenvalues --   -1.12212  -1.10402  -1.09908  -1.04780  -1.04392
 Alpha  occ. eigenvalues --   -1.03636  -1.01539  -0.99549  -0.97893  -0.97587
 Alpha  occ. eigenvalues --   -0.96368  -0.95128  -0.94018  -0.93514  -0.92945
 Alpha  occ. eigenvalues --   -0.90612  -0.90391  -0.88905  -0.88018  -0.86558
 Alpha  occ. eigenvalues --   -0.85774  -0.84072  -0.83211  -0.81035  -0.80323
 Alpha  occ. eigenvalues --   -0.79552  -0.79349  -0.77999  -0.76689  -0.76139
 Alpha  occ. eigenvalues --   -0.75943  -0.75534  -0.74509  -0.74012  -0.73730
 Alpha  occ. eigenvalues --   -0.73494  -0.73071  -0.72676  -0.71340  -0.70808
 Alpha  occ. eigenvalues --   -0.70532  -0.69097  -0.68540  -0.68259  -0.67938
 Alpha  occ. eigenvalues --   -0.66654  -0.66298  -0.65866  -0.65396  -0.64609
 Alpha  occ. eigenvalues --   -0.64517  -0.64112  -0.63948  -0.63839  -0.63204
 Alpha  occ. eigenvalues --   -0.63044  -0.62750  -0.62565  -0.62244  -0.61883
 Alpha  occ. eigenvalues --   -0.61186  -0.61017  -0.60835  -0.59851  -0.59556
 Alpha  occ. eigenvalues --   -0.59458  -0.58793  -0.58528  -0.58357  -0.57924
 Alpha  occ. eigenvalues --   -0.57672  -0.57524  -0.57254  -0.57044  -0.56457
 Alpha  occ. eigenvalues --   -0.56333  -0.56064  -0.55650  -0.55260  -0.54847
 Alpha  occ. eigenvalues --   -0.54670  -0.54260  -0.54172  -0.53456  -0.53369
 Alpha  occ. eigenvalues --   -0.53147  -0.52536  -0.52382  -0.52123  -0.51228
 Alpha  occ. eigenvalues --   -0.51042  -0.50822  -0.50445  -0.50149  -0.49876
 Alpha  occ. eigenvalues --   -0.49622  -0.49539  -0.49460  -0.48977  -0.48735
 Alpha  occ. eigenvalues --   -0.48668  -0.48431  -0.48139  -0.47816  -0.47509
 Alpha  occ. eigenvalues --   -0.47380  -0.47148  -0.47076  -0.46937  -0.46671
 Alpha  occ. eigenvalues --   -0.46472  -0.46216  -0.46008  -0.45677  -0.45486
 Alpha  occ. eigenvalues --   -0.45256  -0.45073  -0.44992  -0.44846  -0.44203
 Alpha  occ. eigenvalues --   -0.43381  -0.43020  -0.42631  -0.42374  -0.42217
 Alpha  occ. eigenvalues --   -0.41843  -0.41740  -0.41588  -0.40027  -0.39104
 Alpha  occ. eigenvalues --   -0.38124  -0.37220  -0.36083  -0.34869  -0.34345
 Alpha  occ. eigenvalues --   -0.34020  -0.33225  -0.32759  -0.31332  -0.26445
 Alpha  occ. eigenvalues --   -0.21725
 Alpha virt. eigenvalues --   -0.08320  -0.01659  -0.00457  -0.00040   0.01456
 Alpha virt. eigenvalues --    0.01745   0.02381   0.03523   0.04527   0.05031
 Alpha virt. eigenvalues --    0.06570   0.06847   0.07187   0.08058   0.08342

 Mulliken charges:
               1
     1  Mg   0.433163
     2  C   -0.059412
     3  C   -0.081868
     4  C   -0.044786
     5  C   -0.080330
     6  N   -0.296753
     7  C    0.128883
     8  C    0.008711
     9  C    0.009256
    10  C    0.114197
    11  C   -0.050377
    12  C   -0.013589
    13  C    0.007390
    14  C    0.457878
    15  O   -0.511839
    16  O   -0.274481
    17  N   -0.315883
    18  C    0.108141
    19  C   -0.028968
    20  C   -0.053090
    21  C    0.104962
    22  C   -0.041059
    23  C    0.316633
    24  O   -0.527687
    25  C   -0.033107
    26  N   -0.251018
    27  C    0.088272
    28  C   -0.001398
    29  C    0.012876
    30  C    0.163248
    31  C   -0.056167
    32  C   -0.035742
    33  C   -0.057008
    34  N   -0.310549
    35  C    0.123670
    36  C    0.044469
    37  C   -0.039838
    38  C    0.146983
    39  C   -0.038599
    40  C    0.346360
    41  O   -0.494630
    42  C    0.045335
    43  C    0.493635
    44  O   -0.514572
    45  O   -0.268562
    46  C    0.070532
    47  C    0.102987
    48  C   -0.089431
    49  C    0.015225
    50  C   -0.044472
    51  C   -0.029357
    52  C   -0.027304
    53  C   -0.034325
    54  C   -0.015322
    55  C   -0.056822
    56  C   -0.037423
    57  C   -0.032435
    58  C   -0.029874
    59  C   -0.011460
    60  C   -0.068292
    61  C   -0.042428
    62  C   -0.046239
    63  C   -0.040949
    64  C   -0.012358
    65  C   -0.054607
    66  C   -0.055856
    67  H    0.016695
    68  H    0.054541
    69  H    0.016438
    70  H    0.054953
    71  H    0.025254
    72  H    0.016990
    73  H    0.022167
    74  H    0.028955
    75  H    0.013825
    76  H    0.030011
    77  H    0.032559
    78  H    0.042719
    79  H    0.026995
    80  H    0.026344
    81  H    0.022180
    82  H    0.039896
    83  H    0.027629
    84  H    0.043888
    85  H    0.036906
    86  H    0.030623
    87  H    0.017851
    88  H    0.021331
    89  H    0.021797
    90  H    0.008636
    91  H    0.024897
    92  H    0.020587
    93  H    0.023500
    94  H    0.031240
    95  H    0.034425
    96  H    0.031869
    97  H    0.029858
    98  H    0.047729
    99  H    0.037240
   100  H    0.050156
   101  H    0.036323
   102  H    0.062290
   103  H    0.036894
   104  H    0.023766
   105  H    0.030253
   106  H    0.018550
   107  H    0.028081
   108  H    0.015855
   109  H    0.015307
   110  H    0.023961
   111  H    0.025642
   112  H    0.010726
   113  H    0.014233
   114  H    0.026520
   115  H    0.023905
   116  H    0.022811
   117  H    0.008824
   118  H    0.012226
   119  H    0.015159
   120  H    0.019938
   121  H    0.019315
   122  H    0.020769
   123  H    0.017662
   124  H    0.032447
   125  H    0.005870
   126  H    0.019526
   127  H    0.026736
   128  H    0.017956
   129  H    0.009056
   130  H    0.014787
   131  H    0.019191
   132  H    0.037642
   133  H    0.032377
   134  H    0.022666
   135  H    0.014117
   136  H    0.019820
   137  H    0.010613
   138  H    0.015563
   139  H    0.014444
   140  H    0.014952
 Sum of Mulliken charges =  -0.00000

 Dipole moment (field-independent basis, Debye):
    X=             -4.4669    Y=              0.4425    Z=              5.0004  Tot=              6.7196
 N-N= 4.308043553937D+03 E-N= 0.000000000000D+00  KE=-9.290223646018D+03
 Leave Link  601 at Wed May  4 10:00:05 2022, MaxMem=  6710886400 cpu:               0.8 elap:               0.0
 (Enter /sw/apps/gaussian-16.0/g16/l9999.exe)
 1\1\GINC-BP1-COMPUTE097\SP\RZINDO CIS\STO-3G\C55H74Mg1N4O6\OF15641\04-
 May-2022\0\\#p ZINDO=(nstates=5)\\step_1551_chromophore_24 ZINDO\\0,1\
 Mg,0,-0.192,43.809,24.678\C,0,2.107,43.195,27.186\C,0,-2.647,42.769,26
 .867\C,0,-2.396,43.538,22.028\C,0,2.387,44.29,22.541\N,0,-0.249,42.901
 ,26.827\C,0,0.829,42.916,27.701\C,0,0.413,42.532,29.207\C,0,-1.196,42.
 327,28.956\C,0,-1.42,42.717,27.462\C,0,-1.758,40.996,29.37\C,0,0.716,4
 3.586,30.259\C,0,-0.024,43.439,31.626\C,0,-0.261,41.993,32.177\O,0,0.6

 Normal termination of Gaussian 16 at Wed May  4 10:00:05 2022.
