 Gaussian 16, Revision A.03,
 Gaussian 16:  ES64L-G16RevA.03 25-Dec-2016

 ------------------------------
 #p blyp/Def2SVP td=(nstates=5)
 ------------------------------

 -------------------------------------------------
 step_901_chromophore_8 TDDFT with blyp functional
 -------------------------------------------------
 Symbolic Z-matrix:
 Charge =  0 Multiplicity = 1

                         Standard orientation:
 ---------------------------------------------------------------------
 Center     Atomic      Atomic             Coordinates (Angstroms)
 Number     Number       Type             X           Y           Z
 ---------------------------------------------------------------------
      1         12           0       -4.389391   -1.019824    0.146744
      2          6           0       -3.537293    2.311782    0.741510
      3          6           0       -4.271985   -0.188683   -3.247019
      4          6           0       -4.629774   -4.228938   -0.554352
      5          6           0       -3.916082   -1.705316    3.556834
      6          7           0       -4.099075    0.841496   -1.066594
      7          6           0       -3.791843    2.049532   -0.600803
      8          6           0       -3.447882    2.973580   -1.757095
      9          6           0       -4.275746    2.316859   -2.917568
     10          6           0       -4.217237    0.906383   -2.395777
     11          6           0       -5.758877    2.849915   -3.234298
     12          6           0       -1.918883    3.017966   -1.875243
     13          6           0       -1.364777    4.347526   -2.407444
     14          6           0       -0.287548    4.979152   -1.588936
     15          8           0       -0.212362    6.161148   -1.337487
     16          8           0        0.669444    3.975268   -1.292558
     17          7           0       -4.450993   -2.061458   -1.672237
     18          6           0       -4.358800   -1.591980   -2.940543
     19          6           0       -4.455236   -2.657171   -3.898727
     20          6           0       -4.576643   -3.874152   -3.125764
     21          6           0       -4.536921   -3.446732   -1.699527
     22          6           0       -4.304640   -2.538486   -5.328526
     23          6           0       -4.729249   -5.262433   -3.722401
     24          8           0       -4.874618   -5.292199   -4.914392
     25          6           0       -4.592974   -6.600184   -3.028978
     26          7           0       -4.105884   -2.781968    1.320134
     27          6           0       -4.520836   -4.030389    0.804702
     28          6           0       -4.816916   -5.008404    2.020332
     29          6           0       -4.676737   -4.097399    3.257978
     30          6           0       -4.211996   -2.729395    2.705429
     31          6           0       -6.204265   -5.769458    2.000041
     32          6           0       -3.726379   -4.737112    4.281851
     33          6           0       -4.502021   -5.101949    5.603037
     34          7           0       -3.919182    0.038597    1.828429
     35          6           0       -3.681522   -0.356119    3.157182
     36          6           0       -3.293318    0.847336    3.934643
     37          6           0       -3.320858    1.850807    2.969987
     38          6           0       -3.611455    1.321234    1.732524
     39          6           0       -2.998496    0.948424    5.419888
     40          6           0       -3.126975    3.279196    2.883313
     41          8           0       -2.919689    4.128119    3.762071
     42          6           0       -3.298968    3.624499    1.407623
     43          6           0       -4.445436    4.570791    1.324505
     44          8           0       -5.608940    4.416753    1.659445
     45          8           0       -3.968989    5.699283    0.717318
     46          6           0       -4.865620    6.802761    0.351919
     47          6           0        1.809494    4.446427   -0.579562
     48          6           0        2.847536    3.319443   -0.361837
     49          6           0        3.986241    3.435671    0.359433
     50          6           0        4.328803    4.641457    1.264742
     51          6           0        4.923370    2.320868    0.438633
     52          6           0        5.564833    1.969794   -0.957373
     53          6           0        4.943036    0.673760   -1.547354
     54          6           0        5.993335   -0.393975   -2.125910
     55          6           0        5.376835   -1.094913   -3.436636
     56          6           0        6.477738   -1.395687   -1.154807
     57          6           0        7.913408   -1.106761   -0.670272
     58          6           0        8.166353   -1.577783    0.738517
     59          6           0        9.430254   -2.465426    0.786854
     60          6           0        9.000487   -3.874550    1.378607
     61          6           0       10.630890   -1.783335    1.514097
     62          6           0       11.390845   -1.032499    0.411022
     63          6           0       12.804645   -0.644343    1.008358
     64          6           0       13.954088   -1.375731    0.122026
     65          6           0       14.262976   -0.400794   -1.089077
     66          6           0       15.181645   -1.701893    0.968550
     67          1           0       -4.349026    0.124135   -4.290193
     68          1           0       -5.048970   -5.220420   -0.737225
     69          1           0       -4.101457   -1.781200    4.630351
     70          1           0       -3.783679    3.943585   -1.391450
     71          1           0       -3.669659    2.321694   -3.823848
     72          1           0       -6.497708    2.069779   -3.051478
     73          1           0       -5.774193    3.125658   -4.288448
     74          1           0       -5.892958    3.721647   -2.594290
     75          1           0       -1.649698    2.137949   -2.458442
     76          1           0       -1.494748    2.927392   -0.875172
     77          1           0       -2.149889    5.033037   -2.726700
     78          1           0       -0.831057    4.042959   -3.308154
     79          1           0       -3.343504   -2.949802   -5.638685
     80          1           0       -4.420838   -1.498071   -5.633939
     81          1           0       -5.032451   -3.131698   -5.882574
     82          1           0       -5.385483   -6.851203   -2.324029
     83          1           0       -3.693026   -6.678110   -2.419691
     84          1           0       -4.383403   -7.337528   -3.803979
     85          1           0       -3.993054   -5.714426    1.915786
     86          1           0       -5.647801   -3.841320    3.682614
     87          1           0       -5.919789   -6.822002    2.013515
     88          1           0       -6.761085   -5.543144    1.089940
     89          1           0       -6.851261   -5.600703    2.860682
     90          1           0       -2.827595   -4.184996    4.555736
     91          1           0       -3.304320   -5.681101    3.937705
     92          1           0       -3.796315   -5.751413    6.122207
     93          1           0       -5.440971   -5.651997    5.534332
     94          1           0       -4.558241   -4.208884    6.224375
     95          1           0       -2.478555    1.870608    5.679717
     96          1           0       -2.485274    0.049306    5.759364
     97          1           0       -3.918405    1.107798    5.982173
     98          1           0       -2.396861    4.023867    0.943924
     99          1           0       -5.765602    6.474728   -0.167115
    100          1           0       -4.377804    7.503820   -0.326092
    101          1           0       -5.241224    7.312523    1.239532
    102          1           0        1.580784    4.669137    0.462879
    103          1           0        2.267089    5.293357   -1.092077
    104          1           0        2.690338    2.393107   -0.914276
    105          1           0        3.589177    5.440177    1.328542
    106          1           0        5.136084    5.162351    0.749049
    107          1           0        4.698848    4.160211    2.169808
    108          1           0        4.318356    1.487324    0.797013
    109          1           0        5.775084    2.372245    1.116149
    110          1           0        6.625710    1.758564   -0.821606
    111          1           0        5.553418    2.788453   -1.676936
    112          1           0        4.198970    1.041513   -2.253425
    113          1           0        4.321265    0.175350   -0.803612
    114          1           0        6.863599    0.168707   -2.463547
    115          1           0        4.331329   -0.884406   -3.659903
    116          1           0        5.535349   -2.171925   -3.369945
    117          1           0        6.013853   -0.732713   -4.242597
    118          1           0        6.366870   -2.450297   -1.407097
    119          1           0        5.856271   -1.433475   -0.260339
    120          1           0        8.101666   -0.032542   -0.661155
    121          1           0        8.584079   -1.393656   -1.479869
    122          1           0        7.338924   -2.079990    1.239317
    123          1           0        8.366208   -0.780230    1.454909
    124          1           0        9.733008   -2.763714   -0.216927
    125          1           0        8.942351   -3.770241    2.461444
    126          1           0        9.797454   -4.602031    1.218257
    127          1           0        8.006950   -4.201727    1.073818
    128          1           0       11.195872   -2.598759    1.964637
    129          1           0       10.225731   -1.070534    2.232633
    130          1           0       10.794915   -0.131279    0.265229
    131          1           0       11.646415   -1.509607   -0.535158
    132          1           0       12.869302   -0.801429    2.084687
    133          1           0       12.749117    0.428567    0.820032
    134          1           0       13.670593   -2.405799   -0.093489
    135          1           0       13.806948   -0.821337   -1.984479
    136          1           0       15.327952   -0.245335   -1.262697
    137          1           0       13.819977    0.583843   -0.943232
    138          1           0       15.130031   -2.789352    1.023319
    139          1           0       15.058294   -1.183208    1.920174
    140          1           0       16.121841   -1.336586    0.555950
 ---------------------------------------------------------------------

 SCF Done:  E(RB-LYP) =  -3007.34547867     A.U. after   21 cycles

 Excitation energies and oscillator strengths:

 Excited State   1:      Singlet-A      1.8220 eV  680.47 nm  f=0.1915  <S**2>=0.000
     244 -> 247       -0.45702
     245 -> 248       -0.13379
     246 -> 247        0.51998
     246 <- 247       -0.11523
 This state for optimization and/or second-order correction.
 Total Energy, E(TD-HF/TD-DFT) =  -3007.27852001
 Copying the excited state density for this state as the 1-particle RhoCI density.

 Excited State   2:      Singlet-A      1.8395 eV  674.02 nm  f=0.1355  <S**2>=0.000
     244 -> 247        0.52684
     245 -> 248       -0.12064
     246 -> 247        0.45557
     246 <- 247       -0.10302

 Excited State   3:      Singlet-A      1.8978 eV  653.29 nm  f=0.0088  <S**2>=0.000
     243 -> 247        0.64523
     245 -> 247       -0.26293

 Excited State   4:      Singlet-A      1.9997 eV  620.02 nm  f=0.0004  <S**2>=0.000
     242 -> 247        0.70686

 Excited State   5:      Singlet-A      2.0709 eV  598.69 nm  f=0.0833  <S**2>=0.000
     243 -> 247        0.27213
     245 -> 247        0.58935
     246 -> 248        0.22835

 The electronic state is 1-A.
 Alpha  occ. eigenvalues --  -46.27053 -18.82227 -18.82043 -18.77830 -18.76784
 Alpha  occ. eigenvalues --  -18.75513 -18.75060 -14.03038 -14.02852 -14.01021
 Alpha  occ. eigenvalues --  -14.00972 -10.04519 -10.04118  -9.99610  -9.99130
 Alpha  occ. eigenvalues --   -9.97849  -9.97628  -9.96942  -9.96345  -9.96047
 Alpha  occ. eigenvalues --   -9.96001  -9.95914  -9.95836  -9.95391  -9.94795
 Alpha  occ. eigenvalues --   -9.94466  -9.94100  -9.93792  -9.93743  -9.93717
 Alpha  occ. eigenvalues --   -9.93611  -9.93577  -9.93469  -9.93427  -9.93264
 Alpha  occ. eigenvalues --   -9.93095  -9.93051  -9.93023  -9.92753  -9.92711
 Alpha  occ. eigenvalues --   -9.92697  -9.92438  -9.92425  -9.92401  -9.92348
 Alpha  occ. eigenvalues --   -9.92242  -9.92192  -9.92082  -9.92028  -9.91623
 Alpha  occ. eigenvalues --   -9.91456  -9.91213  -9.91167  -9.91161  -9.91158
 Alpha  occ. eigenvalues --   -9.91082  -9.91040  -9.91007  -9.90926  -9.90844
 Alpha  occ. eigenvalues --   -9.90652  -9.90594  -9.90439  -9.90418  -9.90372
 Alpha  occ. eigenvalues --   -9.90348  -2.91696  -1.72118  -1.71586  -1.71400
 Alpha  occ. eigenvalues --   -0.97725  -0.97619  -0.92758  -0.91190  -0.90430
 Alpha  occ. eigenvalues --   -0.89652  -0.88063  -0.86271  -0.85003  -0.83764
 Alpha  occ. eigenvalues --   -0.76576  -0.73768  -0.73368  -0.72929  -0.72562
 Alpha  occ. eigenvalues --   -0.71770  -0.71592  -0.71104  -0.70211  -0.70020
 Alpha  occ. eigenvalues --   -0.69566  -0.69374  -0.68067  -0.67511  -0.67245
 Alpha  occ. eigenvalues --   -0.66269  -0.65994  -0.65330  -0.65069  -0.64423
 Alpha  occ. eigenvalues --   -0.63660  -0.62728  -0.62296  -0.61805  -0.60999
 Alpha  occ. eigenvalues --   -0.60249  -0.60114  -0.60039  -0.59136  -0.58413
 Alpha  occ. eigenvalues --   -0.58260  -0.57755  -0.57026  -0.55954  -0.54532
 Alpha  occ. eigenvalues --   -0.53967  -0.53468  -0.52925  -0.52065  -0.51999
 Alpha  occ. eigenvalues --   -0.51680  -0.51117  -0.50780  -0.50637  -0.50240
 Alpha  occ. eigenvalues --   -0.49895  -0.49596  -0.48891  -0.48695  -0.46552
 Alpha  occ. eigenvalues --   -0.46190  -0.46009  -0.45336  -0.45118  -0.44825
 Alpha  occ. eigenvalues --   -0.44321  -0.44047  -0.43192  -0.42682  -0.42631
 Alpha  occ. eigenvalues --   -0.42446  -0.41585  -0.41456  -0.41251  -0.41232
 Alpha  occ. eigenvalues --   -0.40650  -0.40575  -0.40150  -0.40083  -0.39851
 Alpha  occ. eigenvalues --   -0.39754  -0.39698  -0.39512  -0.39124  -0.39027
 Alpha  occ. eigenvalues --   -0.38686  -0.38572  -0.38392  -0.38237  -0.37912
 Alpha  occ. eigenvalues --   -0.37845  -0.37740  -0.37543  -0.37377  -0.37181
 Alpha  occ. eigenvalues --   -0.37092  -0.37058  -0.36819  -0.36593  -0.36413
 Alpha  occ. eigenvalues --   -0.36108  -0.35976  -0.35930  -0.35662  -0.35406
 Alpha  occ. eigenvalues --   -0.35253  -0.35105  -0.34993  -0.34825  -0.34690
 Alpha  occ. eigenvalues --   -0.34556  -0.34284  -0.34206  -0.34161  -0.33919
 Alpha  occ. eigenvalues --   -0.33906  -0.33800  -0.33542  -0.33383  -0.33300
 Alpha  occ. eigenvalues --   -0.33187  -0.32919  -0.32857  -0.32685  -0.32369
 Alpha  occ. eigenvalues --   -0.32349  -0.32218  -0.31981  -0.31875  -0.31675
 Alpha  occ. eigenvalues --   -0.31454  -0.31426  -0.31095  -0.30945  -0.30808
 Alpha  occ. eigenvalues --   -0.30674  -0.30517  -0.30400  -0.30268  -0.30069
 Alpha  occ. eigenvalues --   -0.29763  -0.29607  -0.29434  -0.29355  -0.29147
 Alpha  occ. eigenvalues --   -0.28646  -0.28493  -0.28299  -0.28174  -0.27443
 Alpha  occ. eigenvalues --   -0.27348  -0.27181  -0.26733  -0.26656  -0.26611
 Alpha  occ. eigenvalues --   -0.26141  -0.25961  -0.25747  -0.25620  -0.25348
 Alpha  occ. eigenvalues --   -0.25121  -0.23743  -0.23592  -0.23439  -0.23002
 Alpha  occ. eigenvalues --   -0.22640  -0.22485  -0.22478  -0.21800  -0.20757
 Alpha  occ. eigenvalues --   -0.19881  -0.19080  -0.18651  -0.18407  -0.17450
 Alpha  occ. eigenvalues --   -0.15998
 Alpha virt. eigenvalues --   -0.11731  -0.06736  -0.05759  -0.04551  -0.03478
 Alpha virt. eigenvalues --   -0.02590  -0.02229  -0.01507  -0.01336   0.00332
 Alpha virt. eigenvalues --    0.01255   0.01831   0.02193   0.02354   0.02771

 Mulliken charges:
               1
     1  Mg   0.687473
     2  C   -0.109446
     3  C   -0.067786
     4  C   -0.044836
     5  C   -0.085157
     6  N   -0.148474
     7  C   -0.112670
     8  C   -0.016960
     9  C    0.034513
    10  C   -0.028236
    11  C    0.151749
    12  C    0.119965
    13  C    0.196086
    14  C    0.071024
    15  O   -0.156425
    16  O   -0.298945
    17  N   -0.279876
    18  C    0.136677
    19  C   -0.135951
    20  C    0.044751
    21  C    0.152075
    22  C    0.199299
    23  C   -0.083182
    24  O   -0.159328
    25  C    0.118980
    26  N   -0.275171
    27  C   -0.042536
    28  C    0.057218
    29  C    0.051131
    30  C    0.062813
    31  C    0.113043
    32  C    0.094110
    33  C    0.038508
    34  N   -0.275142
    35  C    0.079561
    36  C   -0.179743
    37  C    0.085016
    38  C    0.157946
    39  C    0.175077
    40  C   -0.064251
    41  O   -0.146982
    42  C    0.156518
    43  C    0.115428
    44  O   -0.168624
    45  O   -0.272048
    46  C    0.221904
    47  C    0.304445
    48  C   -0.132935
    49  C   -0.146536
    50  C    0.155396
    51  C    0.127049
    52  C    0.069538
    53  C    0.075617
    54  C   -0.054663
    55  C    0.089564
    56  C    0.132192
    57  C    0.056872
    58  C    0.145419
    59  C   -0.117214
    60  C    0.087545
    61  C    0.136603
    62  C    0.027351
    63  C    0.090255
    64  C   -0.111386
    65  C    0.106320
    66  C    0.111499
    67  H   -0.071284
    68  H   -0.076984
    69  H   -0.044100
    70  H   -0.051743
    71  H   -0.043433
    72  H    0.006341
    73  H    0.000327
    74  H    0.003258
    75  H   -0.023179
    76  H   -0.006631
    77  H   -0.007097
    78  H   -0.004973
    79  H    0.002776
    80  H   -0.029808
    81  H    0.005497
    82  H    0.021752
    83  H   -0.009190
    84  H   -0.004435
    85  H   -0.010609
    86  H   -0.014182
    87  H   -0.008717
    88  H    0.000100
    89  H   -0.000530
    90  H   -0.018175
    91  H   -0.026776
    92  H   -0.022647
    93  H    0.003108
    94  H   -0.004511
    95  H    0.000679
    96  H   -0.000965
    97  H    0.001276
    98  H   -0.013487
    99  H    0.001702
   100  H    0.023106
   101  H    0.017859
   102  H    0.010444
   103  H    0.005850
   104  H   -0.038558
   105  H   -0.009337
   106  H   -0.011261
   107  H    0.009110
   108  H   -0.006068
   109  H   -0.041710
   110  H   -0.043407
   111  H   -0.021342
   112  H   -0.024451
   113  H   -0.033447
   114  H   -0.030723
   115  H   -0.006685
   116  H   -0.023521
   117  H   -0.018741
   118  H   -0.038944
   119  H   -0.053964
   120  H   -0.037622
   121  H   -0.024455
   122  H   -0.040050
   123  H   -0.053888
   124  H   -0.031117
   125  H   -0.033737
   126  H   -0.019877
   127  H   -0.011983
   128  H   -0.037317
   129  H   -0.025722
   130  H   -0.033562
   131  H   -0.013679
   132  H   -0.024054
   133  H   -0.035885
   134  H   -0.028345
   135  H   -0.009864
   136  H   -0.013212
   137  H   -0.012343
   138  H   -0.012814
   139  H   -0.018163
   140  H   -0.021906
 Sum of Mulliken charges =  -0.00000

 Dipole moment (field-independent basis, Debye):
    X=              0.8742    Y=             -2.7364    Z=             -0.0765  Tot=              2.8737
 Quadrupole moment (field-independent basis, Debye-Ang):
   XX=           -391.2976   YY=           -410.0585   ZZ=           -415.5477
   XY=             10.7212   XZ=             -4.7502   YZ=            -45.2308

 Normal termination of Gaussian 16 at Sat Apr 30 23:08:13 2022.
