 Gaussian 16, Revision A.03,
 Gaussian 16:  ES64L-G16RevA.03 25-Dec-2016

 -----------------------------------
 #p cam-b3lyp/Def2SVP td=(nstates=5)
 -----------------------------------

 ------------------------------------------------------
 step_901_chromophore_8 TDDFT with cam-b3lyp functional
 ------------------------------------------------------
 Symbolic Z-matrix:
 Charge =  0 Multiplicity = 1

                         Standard orientation:
 ---------------------------------------------------------------------
 Center     Atomic      Atomic             Coordinates (Angstroms)
 Number     Number       Type             X           Y           Z
 ---------------------------------------------------------------------
      1         12           0       -4.389391   -1.019824    0.146744
      2          6           0       -3.537293    2.311782    0.741510
      3          6           0       -4.271985   -0.188683   -3.247019
      4          6           0       -4.629774   -4.228938   -0.554352
      5          6           0       -3.916082   -1.705316    3.556834
      6          7           0       -4.099075    0.841496   -1.066594
      7          6           0       -3.791843    2.049532   -0.600803
      8          6           0       -3.447882    2.973580   -1.757095
      9          6           0       -4.275746    2.316859   -2.917568
     10          6           0       -4.217237    0.906383   -2.395777
     11          6           0       -5.758877    2.849915   -3.234298
     12          6           0       -1.918883    3.017966   -1.875243
     13          6           0       -1.364777    4.347526   -2.407444
     14          6           0       -0.287548    4.979152   -1.588936
     15          8           0       -0.212362    6.161148   -1.337487
     16          8           0        0.669444    3.975268   -1.292558
     17          7           0       -4.450993   -2.061458   -1.672237
     18          6           0       -4.358800   -1.591980   -2.940543
     19          6           0       -4.455236   -2.657171   -3.898727
     20          6           0       -4.576643   -3.874152   -3.125764
     21          6           0       -4.536921   -3.446732   -1.699527
     22          6           0       -4.304640   -2.538486   -5.328526
     23          6           0       -4.729249   -5.262433   -3.722401
     24          8           0       -4.874618   -5.292199   -4.914392
     25          6           0       -4.592974   -6.600184   -3.028978
     26          7           0       -4.105884   -2.781968    1.320134
     27          6           0       -4.520836   -4.030389    0.804702
     28          6           0       -4.816916   -5.008404    2.020332
     29          6           0       -4.676737   -4.097399    3.257978
     30          6           0       -4.211996   -2.729395    2.705429
     31          6           0       -6.204265   -5.769458    2.000041
     32          6           0       -3.726379   -4.737112    4.281851
     33          6           0       -4.502021   -5.101949    5.603037
     34          7           0       -3.919182    0.038597    1.828429
     35          6           0       -3.681522   -0.356119    3.157182
     36          6           0       -3.293318    0.847336    3.934643
     37          6           0       -3.320858    1.850807    2.969987
     38          6           0       -3.611455    1.321234    1.732524
     39          6           0       -2.998496    0.948424    5.419888
     40          6           0       -3.126975    3.279196    2.883313
     41          8           0       -2.919689    4.128119    3.762071
     42          6           0       -3.298968    3.624499    1.407623
     43          6           0       -4.445436    4.570791    1.324505
     44          8           0       -5.608940    4.416753    1.659445
     45          8           0       -3.968989    5.699283    0.717318
     46          6           0       -4.865620    6.802761    0.351919
     47          6           0        1.809494    4.446427   -0.579562
     48          6           0        2.847536    3.319443   -0.361837
     49          6           0        3.986241    3.435671    0.359433
     50          6           0        4.328803    4.641457    1.264742
     51          6           0        4.923370    2.320868    0.438633
     52          6           0        5.564833    1.969794   -0.957373
     53          6           0        4.943036    0.673760   -1.547354
     54          6           0        5.993335   -0.393975   -2.125910
     55          6           0        5.376835   -1.094913   -3.436636
     56          6           0        6.477738   -1.395687   -1.154807
     57          6           0        7.913408   -1.106761   -0.670272
     58          6           0        8.166353   -1.577783    0.738517
     59          6           0        9.430254   -2.465426    0.786854
     60          6           0        9.000487   -3.874550    1.378607
     61          6           0       10.630890   -1.783335    1.514097
     62          6           0       11.390845   -1.032499    0.411022
     63          6           0       12.804645   -0.644343    1.008358
     64          6           0       13.954088   -1.375731    0.122026
     65          6           0       14.262976   -0.400794   -1.089077
     66          6           0       15.181645   -1.701893    0.968550
     67          1           0       -4.349026    0.124135   -4.290193
     68          1           0       -5.048970   -5.220420   -0.737225
     69          1           0       -4.101457   -1.781200    4.630351
     70          1           0       -3.783679    3.943585   -1.391450
     71          1           0       -3.669659    2.321694   -3.823848
     72          1           0       -6.497708    2.069779   -3.051478
     73          1           0       -5.774193    3.125658   -4.288448
     74          1           0       -5.892958    3.721647   -2.594290
     75          1           0       -1.649698    2.137949   -2.458442
     76          1           0       -1.494748    2.927392   -0.875172
     77          1           0       -2.149889    5.033037   -2.726700
     78          1           0       -0.831057    4.042959   -3.308154
     79          1           0       -3.343504   -2.949802   -5.638685
     80          1           0       -4.420838   -1.498071   -5.633939
     81          1           0       -5.032451   -3.131698   -5.882574
     82          1           0       -5.385483   -6.851203   -2.324029
     83          1           0       -3.693026   -6.678110   -2.419691
     84          1           0       -4.383403   -7.337528   -3.803979
     85          1           0       -3.993054   -5.714426    1.915786
     86          1           0       -5.647801   -3.841320    3.682614
     87          1           0       -5.919789   -6.822002    2.013515
     88          1           0       -6.761085   -5.543144    1.089940
     89          1           0       -6.851261   -5.600703    2.860682
     90          1           0       -2.827595   -4.184996    4.555736
     91          1           0       -3.304320   -5.681101    3.937705
     92          1           0       -3.796315   -5.751413    6.122207
     93          1           0       -5.440971   -5.651997    5.534332
     94          1           0       -4.558241   -4.208884    6.224375
     95          1           0       -2.478555    1.870608    5.679717
     96          1           0       -2.485274    0.049306    5.759364
     97          1           0       -3.918405    1.107798    5.982173
     98          1           0       -2.396861    4.023867    0.943924
     99          1           0       -5.765602    6.474728   -0.167115
    100          1           0       -4.377804    7.503820   -0.326092
    101          1           0       -5.241224    7.312523    1.239532
    102          1           0        1.580784    4.669137    0.462879
    103          1           0        2.267089    5.293357   -1.092077
    104          1           0        2.690338    2.393107   -0.914276
    105          1           0        3.589177    5.440177    1.328542
    106          1           0        5.136084    5.162351    0.749049
    107          1           0        4.698848    4.160211    2.169808
    108          1           0        4.318356    1.487324    0.797013
    109          1           0        5.775084    2.372245    1.116149
    110          1           0        6.625710    1.758564   -0.821606
    111          1           0        5.553418    2.788453   -1.676936
    112          1           0        4.198970    1.041513   -2.253425
    113          1           0        4.321265    0.175350   -0.803612
    114          1           0        6.863599    0.168707   -2.463547
    115          1           0        4.331329   -0.884406   -3.659903
    116          1           0        5.535349   -2.171925   -3.369945
    117          1           0        6.013853   -0.732713   -4.242597
    118          1           0        6.366870   -2.450297   -1.407097
    119          1           0        5.856271   -1.433475   -0.260339
    120          1           0        8.101666   -0.032542   -0.661155
    121          1           0        8.584079   -1.393656   -1.479869
    122          1           0        7.338924   -2.079990    1.239317
    123          1           0        8.366208   -0.780230    1.454909
    124          1           0        9.733008   -2.763714   -0.216927
    125          1           0        8.942351   -3.770241    2.461444
    126          1           0        9.797454   -4.602031    1.218257
    127          1           0        8.006950   -4.201727    1.073818
    128          1           0       11.195872   -2.598759    1.964637
    129          1           0       10.225731   -1.070534    2.232633
    130          1           0       10.794915   -0.131279    0.265229
    131          1           0       11.646415   -1.509607   -0.535158
    132          1           0       12.869302   -0.801429    2.084687
    133          1           0       12.749117    0.428567    0.820032
    134          1           0       13.670593   -2.405799   -0.093489
    135          1           0       13.806948   -0.821337   -1.984479
    136          1           0       15.327952   -0.245335   -1.262697
    137          1           0       13.819977    0.583843   -0.943232
    138          1           0       15.130031   -2.789352    1.023319
    139          1           0       15.058294   -1.183208    1.920174
    140          1           0       16.121841   -1.336586    0.555950
 ---------------------------------------------------------------------

 SCF Done:  E(RCAM-B3LYP) =  -3007.14238995     A.U. after   17 cycles

 Excitation energies and oscillator strengths:

 Excited State   1:      Singlet-A      1.6984 eV  730.00 nm  f=0.3874  <S**2>=0.000
     245 -> 248       -0.17247
     246 -> 247        0.68815
     245 <- 248       -0.10743
 This state for optimization and/or second-order correction.
 Total Energy, E(TD-HF/TD-DFT) =  -3007.07997458
 Copying the excited state density for this state as the 1-particle RhoCI density.

 Excited State   2:      Singlet-A      2.2500 eV  551.04 nm  f=0.1294  <S**2>=0.000
     245 -> 247        0.64587
     246 -> 248        0.27437

 Excited State   3:      Singlet-A      3.2388 eV  382.81 nm  f=0.0023  <S**2>=0.000
     243 -> 247        0.68584

 Excited State   4:      Singlet-A      3.4093 eV  363.67 nm  f=0.0028  <S**2>=0.000
     240 -> 247        0.47615
     240 -> 249       -0.26037
     240 -> 250       -0.12187
     242 -> 247       -0.37522
     246 -> 248        0.13777

 Excited State   5:      Singlet-A      3.4779 eV  356.49 nm  f=0.0010  <S**2>=0.000
     239 -> 247        0.11864
     240 -> 247        0.32399
     240 -> 249       -0.18089
     242 -> 247        0.55543
     246 -> 248       -0.10902

 The electronic state is 1-A.
 Alpha  occ. eigenvalues --  -46.88604 -19.25124 -19.25027 -19.20902 -19.19939
 Alpha  occ. eigenvalues --  -19.18895 -19.18209 -14.41988 -14.41652 -14.39487
 Alpha  occ. eigenvalues --  -14.39438 -10.39907 -10.39619 -10.34638 -10.34593
 Alpha  occ. eigenvalues --  -10.31892 -10.31590 -10.31498 -10.30810 -10.30479
 Alpha  occ. eigenvalues --  -10.30477 -10.30436 -10.30163 -10.29571 -10.28812
 Alpha  occ. eigenvalues --  -10.28485 -10.28458 -10.28308 -10.28003 -10.27858
 Alpha  occ. eigenvalues --  -10.27633 -10.27629 -10.27527 -10.27491 -10.27368
 Alpha  occ. eigenvalues --  -10.27158 -10.26942 -10.26841 -10.26785 -10.26713
 Alpha  occ. eigenvalues --  -10.26690 -10.26671 -10.26479 -10.26227 -10.26157
 Alpha  occ. eigenvalues --  -10.26085 -10.25899 -10.25860 -10.25779 -10.25272
 Alpha  occ. eigenvalues --  -10.25145 -10.25132 -10.24872 -10.24862 -10.24764
 Alpha  occ. eigenvalues --  -10.24756 -10.24753 -10.24683 -10.24644 -10.24587
 Alpha  occ. eigenvalues --  -10.24460 -10.24260 -10.24227 -10.24049 -10.24037
 Alpha  occ. eigenvalues --  -10.23905  -3.17151  -1.92049  -1.91608  -1.91450
 Alpha  occ. eigenvalues --   -1.16226  -1.16212  -1.11156  -1.09115  -1.08941
 Alpha  occ. eigenvalues --   -1.07672  -1.05942  -1.03980  -1.02539  -1.01264
 Alpha  occ. eigenvalues --   -0.93886  -0.90643  -0.90187  -0.89732  -0.89283
 Alpha  occ. eigenvalues --   -0.88401  -0.88255  -0.87727  -0.86740  -0.86577
 Alpha  occ. eigenvalues --   -0.86055  -0.85819  -0.84313  -0.83697  -0.83407
 Alpha  occ. eigenvalues --   -0.82264  -0.82015  -0.81352  -0.80993  -0.80271
 Alpha  occ. eigenvalues --   -0.79450  -0.78376  -0.77885  -0.77407  -0.76481
 Alpha  occ. eigenvalues --   -0.75602  -0.75430  -0.75342  -0.74410  -0.73604
 Alpha  occ. eigenvalues --   -0.73339  -0.72739  -0.71939  -0.70776  -0.69114
 Alpha  occ. eigenvalues --   -0.68629  -0.67979  -0.67416  -0.66317  -0.66191
 Alpha  occ. eigenvalues --   -0.65917  -0.65368  -0.64809  -0.64641  -0.64289
 Alpha  occ. eigenvalues --   -0.63765  -0.63586  -0.62649  -0.62602  -0.60306
 Alpha  occ. eigenvalues --   -0.59850  -0.59493  -0.58907  -0.58683  -0.58225
 Alpha  occ. eigenvalues --   -0.57820  -0.57388  -0.56421  -0.55954  -0.55825
 Alpha  occ. eigenvalues --   -0.55714  -0.54644  -0.54450  -0.54237  -0.54135
 Alpha  occ. eigenvalues --   -0.53766  -0.53241  -0.52843  -0.52785  -0.52551
 Alpha  occ. eigenvalues --   -0.52472  -0.52231  -0.52112  -0.51765  -0.51532
 Alpha  occ. eigenvalues --   -0.51440  -0.51034  -0.50895  -0.50699  -0.50258
 Alpha  occ. eigenvalues --   -0.50133  -0.49991  -0.49923  -0.49787  -0.49492
 Alpha  occ. eigenvalues --   -0.49391  -0.49239  -0.49056  -0.48904  -0.48726
 Alpha  occ. eigenvalues --   -0.48616  -0.48586  -0.48261  -0.47934  -0.47439
 Alpha  occ. eigenvalues --   -0.47303  -0.47022  -0.46919  -0.46874  -0.46694
 Alpha  occ. eigenvalues --   -0.46477  -0.46156  -0.46084  -0.45994  -0.45741
 Alpha  occ. eigenvalues --   -0.45673  -0.45484  -0.45366  -0.45274  -0.45104
 Alpha  occ. eigenvalues --   -0.44950  -0.44851  -0.44389  -0.44337  -0.44098
 Alpha  occ. eigenvalues --   -0.43927  -0.43812  -0.43572  -0.43350  -0.43212
 Alpha  occ. eigenvalues --   -0.43025  -0.42833  -0.42623  -0.42534  -0.42165
 Alpha  occ. eigenvalues --   -0.42144  -0.42031  -0.41743  -0.41661  -0.41454
 Alpha  occ. eigenvalues --   -0.41335  -0.40953  -0.40945  -0.40511  -0.40443
 Alpha  occ. eigenvalues --   -0.39920  -0.39492  -0.39345  -0.39178  -0.38314
 Alpha  occ. eigenvalues --   -0.38168  -0.38065  -0.37743  -0.37603  -0.37406
 Alpha  occ. eigenvalues --   -0.37099  -0.37086  -0.36674  -0.36554  -0.36408
 Alpha  occ. eigenvalues --   -0.36332  -0.34792  -0.34602  -0.34321  -0.34115
 Alpha  occ. eigenvalues --   -0.33395  -0.32906  -0.32776  -0.31513  -0.30968
 Alpha  occ. eigenvalues --   -0.30641  -0.30217  -0.29101  -0.28681  -0.24265
 Alpha  occ. eigenvalues --   -0.21317
 Alpha virt. eigenvalues --   -0.08950  -0.01482   0.00763   0.02309   0.02523
 Alpha virt. eigenvalues --    0.04225   0.05365   0.05513   0.06085   0.07211
 Alpha virt. eigenvalues --    0.07983   0.08377   0.08487   0.08782   0.09063

 Mulliken charges:
               1
     1  Mg   0.820016
     2  C   -0.134943
     3  C   -0.071027
     4  C   -0.070349
     5  C   -0.091354
     6  N   -0.215870
     7  C   -0.062827
     8  C   -0.070866
     9  C   -0.022839
    10  C   -0.018016
    11  C    0.099137
    12  C    0.068640
    13  C    0.120121
    14  C    0.152443
    15  O   -0.196368
    16  O   -0.362825
    17  N   -0.366825
    18  C    0.140337
    19  C   -0.138593
    20  C   -0.025070
    21  C    0.178452
    22  C    0.138374
    23  C   -0.009313
    24  O   -0.200130
    25  C    0.040963
    26  N   -0.346564
    27  C   -0.012575
    28  C    0.005576
    29  C   -0.011056
    30  C    0.087578
    31  C    0.055195
    32  C    0.032839
    33  C   -0.018087
    34  N   -0.366714
    35  C    0.084909
    36  C   -0.173594
    37  C    0.000988
    38  C    0.197419
    39  C    0.123689
    40  C    0.034753
    41  O   -0.184093
    42  C    0.079338
    43  C    0.204059
    44  O   -0.205765
    45  O   -0.337132
    46  C    0.182929
    47  C    0.272733
    48  C   -0.150091
    49  C   -0.168356
    50  C    0.094253
    51  C    0.061119
    52  C    0.015720
    53  C    0.027999
    54  C   -0.116599
    55  C    0.035952
    56  C    0.079667
    57  C    0.003399
    58  C    0.086812
    59  C   -0.172367
    60  C    0.034293
    61  C    0.079624
    62  C   -0.020036
    63  C    0.035656
    64  C   -0.172112
    65  C    0.048285
    66  C    0.054851
    67  H   -0.035337
    68  H   -0.047107
    69  H   -0.011050
    70  H   -0.017628
    71  H   -0.006768
    72  H    0.031682
    73  H    0.023898
    74  H    0.024884
    75  H    0.009812
    76  H    0.024340
    77  H    0.026777
    78  H    0.029547
    79  H    0.030498
    80  H   -0.005045
    81  H    0.036202
    82  H    0.046614
    83  H    0.020683
    84  H    0.030208
    85  H    0.023762
    86  H    0.020414
    87  H    0.015191
    88  H    0.024506
    89  H    0.023154
    90  H    0.013228
    91  H    0.002296
    92  H    0.002633
    93  H    0.024261
    94  H    0.016621
    95  H    0.029907
    96  H    0.023130
    97  H    0.028552
    98  H    0.030550
    99  H    0.024555
   100  H    0.046148
   101  H    0.041266
   102  H    0.034087
   103  H    0.033194
   104  H   -0.004540
   105  H    0.015761
   106  H    0.013703
   107  H    0.032190
   108  H    0.024382
   109  H   -0.008275
   110  H   -0.016119
   111  H    0.008473
   112  H    0.002790
   113  H   -0.006821
   114  H    0.001275
   115  H    0.016544
   116  H    0.000305
   117  H    0.004776
   118  H   -0.009152
   119  H   -0.024584
   120  H   -0.012095
   121  H    0.003503
   122  H   -0.009681
   123  H   -0.023834
   124  H    0.000170
   125  H   -0.009967
   126  H    0.004199
   127  H    0.011393
   128  H   -0.008140
   129  H    0.002396
   130  H   -0.006249
   131  H    0.011797
   132  H    0.003604
   133  H   -0.006778
   134  H    0.002107
   135  H    0.012835
   136  H    0.010639
   137  H    0.010720
   138  H    0.009659
   139  H    0.005235
   140  H    0.002344
 Sum of Mulliken charges =  -0.00000

 Dipole moment (field-independent basis, Debye):
    X=              0.8112    Y=             -2.9721    Z=             -0.0596  Tot=              3.0814
 Quadrupole moment (field-independent basis, Debye-Ang):
   XX=           -391.5797   YY=           -406.3089   ZZ=           -413.7651
   XY=             11.2701   XZ=             -4.2279   YZ=            -46.5055

 Normal termination of Gaussian 16 at Sat Apr 30 22:10:35 2022.
