 Gaussian 16, Revision A.03,
 Gaussian 16:  ES64L-G16RevA.03 25-Dec-2016

 ---------------------------------
 #p PBE1PBE/Def2SVP td=(nstates=5)
 ---------------------------------

 ----------------------------------------------------
 step_901_chromophore_8 TDDFT with PBE1PBE functional
 ----------------------------------------------------
 Symbolic Z-matrix:
 Charge =  0 Multiplicity = 1

                         Standard orientation:
 ---------------------------------------------------------------------
 Center     Atomic      Atomic             Coordinates (Angstroms)
 Number     Number       Type             X           Y           Z
 ---------------------------------------------------------------------
      1         12           0       -4.389391   -1.019824    0.146744
      2          6           0       -3.537293    2.311782    0.741510
      3          6           0       -4.271985   -0.188683   -3.247019
      4          6           0       -4.629774   -4.228938   -0.554352
      5          6           0       -3.916082   -1.705316    3.556834
      6          7           0       -4.099075    0.841496   -1.066594
      7          6           0       -3.791843    2.049532   -0.600803
      8          6           0       -3.447882    2.973580   -1.757095
      9          6           0       -4.275746    2.316859   -2.917568
     10          6           0       -4.217237    0.906383   -2.395777
     11          6           0       -5.758877    2.849915   -3.234298
     12          6           0       -1.918883    3.017966   -1.875243
     13          6           0       -1.364777    4.347526   -2.407444
     14          6           0       -0.287548    4.979152   -1.588936
     15          8           0       -0.212362    6.161148   -1.337487
     16          8           0        0.669444    3.975268   -1.292558
     17          7           0       -4.450993   -2.061458   -1.672237
     18          6           0       -4.358800   -1.591980   -2.940543
     19          6           0       -4.455236   -2.657171   -3.898727
     20          6           0       -4.576643   -3.874152   -3.125764
     21          6           0       -4.536921   -3.446732   -1.699527
     22          6           0       -4.304640   -2.538486   -5.328526
     23          6           0       -4.729249   -5.262433   -3.722401
     24          8           0       -4.874618   -5.292199   -4.914392
     25          6           0       -4.592974   -6.600184   -3.028978
     26          7           0       -4.105884   -2.781968    1.320134
     27          6           0       -4.520836   -4.030389    0.804702
     28          6           0       -4.816916   -5.008404    2.020332
     29          6           0       -4.676737   -4.097399    3.257978
     30          6           0       -4.211996   -2.729395    2.705429
     31          6           0       -6.204265   -5.769458    2.000041
     32          6           0       -3.726379   -4.737112    4.281851
     33          6           0       -4.502021   -5.101949    5.603037
     34          7           0       -3.919182    0.038597    1.828429
     35          6           0       -3.681522   -0.356119    3.157182
     36          6           0       -3.293318    0.847336    3.934643
     37          6           0       -3.320858    1.850807    2.969987
     38          6           0       -3.611455    1.321234    1.732524
     39          6           0       -2.998496    0.948424    5.419888
     40          6           0       -3.126975    3.279196    2.883313
     41          8           0       -2.919689    4.128119    3.762071
     42          6           0       -3.298968    3.624499    1.407623
     43          6           0       -4.445436    4.570791    1.324505
     44          8           0       -5.608940    4.416753    1.659445
     45          8           0       -3.968989    5.699283    0.717318
     46          6           0       -4.865620    6.802761    0.351919
     47          6           0        1.809494    4.446427   -0.579562
     48          6           0        2.847536    3.319443   -0.361837
     49          6           0        3.986241    3.435671    0.359433
     50          6           0        4.328803    4.641457    1.264742
     51          6           0        4.923370    2.320868    0.438633
     52          6           0        5.564833    1.969794   -0.957373
     53          6           0        4.943036    0.673760   -1.547354
     54          6           0        5.993335   -0.393975   -2.125910
     55          6           0        5.376835   -1.094913   -3.436636
     56          6           0        6.477738   -1.395687   -1.154807
     57          6           0        7.913408   -1.106761   -0.670272
     58          6           0        8.166353   -1.577783    0.738517
     59          6           0        9.430254   -2.465426    0.786854
     60          6           0        9.000487   -3.874550    1.378607
     61          6           0       10.630890   -1.783335    1.514097
     62          6           0       11.390845   -1.032499    0.411022
     63          6           0       12.804645   -0.644343    1.008358
     64          6           0       13.954088   -1.375731    0.122026
     65          6           0       14.262976   -0.400794   -1.089077
     66          6           0       15.181645   -1.701893    0.968550
     67          1           0       -4.349026    0.124135   -4.290193
     68          1           0       -5.048970   -5.220420   -0.737225
     69          1           0       -4.101457   -1.781200    4.630351
     70          1           0       -3.783679    3.943585   -1.391450
     71          1           0       -3.669659    2.321694   -3.823848
     72          1           0       -6.497708    2.069779   -3.051478
     73          1           0       -5.774193    3.125658   -4.288448
     74          1           0       -5.892958    3.721647   -2.594290
     75          1           0       -1.649698    2.137949   -2.458442
     76          1           0       -1.494748    2.927392   -0.875172
     77          1           0       -2.149889    5.033037   -2.726700
     78          1           0       -0.831057    4.042959   -3.308154
     79          1           0       -3.343504   -2.949802   -5.638685
     80          1           0       -4.420838   -1.498071   -5.633939
     81          1           0       -5.032451   -3.131698   -5.882574
     82          1           0       -5.385483   -6.851203   -2.324029
     83          1           0       -3.693026   -6.678110   -2.419691
     84          1           0       -4.383403   -7.337528   -3.803979
     85          1           0       -3.993054   -5.714426    1.915786
     86          1           0       -5.647801   -3.841320    3.682614
     87          1           0       -5.919789   -6.822002    2.013515
     88          1           0       -6.761085   -5.543144    1.089940
     89          1           0       -6.851261   -5.600703    2.860682
     90          1           0       -2.827595   -4.184996    4.555736
     91          1           0       -3.304320   -5.681101    3.937705
     92          1           0       -3.796315   -5.751413    6.122207
     93          1           0       -5.440971   -5.651997    5.534332
     94          1           0       -4.558241   -4.208884    6.224375
     95          1           0       -2.478555    1.870608    5.679717
     96          1           0       -2.485274    0.049306    5.759364
     97          1           0       -3.918405    1.107798    5.982173
     98          1           0       -2.396861    4.023867    0.943924
     99          1           0       -5.765602    6.474728   -0.167115
    100          1           0       -4.377804    7.503820   -0.326092
    101          1           0       -5.241224    7.312523    1.239532
    102          1           0        1.580784    4.669137    0.462879
    103          1           0        2.267089    5.293357   -1.092077
    104          1           0        2.690338    2.393107   -0.914276
    105          1           0        3.589177    5.440177    1.328542
    106          1           0        5.136084    5.162351    0.749049
    107          1           0        4.698848    4.160211    2.169808
    108          1           0        4.318356    1.487324    0.797013
    109          1           0        5.775084    2.372245    1.116149
    110          1           0        6.625710    1.758564   -0.821606
    111          1           0        5.553418    2.788453   -1.676936
    112          1           0        4.198970    1.041513   -2.253425
    113          1           0        4.321265    0.175350   -0.803612
    114          1           0        6.863599    0.168707   -2.463547
    115          1           0        4.331329   -0.884406   -3.659903
    116          1           0        5.535349   -2.171925   -3.369945
    117          1           0        6.013853   -0.732713   -4.242597
    118          1           0        6.366870   -2.450297   -1.407097
    119          1           0        5.856271   -1.433475   -0.260339
    120          1           0        8.101666   -0.032542   -0.661155
    121          1           0        8.584079   -1.393656   -1.479869
    122          1           0        7.338924   -2.079990    1.239317
    123          1           0        8.366208   -0.780230    1.454909
    124          1           0        9.733008   -2.763714   -0.216927
    125          1           0        8.942351   -3.770241    2.461444
    126          1           0        9.797454   -4.602031    1.218257
    127          1           0        8.006950   -4.201727    1.073818
    128          1           0       11.195872   -2.598759    1.964637
    129          1           0       10.225731   -1.070534    2.232633
    130          1           0       10.794915   -0.131279    0.265229
    131          1           0       11.646415   -1.509607   -0.535158
    132          1           0       12.869302   -0.801429    2.084687
    133          1           0       12.749117    0.428567    0.820032
    134          1           0       13.670593   -2.405799   -0.093489
    135          1           0       13.806948   -0.821337   -1.984479
    136          1           0       15.327952   -0.245335   -1.262697
    137          1           0       13.819977    0.583843   -0.943232
    138          1           0       15.130031   -2.789352    1.023319
    139          1           0       15.058294   -1.183208    1.920174
    140          1           0       16.121841   -1.336586    0.555950
 ---------------------------------------------------------------------

 SCF Done:  E(RPBE1PBE) =  -3005.33120736     A.U. after   15 cycles

 Excitation energies and oscillator strengths:

 Excited State   1:      Singlet-A      1.8649 eV  664.83 nm  f=0.3768  <S**2>=0.000
     245 -> 248       -0.16544
     246 -> 247        0.69551
     246 <- 247       -0.11289
 This state for optimization and/or second-order correction.
 Total Energy, E(TD-HF/TD-DFT) =  -3005.26267399
 Copying the excited state density for this state as the 1-particle RhoCI density.

 Excited State   2:      Singlet-A      2.2635 eV  547.74 nm  f=0.1218  <S**2>=0.000
     245 -> 247        0.65437
     246 -> 248        0.25079

 Excited State   3:      Singlet-A      2.8691 eV  432.14 nm  f=0.0045  <S**2>=0.000
     243 -> 247        0.69530

 Excited State   4:      Singlet-A      2.9406 eV  421.63 nm  f=0.0008  <S**2>=0.000
     240 -> 247        0.17833
     241 -> 247        0.64811
     241 -> 249       -0.16231

 Excited State   5:      Singlet-A      3.0104 eV  411.85 nm  f=0.0000  <S**2>=0.000
     244 -> 247        0.70689

 The electronic state is 1-A.
 Alpha  occ. eigenvalues --  -46.91981 -19.25800 -19.25638 -19.21130 -19.20094
 Alpha  occ. eigenvalues --  -19.19032 -19.18462 -14.41398 -14.41257 -14.39145
 Alpha  occ. eigenvalues --  -14.39071 -10.36912 -10.36571 -10.31830 -10.31650
 Alpha  occ. eigenvalues --  -10.29257 -10.29071 -10.28966 -10.28514 -10.28184
 Alpha  occ. eigenvalues --  -10.28165 -10.28110 -10.27889 -10.27325 -10.26646
 Alpha  occ. eigenvalues --  -10.26297 -10.26043 -10.25960 -10.25656 -10.25525
 Alpha  occ. eigenvalues --  -10.25452 -10.25351 -10.25192 -10.25020 -10.24986
 Alpha  occ. eigenvalues --  -10.24635 -10.24549 -10.24501 -10.24423 -10.24360
 Alpha  occ. eigenvalues --  -10.24357 -10.24334 -10.24092 -10.23879 -10.23617
 Alpha  occ. eigenvalues --  -10.23488 -10.23409 -10.23307 -10.23265 -10.22814
 Alpha  occ. eigenvalues --  -10.22694 -10.22691 -10.22479 -10.22445 -10.22428
 Alpha  occ. eigenvalues --  -10.22308 -10.22274 -10.22191 -10.22168 -10.22162
 Alpha  occ. eigenvalues --  -10.21996 -10.21786 -10.21670 -10.21562 -10.21452
 Alpha  occ. eigenvalues --  -10.21295  -3.14108  -1.86947  -1.86485  -1.86330
 Alpha  occ. eigenvalues --   -1.10987  -1.10932  -1.05955  -1.03972  -1.03572
 Alpha  occ. eigenvalues --   -1.02433  -1.00526  -0.98624  -0.97216  -0.95864
 Alpha  occ. eigenvalues --   -0.88200  -0.84788  -0.84345  -0.83838  -0.83591
 Alpha  occ. eigenvalues --   -0.82710  -0.82350  -0.82050  -0.80907  -0.80842
 Alpha  occ. eigenvalues --   -0.80360  -0.80109  -0.78616  -0.77879  -0.77626
 Alpha  occ. eigenvalues --   -0.76481  -0.76202  -0.75604  -0.75254  -0.74496
 Alpha  occ. eigenvalues --   -0.73584  -0.72596  -0.72203  -0.71712  -0.70772
 Alpha  occ. eigenvalues --   -0.69736  -0.69692  -0.69551  -0.68529  -0.67784
 Alpha  occ. eigenvalues --   -0.67731  -0.67117  -0.66348  -0.65077  -0.63440
 Alpha  occ. eigenvalues --   -0.63068  -0.62193  -0.61862  -0.60672  -0.60512
 Alpha  occ. eigenvalues --   -0.60349  -0.59557  -0.59358  -0.59191  -0.58475
 Alpha  occ. eigenvalues --   -0.58156  -0.57724  -0.57192  -0.56792  -0.54771
 Alpha  occ. eigenvalues --   -0.54382  -0.54015  -0.53339  -0.53145  -0.52797
 Alpha  occ. eigenvalues --   -0.52375  -0.51726  -0.51009  -0.50497  -0.50442
 Alpha  occ. eigenvalues --   -0.50224  -0.49178  -0.48902  -0.48684  -0.48518
 Alpha  occ. eigenvalues --   -0.48340  -0.47659  -0.47480  -0.47334  -0.47074
 Alpha  occ. eigenvalues --   -0.46974  -0.46789  -0.46683  -0.46266  -0.46027
 Alpha  occ. eigenvalues --   -0.45938  -0.45552  -0.45439  -0.45215  -0.44847
 Alpha  occ. eigenvalues --   -0.44710  -0.44530  -0.44474  -0.44370  -0.44078
 Alpha  occ. eigenvalues --   -0.43997  -0.43795  -0.43644  -0.43463  -0.43322
 Alpha  occ. eigenvalues --   -0.43232  -0.43210  -0.42974  -0.42467  -0.42162
 Alpha  occ. eigenvalues --   -0.41932  -0.41665  -0.41530  -0.41470  -0.41348
 Alpha  occ. eigenvalues --   -0.41259  -0.40856  -0.40763  -0.40680  -0.40428
 Alpha  occ. eigenvalues --   -0.40295  -0.40157  -0.40056  -0.39997  -0.39821
 Alpha  occ. eigenvalues --   -0.39612  -0.39563  -0.39144  -0.39051  -0.38817
 Alpha  occ. eigenvalues --   -0.38720  -0.38496  -0.38387  -0.38060  -0.38005
 Alpha  occ. eigenvalues --   -0.37916  -0.37524  -0.37375  -0.37271  -0.36980
 Alpha  occ. eigenvalues --   -0.36896  -0.36838  -0.36584  -0.36441  -0.36324
 Alpha  occ. eigenvalues --   -0.36109  -0.35805  -0.35678  -0.35380  -0.35223
 Alpha  occ. eigenvalues --   -0.34816  -0.34327  -0.34249  -0.33984  -0.33162
 Alpha  occ. eigenvalues --   -0.33063  -0.32824  -0.32748  -0.32403  -0.32242
 Alpha  occ. eigenvalues --   -0.32115  -0.31973  -0.31512  -0.31492  -0.31384
 Alpha  occ. eigenvalues --   -0.31223  -0.29576  -0.29506  -0.29365  -0.29073
 Alpha  occ. eigenvalues --   -0.28518  -0.28313  -0.27767  -0.27124  -0.25812
 Alpha  occ. eigenvalues --   -0.25683  -0.25434  -0.24754  -0.23922  -0.21189
 Alpha  occ. eigenvalues --   -0.18950
 Alpha virt. eigenvalues --   -0.11371  -0.05025  -0.03450  -0.01980  -0.00452
 Alpha virt. eigenvalues --   -0.00103   0.00853   0.01273   0.01704   0.03307
 Alpha virt. eigenvalues --    0.04163   0.04632   0.05136   0.05234   0.05581

 Mulliken charges:
               1
     1  Mg   0.965731
     2  C   -0.143869
     3  C   -0.059352
     4  C   -0.080724
     5  C   -0.076436
     6  N   -0.323103
     7  C    0.030968
     8  C   -0.158302
     9  C   -0.096391
    10  C    0.016714
    11  C    0.042837
    12  C    0.024105
    13  C    0.042225
    14  C    0.215977
    15  O   -0.232415
    16  O   -0.393286
    17  N   -0.482624
    18  C    0.169770
    19  C   -0.170061
    20  C   -0.072047
    21  C    0.200271
    22  C    0.077328
    23  C    0.041896
    24  O   -0.232660
    25  C   -0.030301
    26  N   -0.439894
    27  C    0.032593
    28  C   -0.069498
    29  C   -0.090500
    30  C    0.119693
    31  C   -0.001661
    32  C   -0.025852
    33  C   -0.092165
    34  N   -0.498285
    35  C    0.103104
    36  C   -0.182219
    37  C   -0.056195
    38  C    0.253463
    39  C    0.071115
    40  C    0.127985
    41  O   -0.231921
    42  C   -0.037657
    43  C    0.296917
    44  O   -0.243514
    45  O   -0.370253
    46  C    0.128258
    47  C    0.236184
    48  C   -0.159128
    49  C   -0.214189
    50  C    0.029045
    51  C   -0.002301
    52  C   -0.049237
    53  C   -0.020229
    54  C   -0.211259
    55  C   -0.022577
    56  C    0.035726
    57  C   -0.063921
    58  C    0.036942
    59  C   -0.254099
    60  C   -0.029458
    61  C    0.018025
    62  C   -0.080480
    63  C   -0.018450
    64  C   -0.265596
    65  C   -0.010118
    66  C   -0.002251
    67  H   -0.003949
    68  H   -0.009026
    69  H    0.020687
    70  H    0.027782
    71  H    0.030338
    72  H    0.058520
    73  H    0.050790
    74  H    0.052645
    75  H    0.041857
    76  H    0.060368
    77  H    0.056975
    78  H    0.064293
    79  H    0.059393
    80  H    0.024061
    81  H    0.064072
    82  H    0.070796
    83  H    0.047993
    84  H    0.057416
    85  H    0.059993
    86  H    0.057742
    87  H    0.042584
    88  H    0.051167
    89  H    0.049257
    90  H    0.044471
    91  H    0.034657
    92  H    0.031718
    93  H    0.051637
    94  H    0.045368
    95  H    0.057352
    96  H    0.049205
    97  H    0.056283
    98  H    0.070595
    99  H    0.045809
   100  H    0.067119
   101  H    0.063177
   102  H    0.061112
   103  H    0.059410
   104  H    0.028064
   105  H    0.041470
   106  H    0.043268
   107  H    0.059327
   108  H    0.057290
   109  H    0.022545
   110  H    0.020071
   111  H    0.040744
   112  H    0.033997
   113  H    0.024336
   114  H    0.039764
   115  H    0.042645
   116  H    0.027677
   117  H    0.032430
   118  H    0.022567
   119  H    0.008348
   120  H    0.021687
   121  H    0.034894
   122  H    0.020869
   123  H    0.008598
   124  H    0.039068
   125  H    0.019488
   126  H    0.032501
   127  H    0.039144
   128  H    0.025341
   129  H    0.035018
   130  H    0.028731
   131  H    0.042744
   132  H    0.033768
   133  H    0.026497
   134  H    0.038286
   135  H    0.039922
   136  H    0.037258
   137  H    0.036959
   138  H    0.036340
   139  H    0.032705
   140  H    0.029583
 Sum of Mulliken charges =  -0.00000

 Dipole moment (field-independent basis, Debye):
    X=              0.7806    Y=             -3.1357    Z=             -0.0852  Tot=              3.2325
 Quadrupole moment (field-independent basis, Debye-Ang):
   XX=           -388.3651   YY=           -402.7928   ZZ=           -409.3738
   XY=             11.8717   XZ=             -3.9918   YZ=            -47.5193

 Normal termination of Gaussian 16 at Sat Apr 30 22:28:20 2022.
