 Gaussian 16, Revision A.03,
 Gaussian 16:  ES64L-G16RevA.03 25-Dec-2016

 --------------------------------
 #p wB97XD/Def2SVP td=(nstates=5)
 --------------------------------

 ---------------------------------------------------
 step_901_chromophore_8 TDDFT with wB97XD functional
 ---------------------------------------------------
 Symbolic Z-matrix:
 Charge =  0 Multiplicity = 1

                         Standard orientation:
 ---------------------------------------------------------------------
 Center     Atomic      Atomic             Coordinates (Angstroms)
 Number     Number       Type             X           Y           Z
 ---------------------------------------------------------------------
      1         12           0       -4.389391   -1.019824    0.146744
      2          6           0       -3.537293    2.311782    0.741510
      3          6           0       -4.271985   -0.188683   -3.247019
      4          6           0       -4.629774   -4.228938   -0.554352
      5          6           0       -3.916082   -1.705316    3.556834
      6          7           0       -4.099075    0.841496   -1.066594
      7          6           0       -3.791843    2.049532   -0.600803
      8          6           0       -3.447882    2.973580   -1.757095
      9          6           0       -4.275746    2.316859   -2.917568
     10          6           0       -4.217237    0.906383   -2.395777
     11          6           0       -5.758877    2.849915   -3.234298
     12          6           0       -1.918883    3.017966   -1.875243
     13          6           0       -1.364777    4.347526   -2.407444
     14          6           0       -0.287548    4.979152   -1.588936
     15          8           0       -0.212362    6.161148   -1.337487
     16          8           0        0.669444    3.975268   -1.292558
     17          7           0       -4.450993   -2.061458   -1.672237
     18          6           0       -4.358800   -1.591980   -2.940543
     19          6           0       -4.455236   -2.657171   -3.898727
     20          6           0       -4.576643   -3.874152   -3.125764
     21          6           0       -4.536921   -3.446732   -1.699527
     22          6           0       -4.304640   -2.538486   -5.328526
     23          6           0       -4.729249   -5.262433   -3.722401
     24          8           0       -4.874618   -5.292199   -4.914392
     25          6           0       -4.592974   -6.600184   -3.028978
     26          7           0       -4.105884   -2.781968    1.320134
     27          6           0       -4.520836   -4.030389    0.804702
     28          6           0       -4.816916   -5.008404    2.020332
     29          6           0       -4.676737   -4.097399    3.257978
     30          6           0       -4.211996   -2.729395    2.705429
     31          6           0       -6.204265   -5.769458    2.000041
     32          6           0       -3.726379   -4.737112    4.281851
     33          6           0       -4.502021   -5.101949    5.603037
     34          7           0       -3.919182    0.038597    1.828429
     35          6           0       -3.681522   -0.356119    3.157182
     36          6           0       -3.293318    0.847336    3.934643
     37          6           0       -3.320858    1.850807    2.969987
     38          6           0       -3.611455    1.321234    1.732524
     39          6           0       -2.998496    0.948424    5.419888
     40          6           0       -3.126975    3.279196    2.883313
     41          8           0       -2.919689    4.128119    3.762071
     42          6           0       -3.298968    3.624499    1.407623
     43          6           0       -4.445436    4.570791    1.324505
     44          8           0       -5.608940    4.416753    1.659445
     45          8           0       -3.968989    5.699283    0.717318
     46          6           0       -4.865620    6.802761    0.351919
     47          6           0        1.809494    4.446427   -0.579562
     48          6           0        2.847536    3.319443   -0.361837
     49          6           0        3.986241    3.435671    0.359433
     50          6           0        4.328803    4.641457    1.264742
     51          6           0        4.923370    2.320868    0.438633
     52          6           0        5.564833    1.969794   -0.957373
     53          6           0        4.943036    0.673760   -1.547354
     54          6           0        5.993335   -0.393975   -2.125910
     55          6           0        5.376835   -1.094913   -3.436636
     56          6           0        6.477738   -1.395687   -1.154807
     57          6           0        7.913408   -1.106761   -0.670272
     58          6           0        8.166353   -1.577783    0.738517
     59          6           0        9.430254   -2.465426    0.786854
     60          6           0        9.000487   -3.874550    1.378607
     61          6           0       10.630890   -1.783335    1.514097
     62          6           0       11.390845   -1.032499    0.411022
     63          6           0       12.804645   -0.644343    1.008358
     64          6           0       13.954088   -1.375731    0.122026
     65          6           0       14.262976   -0.400794   -1.089077
     66          6           0       15.181645   -1.701893    0.968550
     67          1           0       -4.349026    0.124135   -4.290193
     68          1           0       -5.048970   -5.220420   -0.737225
     69          1           0       -4.101457   -1.781200    4.630351
     70          1           0       -3.783679    3.943585   -1.391450
     71          1           0       -3.669659    2.321694   -3.823848
     72          1           0       -6.497708    2.069779   -3.051478
     73          1           0       -5.774193    3.125658   -4.288448
     74          1           0       -5.892958    3.721647   -2.594290
     75          1           0       -1.649698    2.137949   -2.458442
     76          1           0       -1.494748    2.927392   -0.875172
     77          1           0       -2.149889    5.033037   -2.726700
     78          1           0       -0.831057    4.042959   -3.308154
     79          1           0       -3.343504   -2.949802   -5.638685
     80          1           0       -4.420838   -1.498071   -5.633939
     81          1           0       -5.032451   -3.131698   -5.882574
     82          1           0       -5.385483   -6.851203   -2.324029
     83          1           0       -3.693026   -6.678110   -2.419691
     84          1           0       -4.383403   -7.337528   -3.803979
     85          1           0       -3.993054   -5.714426    1.915786
     86          1           0       -5.647801   -3.841320    3.682614
     87          1           0       -5.919789   -6.822002    2.013515
     88          1           0       -6.761085   -5.543144    1.089940
     89          1           0       -6.851261   -5.600703    2.860682
     90          1           0       -2.827595   -4.184996    4.555736
     91          1           0       -3.304320   -5.681101    3.937705
     92          1           0       -3.796315   -5.751413    6.122207
     93          1           0       -5.440971   -5.651997    5.534332
     94          1           0       -4.558241   -4.208884    6.224375
     95          1           0       -2.478555    1.870608    5.679717
     96          1           0       -2.485274    0.049306    5.759364
     97          1           0       -3.918405    1.107798    5.982173
     98          1           0       -2.396861    4.023867    0.943924
     99          1           0       -5.765602    6.474728   -0.167115
    100          1           0       -4.377804    7.503820   -0.326092
    101          1           0       -5.241224    7.312523    1.239532
    102          1           0        1.580784    4.669137    0.462879
    103          1           0        2.267089    5.293357   -1.092077
    104          1           0        2.690338    2.393107   -0.914276
    105          1           0        3.589177    5.440177    1.328542
    106          1           0        5.136084    5.162351    0.749049
    107          1           0        4.698848    4.160211    2.169808
    108          1           0        4.318356    1.487324    0.797013
    109          1           0        5.775084    2.372245    1.116149
    110          1           0        6.625710    1.758564   -0.821606
    111          1           0        5.553418    2.788453   -1.676936
    112          1           0        4.198970    1.041513   -2.253425
    113          1           0        4.321265    0.175350   -0.803612
    114          1           0        6.863599    0.168707   -2.463547
    115          1           0        4.331329   -0.884406   -3.659903
    116          1           0        5.535349   -2.171925   -3.369945
    117          1           0        6.013853   -0.732713   -4.242597
    118          1           0        6.366870   -2.450297   -1.407097
    119          1           0        5.856271   -1.433475   -0.260339
    120          1           0        8.101666   -0.032542   -0.661155
    121          1           0        8.584079   -1.393656   -1.479869
    122          1           0        7.338924   -2.079990    1.239317
    123          1           0        8.366208   -0.780230    1.454909
    124          1           0        9.733008   -2.763714   -0.216927
    125          1           0        8.942351   -3.770241    2.461444
    126          1           0        9.797454   -4.602031    1.218257
    127          1           0        8.006950   -4.201727    1.073818
    128          1           0       11.195872   -2.598759    1.964637
    129          1           0       10.225731   -1.070534    2.232633
    130          1           0       10.794915   -0.131279    0.265229
    131          1           0       11.646415   -1.509607   -0.535158
    132          1           0       12.869302   -0.801429    2.084687
    133          1           0       12.749117    0.428567    0.820032
    134          1           0       13.670593   -2.405799   -0.093489
    135          1           0       13.806948   -0.821337   -1.984479
    136          1           0       15.327952   -0.245335   -1.262697
    137          1           0       13.819977    0.583843   -0.943232
    138          1           0       15.130031   -2.789352    1.023319
    139          1           0       15.058294   -1.183208    1.920174
    140          1           0       16.121841   -1.336586    0.555950
 ---------------------------------------------------------------------

 SCF Done:  E(RwB97XD) =  -3007.83980649     A.U. after   18 cycles

 Excitation energies and oscillator strengths:

 Excited State   1:      Singlet-A      1.6393 eV  756.34 nm  f=0.3861  <S**2>=0.000
     245 -> 248       -0.17829
     246 -> 247        0.68585
     245 <- 248       -0.11676
 This state for optimization and/or second-order correction.
 Total Energy, E(TD-HF/TD-DFT) =  -3007.77956432
 Copying the excited state density for this state as the 1-particle RhoCI density.

 Excited State   2:      Singlet-A      2.1953 eV  564.76 nm  f=0.1256  <S**2>=0.000
     245 -> 247        0.64358
     246 -> 248        0.27761

 Excited State   3:      Singlet-A      3.2871 eV  377.18 nm  f=0.0015  <S**2>=0.000
     242 -> 247       -0.10461
     243 -> 247        0.67355

 Excited State   4:      Singlet-A      3.4244 eV  362.06 nm  f=0.0051  <S**2>=0.000
     240 -> 247        0.42924
     240 -> 249       -0.26594
     240 -> 250       -0.13870
     242 -> 247       -0.41365
     246 -> 248        0.16263

 Excited State   5:      Singlet-A      3.5008 eV  354.16 nm  f=0.0038  <S**2>=0.000
     239 -> 247        0.10086
     240 -> 247        0.37326
     240 -> 249       -0.21884
     240 -> 250       -0.11124
     242 -> 247        0.49926
     246 -> 248       -0.13677

 The electronic state is 1-A.
 Alpha  occ. eigenvalues --  -46.94952 -19.30377 -19.30276 -19.25837 -19.24903
 Alpha  occ. eigenvalues --  -19.23981 -19.23182 -14.46577 -14.46261 -14.44075
 Alpha  occ. eigenvalues --  -14.44050 -10.43725 -10.43489 -10.38635 -10.38567
 Alpha  occ. eigenvalues --  -10.35638 -10.35535 -10.35473 -10.34827 -10.34550
 Alpha  occ. eigenvalues --  -10.34503 -10.34447 -10.34153 -10.33570 -10.32854
 Alpha  occ. eigenvalues --  -10.32547 -10.32466 -10.32449 -10.32053 -10.31937
 Alpha  occ. eigenvalues --  -10.31772 -10.31669 -10.31589 -10.31437 -10.31360
 Alpha  occ. eigenvalues --  -10.31016 -10.31002 -10.30763 -10.30729 -10.30724
 Alpha  occ. eigenvalues --  -10.30704 -10.30702 -10.30454 -10.30119 -10.30118
 Alpha  occ. eigenvalues --  -10.29927 -10.29766 -10.29723 -10.29691 -10.29183
 Alpha  occ. eigenvalues --  -10.29087 -10.29056 -10.28805 -10.28789 -10.28732
 Alpha  occ. eigenvalues --  -10.28662 -10.28635 -10.28585 -10.28581 -10.28577
 Alpha  occ. eigenvalues --  -10.28375 -10.28143 -10.28085 -10.27940 -10.27877
 Alpha  occ. eigenvalues --  -10.27699  -3.20932  -1.94520  -1.94059  -1.93903
 Alpha  occ. eigenvalues --   -1.18414  -1.18388  -1.13335  -1.11331  -1.11188
 Alpha  occ. eigenvalues --   -1.09890  -1.07950  -1.06035  -1.04549  -1.03260
 Alpha  occ. eigenvalues --   -0.95900  -0.92459  -0.92003  -0.91502  -0.91174
 Alpha  occ. eigenvalues --   -0.90295  -0.90015  -0.89657  -0.88531  -0.88501
 Alpha  occ. eigenvalues --   -0.87993  -0.87732  -0.86256  -0.85537  -0.85265
 Alpha  occ. eigenvalues --   -0.84139  -0.83874  -0.83271  -0.82906  -0.82161
 Alpha  occ. eigenvalues --   -0.81266  -0.80274  -0.79817  -0.79348  -0.78409
 Alpha  occ. eigenvalues --   -0.77384  -0.77327  -0.77222  -0.76214  -0.75436
 Alpha  occ. eigenvalues --   -0.75307  -0.74698  -0.73902  -0.72697  -0.71019
 Alpha  occ. eigenvalues --   -0.70635  -0.69832  -0.69388  -0.68203  -0.68125
 Alpha  occ. eigenvalues --   -0.67864  -0.67202  -0.66814  -0.66635  -0.66117
 Alpha  occ. eigenvalues --   -0.65704  -0.65389  -0.64648  -0.64425  -0.62270
 Alpha  occ. eigenvalues --   -0.61838  -0.61447  -0.60864  -0.60645  -0.60214
 Alpha  occ. eigenvalues --   -0.59800  -0.59255  -0.58381  -0.57918  -0.57812
 Alpha  occ. eigenvalues --   -0.57653  -0.56584  -0.56371  -0.56132  -0.55981
 Alpha  occ. eigenvalues --   -0.55719  -0.55100  -0.54763  -0.54736  -0.54454
 Alpha  occ. eigenvalues --   -0.54341  -0.54123  -0.54018  -0.53675  -0.53482
 Alpha  occ. eigenvalues --   -0.53311  -0.52908  -0.52830  -0.52578  -0.52172
 Alpha  occ. eigenvalues --   -0.52026  -0.51875  -0.51855  -0.51686  -0.51419
 Alpha  occ. eigenvalues --   -0.51298  -0.51112  -0.50970  -0.50784  -0.50629
 Alpha  occ. eigenvalues --   -0.50551  -0.50493  -0.50200  -0.49786  -0.49362
 Alpha  occ. eigenvalues --   -0.49231  -0.48945  -0.48806  -0.48739  -0.48597
 Alpha  occ. eigenvalues --   -0.48396  -0.48070  -0.48005  -0.47879  -0.47656
 Alpha  occ. eigenvalues --   -0.47543  -0.47349  -0.47288  -0.47195  -0.47046
 Alpha  occ. eigenvalues --   -0.46796  -0.46788  -0.46319  -0.46198  -0.45999
 Alpha  occ. eigenvalues --   -0.45843  -0.45657  -0.45512  -0.45190  -0.45154
 Alpha  occ. eigenvalues --   -0.44931  -0.44682  -0.44543  -0.44509  -0.44134
 Alpha  occ. eigenvalues --   -0.44023  -0.43962  -0.43687  -0.43604  -0.43369
 Alpha  occ. eigenvalues --   -0.43206  -0.42836  -0.42809  -0.42414  -0.42318
 Alpha  occ. eigenvalues --   -0.41825  -0.41334  -0.41239  -0.41035  -0.40148
 Alpha  occ. eigenvalues --   -0.40064  -0.39898  -0.39716  -0.39478  -0.39244
 Alpha  occ. eigenvalues --   -0.39167  -0.39035  -0.38604  -0.38521  -0.38268
 Alpha  occ. eigenvalues --   -0.38253  -0.36749  -0.36528  -0.36307  -0.35961
 Alpha  occ. eigenvalues --   -0.35218  -0.35169  -0.34608  -0.33729  -0.32959
 Alpha  occ. eigenvalues --   -0.32537  -0.32398  -0.31275  -0.30704  -0.26180
 Alpha  occ. eigenvalues --   -0.23118
 Alpha virt. eigenvalues --   -0.07298   0.00431   0.02826   0.04541   0.05541
 Alpha virt. eigenvalues --    0.06596   0.07597   0.07957   0.08389   0.09825
 Alpha virt. eigenvalues --    0.10727   0.11349   0.11851   0.12001   0.12349

 Mulliken charges:
               1
     1  Mg   0.957164
     2  C   -0.145098
     3  C   -0.075234
     4  C   -0.087552
     5  C   -0.099838
     6  N   -0.285338
     7  C   -0.012288
     8  C   -0.117913
     9  C   -0.072275
    10  C    0.000542
    11  C    0.051653
    12  C    0.033698
    13  C    0.057113
    14  C    0.208635
    15  O   -0.229569
    16  O   -0.392275
    17  N   -0.449263
    18  C    0.157957
    19  C   -0.157257
    20  C   -0.067970
    21  C    0.199190
    22  C    0.088714
    23  C    0.037006
    24  O   -0.229883
    25  C   -0.020832
    26  N   -0.414874
    27  C    0.017401
    28  C   -0.043934
    29  C   -0.063476
    30  C    0.113090
    31  C    0.008654
    32  C   -0.014426
    33  C   -0.074088
    34  N   -0.459117
    35  C    0.097327
    36  C   -0.182789
    37  C   -0.047277
    38  C    0.232678
    39  C    0.081282
    40  C    0.109613
    41  O   -0.219875
    42  C    0.006975
    43  C    0.270922
    44  O   -0.236586
    45  O   -0.367905
    46  C    0.142454
    47  C    0.248619
    48  C   -0.167628
    49  C   -0.199319
    50  C    0.044296
    51  C    0.015324
    52  C   -0.030432
    53  C   -0.007572
    54  C   -0.176358
    55  C   -0.008840
    56  C    0.045952
    57  C   -0.041382
    58  C    0.048130
    59  C   -0.223998
    60  C   -0.013776
    61  C    0.034167
    62  C   -0.062893
    63  C   -0.002587
    64  C   -0.236070
    65  C    0.001941
    66  C    0.008644
    67  H   -0.010623
    68  H   -0.024175
    69  H    0.015721
    70  H    0.006675
    71  H    0.020414
    72  H    0.053415
    73  H    0.045972
    74  H    0.046572
    75  H    0.035470
    76  H    0.045903
    77  H    0.053198
    78  H    0.057797
    79  H    0.054808
    80  H    0.017815
    81  H    0.059968
    82  H    0.067670
    83  H    0.043074
    84  H    0.055946
    85  H    0.049641
    86  H    0.045293
    87  H    0.037081
    88  H    0.045248
    89  H    0.043979
    90  H    0.037881
    91  H    0.026300
    92  H    0.025663
    93  H    0.045488
    94  H    0.038058
    95  H    0.053892
    96  H    0.044711
    97  H    0.051667
    98  H    0.061710
    99  H    0.041763
   100  H    0.064550
   101  H    0.059643
   102  H    0.053203
   103  H    0.054775
   104  H    0.022132
   105  H    0.037057
   106  H    0.036472
   107  H    0.053698
   108  H    0.047470
   109  H    0.017496
   110  H    0.007253
   111  H    0.033317
   112  H    0.024698
   113  H    0.013068
   114  H    0.025778
   115  H    0.037530
   116  H    0.020950
   117  H    0.026648
   118  H    0.014284
   119  H   -0.003462
   120  H    0.008421
   121  H    0.025976
   122  H    0.011703
   123  H   -0.000365
   124  H    0.023582
   125  H    0.011619
   126  H    0.026865
   127  H    0.032801
   128  H    0.016126
   129  H    0.026113
   130  H    0.018555
   131  H    0.031618
   132  H    0.025234
   133  H    0.016378
   134  H    0.027023
   135  H    0.033963
   136  H    0.031616
   137  H    0.030136
   138  H    0.031291
   139  H    0.025787
   140  H    0.023644
 Sum of Mulliken charges =  -0.00000

 Dipole moment (field-independent basis, Debye):
    X=              0.7880    Y=             -3.0216    Z=             -0.0379  Tot=              3.1229
 Quadrupole moment (field-independent basis, Debye-Ang):
   XX=           -388.0621   YY=           -402.0432   ZZ=           -409.1817
   XY=             11.3269   XZ=             -4.0603   YZ=            -47.0057

 Normal termination of Gaussian 16 at Sat Apr 30 22:54:18 2022.
