 Gaussian 16, Revision A.03,
 Gaussian 16:  ES64L-G16RevA.03 25-Dec-2016

 --------------------
 #p ZINDO=(nstates=5)
 --------------------

 ----------------------------
 step_901_chromophore_8 ZINDO
 ----------------------------
 Symbolic Z-matrix:
 Charge =  0 Multiplicity = 1

                         Standard orientation:
 ---------------------------------------------------------------------
 Center     Atomic      Atomic             Coordinates (Angstroms)
 Number     Number       Type             X           Y           Z
 ---------------------------------------------------------------------
      1         12           0       -4.389391   -1.019824    0.146744
      2          6           0       -3.537293    2.311782    0.741510
      3          6           0       -4.271985   -0.188683   -3.247019
      4          6           0       -4.629774   -4.228938   -0.554352
      5          6           0       -3.916082   -1.705316    3.556834
      6          7           0       -4.099075    0.841496   -1.066594
      7          6           0       -3.791843    2.049532   -0.600803
      8          6           0       -3.447882    2.973580   -1.757095
      9          6           0       -4.275746    2.316859   -2.917568
     10          6           0       -4.217237    0.906383   -2.395777
     11          6           0       -5.758877    2.849915   -3.234298
     12          6           0       -1.918883    3.017966   -1.875243
     13          6           0       -1.364777    4.347526   -2.407444
     14          6           0       -0.287548    4.979152   -1.588936
     15          8           0       -0.212362    6.161148   -1.337487
     16          8           0        0.669444    3.975268   -1.292558
     17          7           0       -4.450993   -2.061458   -1.672237
     18          6           0       -4.358800   -1.591980   -2.940543
     19          6           0       -4.455236   -2.657171   -3.898727
     20          6           0       -4.576643   -3.874152   -3.125764
     21          6           0       -4.536921   -3.446732   -1.699527
     22          6           0       -4.304640   -2.538486   -5.328526
     23          6           0       -4.729249   -5.262433   -3.722401
     24          8           0       -4.874618   -5.292199   -4.914392
     25          6           0       -4.592974   -6.600184   -3.028978
     26          7           0       -4.105884   -2.781968    1.320134
     27          6           0       -4.520836   -4.030389    0.804702
     28          6           0       -4.816916   -5.008404    2.020332
     29          6           0       -4.676737   -4.097399    3.257978
     30          6           0       -4.211996   -2.729395    2.705429
     31          6           0       -6.204265   -5.769458    2.000041
     32          6           0       -3.726379   -4.737112    4.281851
     33          6           0       -4.502021   -5.101949    5.603037
     34          7           0       -3.919182    0.038597    1.828429
     35          6           0       -3.681522   -0.356119    3.157182
     36          6           0       -3.293318    0.847336    3.934643
     37          6           0       -3.320858    1.850807    2.969987
     38          6           0       -3.611455    1.321234    1.732524
     39          6           0       -2.998496    0.948424    5.419888
     40          6           0       -3.126975    3.279196    2.883313
     41          8           0       -2.919689    4.128119    3.762071
     42          6           0       -3.298968    3.624499    1.407623
     43          6           0       -4.445436    4.570791    1.324505
     44          8           0       -5.608940    4.416753    1.659445
     45          8           0       -3.968989    5.699283    0.717318
     46          6           0       -4.865620    6.802761    0.351919
     47          6           0        1.809494    4.446427   -0.579562
     48          6           0        2.847536    3.319443   -0.361837
     49          6           0        3.986241    3.435671    0.359433
     50          6           0        4.328803    4.641457    1.264742
     51          6           0        4.923370    2.320868    0.438633
     52          6           0        5.564833    1.969794   -0.957373
     53          6           0        4.943036    0.673760   -1.547354
     54          6           0        5.993335   -0.393975   -2.125910
     55          6           0        5.376835   -1.094913   -3.436636
     56          6           0        6.477738   -1.395687   -1.154807
     57          6           0        7.913408   -1.106761   -0.670272
     58          6           0        8.166353   -1.577783    0.738517
     59          6           0        9.430254   -2.465426    0.786854
     60          6           0        9.000487   -3.874550    1.378607
     61          6           0       10.630890   -1.783335    1.514097
     62          6           0       11.390845   -1.032499    0.411022
     63          6           0       12.804645   -0.644343    1.008358
     64          6           0       13.954088   -1.375731    0.122026
     65          6           0       14.262976   -0.400794   -1.089077
     66          6           0       15.181645   -1.701893    0.968550
     67          1           0       -4.349026    0.124135   -4.290193
     68          1           0       -5.048970   -5.220420   -0.737225
     69          1           0       -4.101457   -1.781200    4.630351
     70          1           0       -3.783679    3.943585   -1.391450
     71          1           0       -3.669659    2.321694   -3.823848
     72          1           0       -6.497708    2.069779   -3.051478
     73          1           0       -5.774193    3.125658   -4.288448
     74          1           0       -5.892958    3.721647   -2.594290
     75          1           0       -1.649698    2.137949   -2.458442
     76          1           0       -1.494748    2.927392   -0.875172
     77          1           0       -2.149889    5.033037   -2.726700
     78          1           0       -0.831057    4.042959   -3.308154
     79          1           0       -3.343504   -2.949802   -5.638685
     80          1           0       -4.420838   -1.498071   -5.633939
     81          1           0       -5.032451   -3.131698   -5.882574
     82          1           0       -5.385483   -6.851203   -2.324029
     83          1           0       -3.693026   -6.678110   -2.419691
     84          1           0       -4.383403   -7.337528   -3.803979
     85          1           0       -3.993054   -5.714426    1.915786
     86          1           0       -5.647801   -3.841320    3.682614
     87          1           0       -5.919789   -6.822002    2.013515
     88          1           0       -6.761085   -5.543144    1.089940
     89          1           0       -6.851261   -5.600703    2.860682
     90          1           0       -2.827595   -4.184996    4.555736
     91          1           0       -3.304320   -5.681101    3.937705
     92          1           0       -3.796315   -5.751413    6.122207
     93          1           0       -5.440971   -5.651997    5.534332
     94          1           0       -4.558241   -4.208884    6.224375
     95          1           0       -2.478555    1.870608    5.679717
     96          1           0       -2.485274    0.049306    5.759364
     97          1           0       -3.918405    1.107798    5.982173
     98          1           0       -2.396861    4.023867    0.943924
     99          1           0       -5.765602    6.474728   -0.167115
    100          1           0       -4.377804    7.503820   -0.326092
    101          1           0       -5.241224    7.312523    1.239532
    102          1           0        1.580784    4.669137    0.462879
    103          1           0        2.267089    5.293357   -1.092077
    104          1           0        2.690338    2.393107   -0.914276
    105          1           0        3.589177    5.440177    1.328542
    106          1           0        5.136084    5.162351    0.749049
    107          1           0        4.698848    4.160211    2.169808
    108          1           0        4.318356    1.487324    0.797013
    109          1           0        5.775084    2.372245    1.116149
    110          1           0        6.625710    1.758564   -0.821606
    111          1           0        5.553418    2.788453   -1.676936
    112          1           0        4.198970    1.041513   -2.253425
    113          1           0        4.321265    0.175350   -0.803612
    114          1           0        6.863599    0.168707   -2.463547
    115          1           0        4.331329   -0.884406   -3.659903
    116          1           0        5.535349   -2.171925   -3.369945
    117          1           0        6.013853   -0.732713   -4.242597
    118          1           0        6.366870   -2.450297   -1.407097
    119          1           0        5.856271   -1.433475   -0.260339
    120          1           0        8.101666   -0.032542   -0.661155
    121          1           0        8.584079   -1.393656   -1.479869
    122          1           0        7.338924   -2.079990    1.239317
    123          1           0        8.366208   -0.780230    1.454909
    124          1           0        9.733008   -2.763714   -0.216927
    125          1           0        8.942351   -3.770241    2.461444
    126          1           0        9.797454   -4.602031    1.218257
    127          1           0        8.006950   -4.201727    1.073818
    128          1           0       11.195872   -2.598759    1.964637
    129          1           0       10.225731   -1.070534    2.232633
    130          1           0       10.794915   -0.131279    0.265229
    131          1           0       11.646415   -1.509607   -0.535158
    132          1           0       12.869302   -0.801429    2.084687
    133          1           0       12.749117    0.428567    0.820032
    134          1           0       13.670593   -2.405799   -0.093489
    135          1           0       13.806948   -0.821337   -1.984479
    136          1           0       15.327952   -0.245335   -1.262697
    137          1           0       13.819977    0.583843   -0.943232
    138          1           0       15.130031   -2.789352    1.023319
    139          1           0       15.058294   -1.183208    1.920174
    140          1           0       16.121841   -1.336586    0.555950
 ---------------------------------------------------------------------

 SCF Done:  E(RZINDO/S) =  -474.413379218     A.U. after   20 cycles

 Excitation energies and oscillator strengths:

 Excited State   1:      Singlet-A      1.2302 eV 1007.82 nm  f=0.6244  <S**2>=0.000
     175 ->178         0.18957
     176 ->177         0.66339
 This state for optimization and/or second-order correction.
 Total Energy, E(CIS/TDA) =  -474.368169185
 Copying the excited state density for this state as the 1-particle RhoCI density.

 Excited State   2:      Singlet-A      1.9191 eV  646.06 nm  f=0.0627  <S**2>=0.000
     175 ->177         0.56162
     176 ->178        -0.40438

 Excited State   3:      Singlet-A      2.9021 eV  427.23 nm  f=0.0127  <S**2>=0.000
     168 ->177         0.34081
     168 ->179         0.38889
     168 ->180        -0.21099
     168 ->182         0.10483
     168 ->183         0.11285
     168 ->185         0.15741
     168 ->187         0.10820
     169 ->177        -0.12665
     169 ->179        -0.10891
     171 ->177        -0.11017

 Excited State   4:      Singlet-A      2.9373 eV  422.10 nm  f=0.0005  <S**2>=0.000
     168 ->180        -0.10417
     169 ->177         0.21786
     169 ->178        -0.15682
     169 ->179        -0.26903
     169 ->180        -0.26838
     169 ->182         0.13744
     169 ->185        -0.22904
     169 ->187         0.11473
     170 ->177         0.12352
     170 ->179        -0.14212
     170 ->180        -0.14561
     170 ->185        -0.12065

 Excited State   5:      Singlet-A      3.0488 eV  406.67 nm  f=1.1294  <S**2>=0.000
     171 ->177        -0.12608
     175 ->177         0.36718
     176 ->178         0.53911

 The electronic state is 1-A.
 Alpha  occ. eigenvalues --   -1.87833  -1.82488  -1.78776  -1.73074  -1.72726
 Alpha  occ. eigenvalues --   -1.70736  -1.65857  -1.61542  -1.60612  -1.59181
 Alpha  occ. eigenvalues --   -1.55192  -1.51191  -1.48626  -1.48141  -1.47890
 Alpha  occ. eigenvalues --   -1.46123  -1.44151  -1.39892  -1.38249  -1.37212
 Alpha  occ. eigenvalues --   -1.35882  -1.33067  -1.32487  -1.31855  -1.28667
 Alpha  occ. eigenvalues --   -1.28087  -1.26253  -1.22499  -1.21467  -1.19311
 Alpha  occ. eigenvalues --   -1.18194  -1.16595  -1.15835  -1.13003  -1.12941
 Alpha  occ. eigenvalues --   -1.12456  -1.10529  -1.08959  -1.05525  -1.04442
 Alpha  occ. eigenvalues --   -1.01980  -1.01549  -0.99602  -0.98348  -0.97277
 Alpha  occ. eigenvalues --   -0.96298  -0.94379  -0.93548  -0.92714  -0.92321
 Alpha  occ. eigenvalues --   -0.91034  -0.90658  -0.89991  -0.88740  -0.87674
 Alpha  occ. eigenvalues --   -0.86021  -0.85675  -0.83866  -0.82162  -0.80485
 Alpha  occ. eigenvalues --   -0.78921  -0.78634  -0.77065  -0.76753  -0.76173
 Alpha  occ. eigenvalues --   -0.75970  -0.75068  -0.74012  -0.73948  -0.73366
 Alpha  occ. eigenvalues --   -0.72787  -0.71961  -0.71176  -0.70948  -0.70690
 Alpha  occ. eigenvalues --   -0.70249  -0.69329  -0.68622  -0.68019  -0.67595
 Alpha  occ. eigenvalues --   -0.67354  -0.67066  -0.66755  -0.65940  -0.65609
 Alpha  occ. eigenvalues --   -0.65312  -0.64867  -0.64458  -0.64033  -0.63584
 Alpha  occ. eigenvalues --   -0.63013  -0.62384  -0.62158  -0.62032  -0.61876
 Alpha  occ. eigenvalues --   -0.61692  -0.60913  -0.60865  -0.60658  -0.59951
 Alpha  occ. eigenvalues --   -0.59700  -0.59602  -0.58804  -0.58621  -0.58405
 Alpha  occ. eigenvalues --   -0.58090  -0.57965  -0.57600  -0.57186  -0.56989
 Alpha  occ. eigenvalues --   -0.56116  -0.56046  -0.55659  -0.55614  -0.55007
 Alpha  occ. eigenvalues --   -0.54397  -0.54124  -0.53844  -0.53769  -0.53542
 Alpha  occ. eigenvalues --   -0.53048  -0.52829  -0.52350  -0.52141  -0.51870
 Alpha  occ. eigenvalues --   -0.51635  -0.51310  -0.51233  -0.51032  -0.50149
 Alpha  occ. eigenvalues --   -0.50110  -0.49976  -0.49961  -0.49639  -0.49307
 Alpha  occ. eigenvalues --   -0.49078  -0.48725  -0.48398  -0.48243  -0.47756
 Alpha  occ. eigenvalues --   -0.47569  -0.47353  -0.47216  -0.46739  -0.46051
 Alpha  occ. eigenvalues --   -0.45960  -0.45818  -0.45709  -0.45482  -0.45305
 Alpha  occ. eigenvalues --   -0.45217  -0.44913  -0.44670  -0.44391  -0.43943
 Alpha  occ. eigenvalues --   -0.43554  -0.43079  -0.42136  -0.41858  -0.41539
 Alpha  occ. eigenvalues --   -0.41404  -0.40674  -0.40208  -0.39438  -0.39091
 Alpha  occ. eigenvalues --   -0.38568  -0.37454  -0.35002  -0.34729  -0.34639
 Alpha  occ. eigenvalues --   -0.33226  -0.32932  -0.32107  -0.31186  -0.26814
 Alpha  occ. eigenvalues --   -0.21900
 Alpha virt. eigenvalues --   -0.08839  -0.01975  -0.00290   0.01345   0.01546
 Alpha virt. eigenvalues --    0.01974   0.02920   0.03044   0.04872   0.05093
 Alpha virt. eigenvalues --    0.06114   0.07461   0.07507   0.07950   0.08088

 Mulliken charges:
               1
     1  Mg   0.429912
     2  C   -0.047555
     3  C   -0.083583
     4  C   -0.064868
     5  C   -0.070140
     6  N   -0.275209
     7  C    0.126549
     8  C    0.000468
     9  C   -0.000681
    10  C    0.134879
    11  C   -0.045476
    12  C   -0.015909
    13  C    0.003757
    14  C    0.471271
    15  O   -0.497557
    16  O   -0.279113
    17  N   -0.321114
    18  C    0.106895
    19  C    0.044748
    20  C   -0.068185
    21  C    0.123709
    22  C   -0.029571
    23  C    0.327663
    24  O   -0.517911
    25  C   -0.028919
    26  N   -0.300736
    27  C    0.116191
    28  C    0.006605
    29  C    0.008615
    30  C    0.130758
    31  C   -0.054339
    32  C   -0.028998
    33  C   -0.065831
    34  N   -0.318765
    35  C    0.087751
    36  C    0.025654
    37  C   -0.039627
    38  C    0.126213
    39  C   -0.036534
    40  C    0.332388
    41  O   -0.526101
    42  C    0.065215
    43  C    0.501471
    44  O   -0.519503
    45  O   -0.275823
    46  C    0.075783
    47  C    0.101922
    48  C   -0.111101
    49  C    0.000830
    50  C   -0.052421
    51  C   -0.015933
    52  C   -0.035916
    53  C   -0.040128
    54  C   -0.007001
    55  C   -0.069055
    56  C   -0.027390
    57  C   -0.031446
    58  C   -0.029686
    59  C   -0.029750
    60  C   -0.069634
    61  C   -0.028189
    62  C   -0.046460
    63  C   -0.058457
    64  C   -0.023000
    65  C   -0.055780
    66  C   -0.065206
    67  H    0.022281
    68  H    0.009997
    69  H    0.030623
    70  H    0.025391
    71  H    0.021076
    72  H    0.035750
    73  H    0.024535
    74  H    0.030447
    75  H    0.032222
    76  H    0.029364
    77  H    0.041881
    78  H    0.038974
    79  H    0.039794
    80  H    0.015186
    81  H    0.042289
    82  H    0.042233
    83  H    0.023367
    84  H    0.039288
    85  H    0.037062
    86  H    0.037120
    87  H    0.016325
    88  H    0.026957
    89  H    0.027750
    90  H    0.027626
    91  H    0.015942
    92  H    0.006527
    93  H    0.031732
    94  H    0.021535
    95  H    0.036908
    96  H    0.028038
    97  H    0.035002
    98  H    0.056063
    99  H    0.035358
   100  H    0.036666
   101  H    0.046332
   102  H    0.049065
   103  H    0.054339
   104  H    0.031394
   105  H    0.033111
   106  H    0.023116
   107  H    0.036578
   108  H    0.026676
   109  H    0.018499
   110  H    0.010417
   111  H    0.026029
   112  H    0.017029
   113  H    0.018416
   114  H    0.020872
   115  H    0.027240
   116  H    0.018344
   117  H    0.014413
   118  H    0.020571
   119  H    0.007722
   120  H    0.010055
   121  H    0.024041
   122  H    0.021449
   123  H    0.013422
   124  H    0.017651
   125  H    0.007439
   126  H    0.014676
   127  H    0.024267
   128  H    0.023609
   129  H    0.031088
   130  H    0.017168
   131  H    0.035191
   132  H    0.026690
   133  H    0.017453
   134  H    0.033052
   135  H    0.015305
   136  H    0.021469
   137  H    0.022728
   138  H    0.022393
   139  H    0.018897
   140  H    0.019844
 Sum of Mulliken charges =  -0.00000

 Dipole moment (field-independent basis, Debye):
    X=              1.2334    Y=             -4.6097    Z=             -0.0760  Tot=              4.7725
 N-N= 4.426914407197D+03 E-N= 0.000000000000D+00  KE=-9.528027306675D+03
 Leave Link  601 at Sat Apr 30 23:08:20 2022, MaxMem=  6710886400 cpu:               0.8 elap:               0.1
 (Enter /sw/apps/gaussian-16.0/g16/l9999.exe)
 1\1\GINC-BP1-COMPUTE103\SP\RZINDO CIS\STO-3G\C55H74Mg1N4O6\OF15641\30-
 Apr-2022\0\\#p ZINDO=(nstates=5)\\step_901_chromophore_8 ZINDO\\0,1\Mg
 ,0,44.776,3.045,47.178\C,0,42.364,5.531,46.752\C,0,42.109,0.786,47.099
 \C,0,46.973,0.597,47.01\C,0,47.283,5.453,46.689\N,0,42.54,3.165,47.095
 \C,0,41.812,4.269,46.947\C,0,40.36,3.897,46.697\C,0,40.283,2.504,47.41
 6\C,0,41.72,2.115,47.195\C,0,39.799,2.427,48.947\C,0,40.12,3.96,45.183
 \C,0,38.688,4.347,44.786\C,0,38.563,5.47,43.81\O,0,37.751,6.365,43.885

 Normal termination of Gaussian 16 at Sat Apr 30 23:08:20 2022.
