 Gaussian 16, Revision A.03,
 Gaussian 16:  ES64L-G16RevA.03 25-Dec-2016

 ------------------------------
 #p blyp/Def2SVP td=(nstates=5)
 ------------------------------

 --------------------------------------------------
 step_101_chromophore_17 TDDFT with blyp functional
 --------------------------------------------------
 Symbolic Z-matrix:
 Charge =  0 Multiplicity = 1

                         Standard orientation:
 ---------------------------------------------------------------------
 Center     Atomic      Atomic             Coordinates (Angstroms)
 Number     Number       Type             X           Y           Z
 ---------------------------------------------------------------------
      1         12           0        3.556750    1.476863   -0.675688
      2          6           0        3.950098   -2.022424   -0.720569
      3          6           0        0.928162    1.275282   -2.842746
      4          6           0        3.101247    4.714648   -0.101330
      5          6           0        5.760620    1.444371    2.212134
      6          7           0        2.475015   -0.226554   -1.538025
      7          6           0        2.889898   -1.558153   -1.527383
      8          6           0        1.907004   -2.380310   -2.316034
      9          6           0        1.088727   -1.304010   -3.082378
     10          6           0        1.491250    0.026867   -2.459902
     11          6           0        1.352332   -1.273356   -4.585107
     12          6           0        1.061656   -3.250766   -1.275612
     13          6           0        1.069876   -4.777112   -1.264227
     14          6           0       -0.253620   -5.478281   -1.213014
     15          8           0       -0.849318   -5.796410   -2.240643
     16          8           0       -0.797629   -5.427878    0.065252
     17          7           0        2.207053    2.830772   -1.426105
     18          6           0        1.236015    2.598186   -2.364808
     19          6           0        0.596305    3.931482   -2.646855
     20          6           0        1.242477    4.945026   -1.818793
     21          6           0        2.281492    4.182155   -1.103627
     22          6           0       -0.637676    4.121223   -3.490029
     23          6           0        0.884437    6.469405   -1.875507
     24          8           0        0.155230    6.797937   -2.748559
     25          6           0        1.423797    7.468328   -0.935430
     26          7           0        4.122958    2.776912    0.975904
     27          6           0        3.967177    4.089025    0.816936
     28          6           0        4.691545    4.849506    1.964347
     29          6           0        5.301665    3.727476    2.839326
     30          6           0        5.030493    2.530237    1.994137
     31          6           0        5.671269    5.983770    1.561616
     32          6           0        4.801718    3.771619    4.310804
     33          6           0        5.980354    3.729479    5.288930
     34          7           0        4.716979    0.072453    0.452366
     35          6           0        5.557418    0.225792    1.563471
     36          6           0        6.229550   -1.023502    1.864447
     37          6           0        5.673669   -1.932796    0.989753
     38          6           0        4.726950   -1.197088    0.149560
     39          6           0        7.044170   -1.322226    2.973958
     40          6           0        5.673504   -3.316434    0.611985
     41          8           0        6.326853   -4.270145    1.071034
     42          6           0        4.502268   -3.435811   -0.538102
     43          6           0        5.229301   -3.887278   -1.784417
     44          8           0        6.068288   -3.215023   -2.316574
     45          8           0        4.641773   -5.008982   -2.352689
     46          6           0        5.048912   -5.299299   -3.742577
     47          6           0       -2.141866   -6.029591    0.268818
     48          6           0       -2.924236   -4.871954    0.708287
     49          6           0       -4.239284   -4.906066    0.992172
     50          6           0       -5.152882   -6.191007    1.145516
     51          6           0       -4.998913   -3.631524    1.375919
     52          6           0       -5.213791   -3.467150    2.930331
     53          6           0       -4.723379   -2.125194    3.454370
     54          6           0       -5.852835   -1.376497    4.235460
     55          6           0       -5.982938   -1.825223    5.643520
     56          6           0       -5.743547    0.213223    4.213326
     57          6           0       -6.777198    0.851549    3.207663
     58          6           0       -6.282441    1.032213    1.768293
     59          6           0       -7.514479    0.733001    0.763545
     60          6           0       -7.431137   -0.630935    0.067558
     61          6           0       -7.545377    1.889318   -0.214321
     62          6           0       -8.819877    2.781545   -0.214248
     63          6           0       -9.923871    2.111668   -1.092908
     64          6           0      -10.796852    3.020710   -1.995829
     65          6           0      -12.047779    2.207560   -2.464572
     66          6           0       -9.994142    3.780935   -3.135247
     67          1           0        0.272355    1.195148   -3.712445
     68          1           0        3.104131    5.806796   -0.104739
     69          1           0        6.437748    1.470896    3.067884
     70          1           0        2.394732   -3.105586   -2.966871
     71          1           0        0.015864   -1.489643   -3.040917
     72          1           0        1.193990   -0.359789   -5.158839
     73          1           0        0.954456   -2.061637   -5.224251
     74          1           0        2.364213   -1.631366   -4.775874
     75          1           0        0.007516   -2.982648   -1.344810
     76          1           0        1.412989   -2.972380   -0.282729
     77          1           0        1.546935   -5.028451   -0.316495
     78          1           0        1.647051   -5.121796   -2.121152
     79          1           0       -0.693064    3.266674   -4.164954
     80          1           0       -0.505583    4.965824   -4.166305
     81          1           0       -1.552298    4.219669   -2.906215
     82          1           0        1.116370    7.258107    0.088817
     83          1           0        1.078800    8.482823   -1.135315
     84          1           0        2.499343    7.553325   -1.085787
     85          1           0        3.876053    5.365383    2.471588
     86          1           0        6.392067    3.720154    2.818005
     87          1           0        5.698231    6.029708    0.472413
     88          1           0        6.681920    5.737957    1.887691
     89          1           0        5.257547    6.929453    1.912944
     90          1           0        4.130491    2.921851    4.435250
     91          1           0        4.218080    4.650712    4.580967
     92          1           0        5.779993    4.536040    5.993650
     93          1           0        7.000595    3.862943    4.931571
     94          1           0        5.893277    2.754014    5.767277
     95          1           0        6.490638   -1.178337    3.901671
     96          1           0        7.916635   -0.670945    2.920576
     97          1           0        7.403801   -2.350373    2.988005
     98          1           0        3.796915   -4.226892   -0.283297
     99          1           0        5.599047   -6.239537   -3.693458
    100          1           0        5.564427   -4.501326   -4.276701
    101          1           0        4.101388   -5.371531   -4.274994
    102          1           0       -2.060424   -6.747435    1.085874
    103          1           0       -2.567512   -6.446490   -0.643556
    104          1           0       -2.397694   -3.927427    0.571524
    105          1           0       -5.851460   -6.317101    0.319111
    106          1           0       -5.681274   -6.064088    2.089844
    107          1           0       -4.543082   -7.063111    1.382083
    108          1           0       -6.024324   -3.748613    1.023878
    109          1           0       -4.530262   -2.753875    0.928723
    110          1           0       -4.761361   -4.340262    3.399655
    111          1           0       -6.249302   -3.716874    3.162074
    112          1           0       -4.560862   -1.422107    2.638795
    113          1           0       -3.860096   -2.252246    4.108604
    114          1           0       -6.808182   -1.647884    3.786526
    115          1           0       -7.002712   -1.696125    6.005574
    116          1           0       -5.431825   -1.169777    6.318027
    117          1           0       -5.703007   -2.870365    5.771397
    118          1           0       -4.727534    0.477994    3.920041
    119          1           0       -5.865685    0.810694    5.115902
    120          1           0       -7.105472    1.840321    3.527877
    121          1           0       -7.631590    0.175541    3.240822
    122          1           0       -5.434708    0.376293    1.571688
    123          1           0       -5.881994    2.042168    1.681142
    124          1           0       -8.513556    0.848769    1.183589
    125          1           0       -8.337757   -1.209926    0.236467
    126          1           0       -6.634635   -1.216087    0.527431
    127          1           0       -7.326725   -0.692964   -1.016182
    128          1           0       -7.542904    1.426968   -1.201205
    129          1           0       -6.739538    2.622209   -0.256634
    130          1           0       -8.524155    3.730016   -0.662215
    131          1           0       -9.162167    2.933436    0.809248
    132          1           0      -10.576723    1.533438   -0.439149
    133          1           0       -9.459108    1.494713   -1.861863
    134          1           0      -11.154834    3.842650   -1.374927
    135          1           0      -12.356049    1.526259   -1.672481
    136          1           0      -11.910004    1.628207   -3.377600
    137          1           0      -12.816976    2.964699   -2.620235
    138          1           0       -9.089582    3.245746   -3.422364
    139          1           0       -9.666374    4.734625   -2.721365
    140          1           0      -10.685239    3.929685   -3.965261
 ---------------------------------------------------------------------

 SCF Done:  E(RB-LYP) =  -3007.35463657     A.U. after   21 cycles

 Excitation energies and oscillator strengths:

 Excited State   1:      Singlet-A      1.7854 eV  694.41 nm  f=0.3110  <S**2>=0.000
     245 -> 248       -0.18697
     246 -> 247        0.69449
     246 <- 247       -0.15722
 This state for optimization and/or second-order correction.
 Total Energy, E(TD-HF/TD-DFT) =  -3007.28902252
 Copying the excited state density for this state as the 1-particle RhoCI density.

 Excited State   2:      Singlet-A      1.9158 eV  647.17 nm  f=0.0098  <S**2>=0.000
     244 -> 247        0.61745
     245 -> 247        0.33144

 Excited State   3:      Singlet-A      2.0852 eV  594.59 nm  f=0.0519  <S**2>=0.000
     244 -> 247       -0.33196
     245 -> 247        0.54385
     246 -> 248        0.27562

 Excited State   4:      Singlet-A      2.1478 eV  577.26 nm  f=0.0007  <S**2>=0.000
     243 -> 247        0.69950

 Excited State   5:      Singlet-A      2.3186 eV  534.73 nm  f=0.0001  <S**2>=0.000
     242 -> 247        0.70584

 The electronic state is 1-A.
 Alpha  occ. eigenvalues --  -46.27595 -18.82024 -18.81943 -18.76572 -18.76391
 Alpha  occ. eigenvalues --  -18.76159 -18.75690 -14.03541 -14.02984 -14.01381
 Alpha  occ. eigenvalues --  -14.01044 -10.03819 -10.03434 -10.00609  -9.99539
 Alpha  occ. eigenvalues --   -9.97723  -9.97611  -9.97212  -9.97033  -9.96682
 Alpha  occ. eigenvalues --   -9.96604  -9.96301  -9.95280  -9.95119  -9.94636
 Alpha  occ. eigenvalues --   -9.94590  -9.94335  -9.94246  -9.94157  -9.94074
 Alpha  occ. eigenvalues --   -9.93717  -9.93649  -9.93267  -9.93062  -9.92955
 Alpha  occ. eigenvalues --   -9.92951  -9.92939  -9.92888  -9.92814  -9.92805
 Alpha  occ. eigenvalues --   -9.92798  -9.92682  -9.92633  -9.92163  -9.92046
 Alpha  occ. eigenvalues --   -9.92029  -9.91891  -9.91863  -9.91831  -9.91699
 Alpha  occ. eigenvalues --   -9.91695  -9.91650  -9.91556  -9.91430  -9.91254
 Alpha  occ. eigenvalues --   -9.91144  -9.91048  -9.91043  -9.90861  -9.90810
 Alpha  occ. eigenvalues --   -9.90783  -9.90708  -9.90603  -9.90588  -9.90240
 Alpha  occ. eigenvalues --   -9.89797  -2.92162  -1.72562  -1.72051  -1.71881
 Alpha  occ. eigenvalues --   -0.97448  -0.96734  -0.94433  -0.90209  -0.89751
 Alpha  occ. eigenvalues --   -0.89485  -0.86859  -0.86036  -0.85412  -0.84293
 Alpha  occ. eigenvalues --   -0.74696  -0.73436  -0.73229  -0.72769  -0.72428
 Alpha  occ. eigenvalues --   -0.71924  -0.71751  -0.71473  -0.70893  -0.70305
 Alpha  occ. eigenvalues --   -0.69632  -0.68699  -0.68352  -0.67935  -0.67553
 Alpha  occ. eigenvalues --   -0.66648  -0.66443  -0.65548  -0.64894  -0.64572
 Alpha  occ. eigenvalues --   -0.63931  -0.62911  -0.62490  -0.61549  -0.60503
 Alpha  occ. eigenvalues --   -0.60304  -0.60070  -0.59706  -0.59415  -0.58375
 Alpha  occ. eigenvalues --   -0.58017  -0.57588  -0.56942  -0.55588  -0.54701
 Alpha  occ. eigenvalues --   -0.53926  -0.53463  -0.52722  -0.52537  -0.51888
 Alpha  occ. eigenvalues --   -0.51407  -0.51126  -0.50445  -0.50357  -0.49642
 Alpha  occ. eigenvalues --   -0.49492  -0.49035  -0.48171  -0.48101  -0.46544
 Alpha  occ. eigenvalues --   -0.46413  -0.46231  -0.45836  -0.45199  -0.44586
 Alpha  occ. eigenvalues --   -0.43931  -0.43661  -0.43041  -0.42816  -0.42375
 Alpha  occ. eigenvalues --   -0.42145  -0.42087  -0.41436  -0.41342  -0.40943
 Alpha  occ. eigenvalues --   -0.40907  -0.40842  -0.40268  -0.40193  -0.39978
 Alpha  occ. eigenvalues --   -0.39807  -0.39708  -0.39473  -0.39438  -0.39269
 Alpha  occ. eigenvalues --   -0.39083  -0.38734  -0.38580  -0.38471  -0.38226
 Alpha  occ. eigenvalues --   -0.38141  -0.37931  -0.37714  -0.37630  -0.37373
 Alpha  occ. eigenvalues --   -0.37331  -0.37015  -0.36925  -0.36848  -0.36633
 Alpha  occ. eigenvalues --   -0.36533  -0.36433  -0.36227  -0.35838  -0.35441
 Alpha  occ. eigenvalues --   -0.35139  -0.34912  -0.34866  -0.34810  -0.34703
 Alpha  occ. eigenvalues --   -0.34402  -0.34292  -0.34097  -0.33983  -0.33865
 Alpha  occ. eigenvalues --   -0.33772  -0.33724  -0.33566  -0.33325  -0.33180
 Alpha  occ. eigenvalues --   -0.32937  -0.32714  -0.32665  -0.32633  -0.32354
 Alpha  occ. eigenvalues --   -0.32254  -0.32116  -0.32058  -0.31750  -0.31523
 Alpha  occ. eigenvalues --   -0.31464  -0.31433  -0.31205  -0.30893  -0.30839
 Alpha  occ. eigenvalues --   -0.30702  -0.30202  -0.30080  -0.29885  -0.29780
 Alpha  occ. eigenvalues --   -0.29449  -0.29371  -0.29199  -0.28994  -0.28825
 Alpha  occ. eigenvalues --   -0.28437  -0.28216  -0.28206  -0.28034  -0.27452
 Alpha  occ. eigenvalues --   -0.27326  -0.27249  -0.26768  -0.26619  -0.26561
 Alpha  occ. eigenvalues --   -0.25945  -0.25882  -0.25698  -0.25403  -0.25395
 Alpha  occ. eigenvalues --   -0.24938  -0.24869  -0.24704  -0.23930  -0.23220
 Alpha  occ. eigenvalues --   -0.22426  -0.22361  -0.21622  -0.21300  -0.20780
 Alpha  occ. eigenvalues --   -0.20298  -0.20079  -0.19355  -0.18599  -0.17551
 Alpha  occ. eigenvalues --   -0.15701
 Alpha virt. eigenvalues --   -0.11562  -0.06834  -0.06124  -0.04677  -0.03538
 Alpha virt. eigenvalues --   -0.03129  -0.02304  -0.01664  -0.01615  -0.00000
 Alpha virt. eigenvalues --    0.01287   0.01752   0.02292   0.02599   0.02731

 Mulliken charges:
               1
     1  Mg   0.691037
     2  C    0.058430
     3  C   -0.058236
     4  C   -0.052733
     5  C   -0.116136
     6  N   -0.246143
     7  C   -0.077599
     8  C    0.045047
     9  C    0.055418
    10  C    0.055647
    11  C    0.084171
    12  C    0.080783
    13  C    0.155466
    14  C    0.066988
    15  O   -0.199297
    16  O   -0.301360
    17  N   -0.321968
    18  C    0.139486
    19  C   -0.155909
    20  C   -0.006680
    21  C    0.130233
    22  C    0.180501
    23  C   -0.075753
    24  O   -0.119511
    25  C    0.153090
    26  N   -0.208854
    27  C    0.037447
    28  C   -0.025081
    29  C    0.048709
    30  C    0.036763
    31  C    0.144376
    32  C    0.117168
    33  C    0.051351
    34  N   -0.205505
    35  C    0.105284
    36  C   -0.173267
    37  C    0.121976
    38  C    0.042647
    39  C    0.176413
    40  C   -0.035333
    41  O   -0.153285
    42  C    0.021072
    43  C    0.098535
    44  O   -0.160366
    45  O   -0.283748
    46  C    0.200272
    47  C    0.335537
    48  C   -0.139942
    49  C   -0.123915
    50  C    0.124187
    51  C    0.105395
    52  C    0.056555
    53  C    0.158631
    54  C   -0.086633
    55  C    0.119029
    56  C    0.093493
    57  C    0.034260
    58  C    0.121146
    59  C   -0.042696
    60  C    0.113923
    61  C    0.080922
    62  C    0.078017
    63  C    0.061929
    64  C   -0.092243
    65  C    0.099829
    66  C    0.095404
    67  H   -0.050003
    68  H   -0.092831
    69  H   -0.061253
    70  H   -0.027435
    71  H   -0.015439
    72  H    0.000348
    73  H   -0.021641
    74  H   -0.030758
    75  H   -0.009917
    76  H   -0.004601
    77  H   -0.004686
    78  H   -0.001835
    79  H   -0.034930
    80  H    0.008368
    81  H    0.015752
    82  H    0.016687
    83  H   -0.019597
    84  H    0.026967
    85  H   -0.023587
    86  H   -0.029086
    87  H   -0.017638
    88  H   -0.007493
    89  H   -0.005484
    90  H   -0.019108
    91  H   -0.020666
    92  H   -0.011027
    93  H   -0.002021
    94  H   -0.001184
    95  H    0.005606
    96  H   -0.006604
    97  H    0.001091
    98  H   -0.017913
    99  H    0.031230
   100  H    0.025349
   101  H    0.010345
   102  H    0.008957
   103  H    0.021665
   104  H   -0.026389
   105  H    0.020763
   106  H   -0.013946
   107  H   -0.018682
   108  H   -0.025758
   109  H   -0.008528
   110  H   -0.033997
   111  H   -0.032112
   112  H   -0.030205
   113  H   -0.021784
   114  H   -0.034058
   115  H   -0.028512
   116  H   -0.022024
   117  H   -0.023836
   118  H   -0.043602
   119  H   -0.039168
   120  H   -0.034251
   121  H   -0.023025
   122  H   -0.034751
   123  H   -0.030009
   124  H   -0.029050
   125  H   -0.027262
   126  H   -0.024042
   127  H   -0.011303
   128  H   -0.058754
   129  H   -0.040911
   130  H   -0.043757
   131  H   -0.027221
   132  H   -0.030851
   133  H   -0.030833
   134  H   -0.041795
   135  H   -0.020378
   136  H   -0.010611
   137  H   -0.014818
   138  H   -0.013502
   139  H   -0.008190
   140  H   -0.012853
 Sum of Mulliken charges =  -0.00000

 Dipole moment (field-independent basis, Debye):
    X=             -1.5434    Y=              3.3962    Z=              2.3255  Tot=              4.3959
 Quadrupole moment (field-independent basis, Debye-Ang):
   XX=           -411.2829   YY=           -408.3433   ZZ=           -396.4217
   XY=             43.5473   XZ=             -3.1638   YZ=             19.8970

 Normal termination of Gaussian 16 at Tue May  3 21:58:40 2022.
