 Gaussian 16, Revision A.03,
 Gaussian 16:  ES64L-G16RevA.03 25-Dec-2016

 -----------------------------------
 #p cam-b3lyp/Def2SVP td=(nstates=5)
 -----------------------------------

 -------------------------------------------------------
 step_101_chromophore_17 TDDFT with cam-b3lyp functional
 -------------------------------------------------------
 Symbolic Z-matrix:
 Charge =  0 Multiplicity = 1

                         Standard orientation:
 ---------------------------------------------------------------------
 Center     Atomic      Atomic             Coordinates (Angstroms)
 Number     Number       Type             X           Y           Z
 ---------------------------------------------------------------------
      1         12           0        3.556750    1.476863   -0.675688
      2          6           0        3.950098   -2.022424   -0.720569
      3          6           0        0.928162    1.275282   -2.842746
      4          6           0        3.101247    4.714648   -0.101330
      5          6           0        5.760620    1.444371    2.212134
      6          7           0        2.475015   -0.226554   -1.538025
      7          6           0        2.889898   -1.558153   -1.527383
      8          6           0        1.907004   -2.380310   -2.316034
      9          6           0        1.088727   -1.304010   -3.082378
     10          6           0        1.491250    0.026867   -2.459902
     11          6           0        1.352332   -1.273356   -4.585107
     12          6           0        1.061656   -3.250766   -1.275612
     13          6           0        1.069876   -4.777112   -1.264227
     14          6           0       -0.253620   -5.478281   -1.213014
     15          8           0       -0.849318   -5.796410   -2.240643
     16          8           0       -0.797629   -5.427878    0.065252
     17          7           0        2.207053    2.830772   -1.426105
     18          6           0        1.236015    2.598186   -2.364808
     19          6           0        0.596305    3.931482   -2.646855
     20          6           0        1.242477    4.945026   -1.818793
     21          6           0        2.281492    4.182155   -1.103627
     22          6           0       -0.637676    4.121223   -3.490029
     23          6           0        0.884437    6.469405   -1.875507
     24          8           0        0.155230    6.797937   -2.748559
     25          6           0        1.423797    7.468328   -0.935430
     26          7           0        4.122958    2.776912    0.975904
     27          6           0        3.967177    4.089025    0.816936
     28          6           0        4.691545    4.849506    1.964347
     29          6           0        5.301665    3.727476    2.839326
     30          6           0        5.030493    2.530237    1.994137
     31          6           0        5.671269    5.983770    1.561616
     32          6           0        4.801718    3.771619    4.310804
     33          6           0        5.980354    3.729479    5.288930
     34          7           0        4.716979    0.072453    0.452366
     35          6           0        5.557418    0.225792    1.563471
     36          6           0        6.229550   -1.023502    1.864447
     37          6           0        5.673669   -1.932796    0.989753
     38          6           0        4.726950   -1.197088    0.149560
     39          6           0        7.044170   -1.322226    2.973958
     40          6           0        5.673504   -3.316434    0.611985
     41          8           0        6.326853   -4.270145    1.071034
     42          6           0        4.502268   -3.435811   -0.538102
     43          6           0        5.229301   -3.887278   -1.784417
     44          8           0        6.068288   -3.215023   -2.316574
     45          8           0        4.641773   -5.008982   -2.352689
     46          6           0        5.048912   -5.299299   -3.742577
     47          6           0       -2.141866   -6.029591    0.268818
     48          6           0       -2.924236   -4.871954    0.708287
     49          6           0       -4.239284   -4.906066    0.992172
     50          6           0       -5.152882   -6.191007    1.145516
     51          6           0       -4.998913   -3.631524    1.375919
     52          6           0       -5.213791   -3.467150    2.930331
     53          6           0       -4.723379   -2.125194    3.454370
     54          6           0       -5.852835   -1.376497    4.235460
     55          6           0       -5.982938   -1.825223    5.643520
     56          6           0       -5.743547    0.213223    4.213326
     57          6           0       -6.777198    0.851549    3.207663
     58          6           0       -6.282441    1.032213    1.768293
     59          6           0       -7.514479    0.733001    0.763545
     60          6           0       -7.431137   -0.630935    0.067558
     61          6           0       -7.545377    1.889318   -0.214321
     62          6           0       -8.819877    2.781545   -0.214248
     63          6           0       -9.923871    2.111668   -1.092908
     64          6           0      -10.796852    3.020710   -1.995829
     65          6           0      -12.047779    2.207560   -2.464572
     66          6           0       -9.994142    3.780935   -3.135247
     67          1           0        0.272355    1.195148   -3.712445
     68          1           0        3.104131    5.806796   -0.104739
     69          1           0        6.437748    1.470896    3.067884
     70          1           0        2.394732   -3.105586   -2.966871
     71          1           0        0.015864   -1.489643   -3.040917
     72          1           0        1.193990   -0.359789   -5.158839
     73          1           0        0.954456   -2.061637   -5.224251
     74          1           0        2.364213   -1.631366   -4.775874
     75          1           0        0.007516   -2.982648   -1.344810
     76          1           0        1.412989   -2.972380   -0.282729
     77          1           0        1.546935   -5.028451   -0.316495
     78          1           0        1.647051   -5.121796   -2.121152
     79          1           0       -0.693064    3.266674   -4.164954
     80          1           0       -0.505583    4.965824   -4.166305
     81          1           0       -1.552298    4.219669   -2.906215
     82          1           0        1.116370    7.258107    0.088817
     83          1           0        1.078800    8.482823   -1.135315
     84          1           0        2.499343    7.553325   -1.085787
     85          1           0        3.876053    5.365383    2.471588
     86          1           0        6.392067    3.720154    2.818005
     87          1           0        5.698231    6.029708    0.472413
     88          1           0        6.681920    5.737957    1.887691
     89          1           0        5.257547    6.929453    1.912944
     90          1           0        4.130491    2.921851    4.435250
     91          1           0        4.218080    4.650712    4.580967
     92          1           0        5.779993    4.536040    5.993650
     93          1           0        7.000595    3.862943    4.931571
     94          1           0        5.893277    2.754014    5.767277
     95          1           0        6.490638   -1.178337    3.901671
     96          1           0        7.916635   -0.670945    2.920576
     97          1           0        7.403801   -2.350373    2.988005
     98          1           0        3.796915   -4.226892   -0.283297
     99          1           0        5.599047   -6.239537   -3.693458
    100          1           0        5.564427   -4.501326   -4.276701
    101          1           0        4.101388   -5.371531   -4.274994
    102          1           0       -2.060424   -6.747435    1.085874
    103          1           0       -2.567512   -6.446490   -0.643556
    104          1           0       -2.397694   -3.927427    0.571524
    105          1           0       -5.851460   -6.317101    0.319111
    106          1           0       -5.681274   -6.064088    2.089844
    107          1           0       -4.543082   -7.063111    1.382083
    108          1           0       -6.024324   -3.748613    1.023878
    109          1           0       -4.530262   -2.753875    0.928723
    110          1           0       -4.761361   -4.340262    3.399655
    111          1           0       -6.249302   -3.716874    3.162074
    112          1           0       -4.560862   -1.422107    2.638795
    113          1           0       -3.860096   -2.252246    4.108604
    114          1           0       -6.808182   -1.647884    3.786526
    115          1           0       -7.002712   -1.696125    6.005574
    116          1           0       -5.431825   -1.169777    6.318027
    117          1           0       -5.703007   -2.870365    5.771397
    118          1           0       -4.727534    0.477994    3.920041
    119          1           0       -5.865685    0.810694    5.115902
    120          1           0       -7.105472    1.840321    3.527877
    121          1           0       -7.631590    0.175541    3.240822
    122          1           0       -5.434708    0.376293    1.571688
    123          1           0       -5.881994    2.042168    1.681142
    124          1           0       -8.513556    0.848769    1.183589
    125          1           0       -8.337757   -1.209926    0.236467
    126          1           0       -6.634635   -1.216087    0.527431
    127          1           0       -7.326725   -0.692964   -1.016182
    128          1           0       -7.542904    1.426968   -1.201205
    129          1           0       -6.739538    2.622209   -0.256634
    130          1           0       -8.524155    3.730016   -0.662215
    131          1           0       -9.162167    2.933436    0.809248
    132          1           0      -10.576723    1.533438   -0.439149
    133          1           0       -9.459108    1.494713   -1.861863
    134          1           0      -11.154834    3.842650   -1.374927
    135          1           0      -12.356049    1.526259   -1.672481
    136          1           0      -11.910004    1.628207   -3.377600
    137          1           0      -12.816976    2.964699   -2.620235
    138          1           0       -9.089582    3.245746   -3.422364
    139          1           0       -9.666374    4.734625   -2.721365
    140          1           0      -10.685239    3.929685   -3.965261
 ---------------------------------------------------------------------

 SCF Done:  E(RCAM-B3LYP) =  -3007.14727619     A.U. after   18 cycles

 Excitation energies and oscillator strengths:

 Excited State   1:      Singlet-A      1.6860 eV  735.36 nm  f=0.3795  <S**2>=0.000
     245 -> 248       -0.17060
     246 -> 247        0.68909
     245 <- 248       -0.10709
 This state for optimization and/or second-order correction.
 Total Energy, E(TD-HF/TD-DFT) =  -3007.08531584
 Copying the excited state density for this state as the 1-particle RhoCI density.

 Excited State   2:      Singlet-A      2.2929 eV  540.74 nm  f=0.0772  <S**2>=0.000
     245 -> 247        0.62151
     246 -> 248        0.32646

 Excited State   3:      Singlet-A      3.3730 eV  367.58 nm  f=0.0266  <S**2>=0.000
     242 -> 247        0.61370
     244 -> 247        0.22449
     246 -> 248        0.19879

 Excited State   4:      Singlet-A      3.4561 eV  358.74 nm  f=0.1653  <S**2>=0.000
     241 -> 247        0.28191
     241 -> 249       -0.17442
     241 -> 251        0.13746
     243 -> 247        0.17617
     244 -> 247        0.38643
     244 -> 249       -0.10135
     245 -> 247        0.16238
     246 -> 248       -0.34984

 Excited State   5:      Singlet-A      3.5644 eV  347.84 nm  f=0.4327  <S**2>=0.000
     241 -> 247        0.38471
     241 -> 249       -0.20178
     241 -> 251        0.15534
     242 -> 247       -0.16946
     245 -> 247       -0.23737
     246 -> 248        0.42370

 The electronic state is 1-A.
 Alpha  occ. eigenvalues --  -46.89234 -19.24868 -19.24826 -19.19662 -19.19547
 Alpha  occ. eigenvalues --  -19.19441 -19.18513 -14.42411 -14.41910 -14.40089
 Alpha  occ. eigenvalues --  -14.39321 -10.39125 -10.38785 -10.35968 -10.34748
 Alpha  occ. eigenvalues --  -10.32015 -10.31718 -10.31583 -10.31519 -10.31437
 Alpha  occ. eigenvalues --  -10.31353 -10.31223 -10.29338 -10.29233 -10.28835
 Alpha  occ. eigenvalues --  -10.28626 -10.28583 -10.28450 -10.28339 -10.28325
 Alpha  occ. eigenvalues --  -10.27940 -10.27833 -10.27662 -10.27106 -10.27102
 Alpha  occ. eigenvalues --  -10.27083 -10.26986 -10.26830 -10.26680 -10.26608
 Alpha  occ. eigenvalues --  -10.26601 -10.26537 -10.26455 -10.25934 -10.25914
 Alpha  occ. eigenvalues --  -10.25617 -10.25603 -10.25595 -10.25558 -10.25478
 Alpha  occ. eigenvalues --  -10.25393 -10.25339 -10.25174 -10.25140 -10.25013
 Alpha  occ. eigenvalues --  -10.24854 -10.24735 -10.24707 -10.24565 -10.24444
 Alpha  occ. eigenvalues --  -10.24441 -10.24313 -10.24304 -10.24252 -10.23765
 Alpha  occ. eigenvalues --  -10.23462  -3.17697  -1.92574  -1.92151  -1.92003
 Alpha  occ. eigenvalues --   -1.15973  -1.15128  -1.13212  -1.08152  -1.07727
 Alpha  occ. eigenvalues --   -1.07329  -1.04503  -1.03586  -1.03014  -1.02053
 Alpha  occ. eigenvalues --   -0.91639  -0.90257  -0.89900  -0.89522  -0.89167
 Alpha  occ. eigenvalues --   -0.88467  -0.88401  -0.88016  -0.87514  -0.86878
 Alpha  occ. eigenvalues --   -0.86096  -0.85594  -0.84652  -0.84040  -0.83856
 Alpha  occ. eigenvalues --   -0.82988  -0.82521  -0.81410  -0.80711  -0.80385
 Alpha  occ. eigenvalues --   -0.79683  -0.78447  -0.78032  -0.77315  -0.75881
 Alpha  occ. eigenvalues --   -0.75618  -0.75463  -0.74998  -0.74720  -0.73549
 Alpha  occ. eigenvalues --   -0.73057  -0.72572  -0.71864  -0.70385  -0.69211
 Alpha  occ. eigenvalues --   -0.68485  -0.68003  -0.67179  -0.67078  -0.66017
 Alpha  occ. eigenvalues --   -0.65554  -0.65301  -0.64569  -0.64222  -0.63650
 Alpha  occ. eigenvalues --   -0.63240  -0.62987  -0.62018  -0.61813  -0.60081
 Alpha  occ. eigenvalues --   -0.59974  -0.59928  -0.59298  -0.58583  -0.58126
 Alpha  occ. eigenvalues --   -0.57526  -0.57052  -0.56444  -0.55828  -0.55486
 Alpha  occ. eigenvalues --   -0.55317  -0.54910  -0.54321  -0.54154  -0.53865
 Alpha  occ. eigenvalues --   -0.53824  -0.53613  -0.52917  -0.52867  -0.52760
 Alpha  occ. eigenvalues --   -0.52546  -0.52170  -0.52141  -0.52077  -0.51830
 Alpha  occ. eigenvalues --   -0.51597  -0.51457  -0.51178  -0.50879  -0.50801
 Alpha  occ. eigenvalues --   -0.50539  -0.50497  -0.50203  -0.50030  -0.49941
 Alpha  occ. eigenvalues --   -0.49742  -0.49482  -0.49323  -0.49084  -0.48786
 Alpha  occ. eigenvalues --   -0.48680  -0.48590  -0.48423  -0.48200  -0.47552
 Alpha  occ. eigenvalues --   -0.47204  -0.46941  -0.46739  -0.46719  -0.46543
 Alpha  occ. eigenvalues --   -0.46496  -0.46204  -0.45997  -0.45919  -0.45778
 Alpha  occ. eigenvalues --   -0.45600  -0.45472  -0.45230  -0.45189  -0.44754
 Alpha  occ. eigenvalues --   -0.44693  -0.44623  -0.44329  -0.44233  -0.44080
 Alpha  occ. eigenvalues --   -0.43743  -0.43655  -0.43553  -0.43410  -0.43221
 Alpha  occ. eigenvalues --   -0.42917  -0.42851  -0.42781  -0.42693  -0.42476
 Alpha  occ. eigenvalues --   -0.42193  -0.41882  -0.41767  -0.41316  -0.40949
 Alpha  occ. eigenvalues --   -0.40741  -0.40652  -0.40302  -0.40076  -0.39926
 Alpha  occ. eigenvalues --   -0.39591  -0.39289  -0.39153  -0.38958  -0.38384
 Alpha  occ. eigenvalues --   -0.38262  -0.38111  -0.37549  -0.37488  -0.37310
 Alpha  occ. eigenvalues --   -0.37148  -0.36582  -0.36554  -0.36441  -0.36303
 Alpha  occ. eigenvalues --   -0.36167  -0.35667  -0.35472  -0.34243  -0.34093
 Alpha  occ. eigenvalues --   -0.33448  -0.33331  -0.32747  -0.31832  -0.31092
 Alpha  occ. eigenvalues --   -0.30251  -0.29980  -0.29710  -0.29680  -0.24496
 Alpha  occ. eigenvalues --   -0.20905
 Alpha virt. eigenvalues --   -0.08635  -0.01746   0.00449   0.01746   0.02397
 Alpha virt. eigenvalues --    0.04261   0.05310   0.05847   0.05898   0.06802
 Alpha virt. eigenvalues --    0.08030   0.08335   0.08603   0.08900   0.08965

 Mulliken charges:
               1
     1  Mg   0.821902
     2  C    0.022465
     3  C   -0.072571
     4  C   -0.076215
     5  C   -0.113043
     6  N   -0.316711
     7  C   -0.032979
     8  C   -0.005664
     9  C   -0.004418
    10  C    0.078342
    11  C    0.025513
    12  C    0.035909
    13  C    0.080808
    14  C    0.151473
    15  O   -0.239915
    16  O   -0.367015
    17  N   -0.412319
    18  C    0.149678
    19  C   -0.160392
    20  C   -0.066789
    21  C    0.166394
    22  C    0.125474
    23  C    0.002633
    24  O   -0.158237
    25  C    0.062294
    26  N   -0.278491
    27  C    0.060950
    28  C   -0.076825
    29  C   -0.013081
    30  C    0.052870
    31  C    0.084677
    32  C    0.063062
    33  C   -0.013066
    34  N   -0.292630
    35  C    0.100700
    36  C   -0.159191
    37  C    0.037637
    38  C    0.081440
    39  C    0.109854
    40  C    0.061202
    41  O   -0.196251
    42  C   -0.048064
    43  C    0.190477
    44  O   -0.197419
    45  O   -0.349123
    46  C    0.163120
    47  C    0.296130
    48  C   -0.150591
    49  C   -0.149057
    50  C    0.066039
    51  C    0.047231
    52  C    0.003621
    53  C    0.103409
    54  C   -0.139550
    55  C    0.060380
    56  C    0.036110
    57  C   -0.014614
    58  C    0.070804
    59  C   -0.104678
    60  C    0.064349
    61  C    0.029995
    62  C    0.020964
    63  C    0.012467
    64  C   -0.149355
    65  C    0.040646
    66  C    0.036588
    67  H   -0.016920
    68  H   -0.057449
    69  H   -0.025819
    70  H    0.005031
    71  H    0.020774
    72  H    0.025707
    73  H    0.006959
    74  H   -0.004942
    75  H    0.017602
    76  H    0.027708
    77  H    0.027304
    78  H    0.029164
    79  H   -0.008513
    80  H    0.039236
    81  H    0.043427
    82  H    0.045896
    83  H    0.018878
    84  H    0.052556
    85  H    0.011196
    86  H    0.005426
    87  H    0.007500
    88  H    0.018221
    89  H    0.018240
    90  H    0.011470
    91  H    0.007002
    92  H    0.012616
    93  H    0.020722
    94  H    0.021765
    95  H    0.030786
    96  H    0.017349
    97  H    0.031154
    98  H    0.024260
    99  H    0.053270
   100  H    0.051416
   101  H    0.029121
   102  H    0.035800
   103  H    0.054857
   104  H    0.006992
   105  H    0.045063
   106  H    0.009187
   107  H    0.005617
   108  H    0.002701
   109  H    0.017650
   110  H   -0.004547
   111  H   -0.004346
   112  H   -0.005937
   113  H    0.008133
   114  H   -0.004580
   115  H   -0.003103
   116  H    0.002186
   117  H    0.000369
   118  H   -0.013943
   119  H   -0.007652
   120  H   -0.005835
   121  H    0.002720
   122  H   -0.009369
   123  H   -0.000621
   124  H    0.001661
   125  H   -0.002941
   126  H   -0.007555
   127  H    0.013523
   128  H   -0.029660
   129  H   -0.010985
   130  H   -0.014025
   131  H    0.000155
   132  H   -0.003721
   133  H   -0.005709
   134  H   -0.010398
   135  H    0.003889
   136  H    0.012739
   137  H    0.009550
   138  H    0.008796
   139  H    0.014175
   140  H    0.011702
 Sum of Mulliken charges =  -0.00000

 Dipole moment (field-independent basis, Debye):
    X=             -2.0458    Y=              4.2361    Z=              1.8808  Tot=              5.0663
 Quadrupole moment (field-independent basis, Debye-Ang):
   XX=           -414.2034   YY=           -402.6566   ZZ=           -394.6979
   XY=             46.2764   XZ=             -4.1298   YZ=             20.1161

 Normal termination of Gaussian 16 at Tue May  3 20:57:44 2022.
