 Gaussian 16, Revision A.03,
 Gaussian 16:  ES64L-G16RevA.03 25-Dec-2016

 ---------------------------------
 #p PBE1PBE/Def2SVP td=(nstates=5)
 ---------------------------------

 -----------------------------------------------------
 step_101_chromophore_17 TDDFT with PBE1PBE functional
 -----------------------------------------------------
 Symbolic Z-matrix:
 Charge =  0 Multiplicity = 1

                         Standard orientation:
 ---------------------------------------------------------------------
 Center     Atomic      Atomic             Coordinates (Angstroms)
 Number     Number       Type             X           Y           Z
 ---------------------------------------------------------------------
      1         12           0        3.556750    1.476863   -0.675688
      2          6           0        3.950098   -2.022424   -0.720569
      3          6           0        0.928162    1.275282   -2.842746
      4          6           0        3.101247    4.714648   -0.101330
      5          6           0        5.760620    1.444371    2.212134
      6          7           0        2.475015   -0.226554   -1.538025
      7          6           0        2.889898   -1.558153   -1.527383
      8          6           0        1.907004   -2.380310   -2.316034
      9          6           0        1.088727   -1.304010   -3.082378
     10          6           0        1.491250    0.026867   -2.459902
     11          6           0        1.352332   -1.273356   -4.585107
     12          6           0        1.061656   -3.250766   -1.275612
     13          6           0        1.069876   -4.777112   -1.264227
     14          6           0       -0.253620   -5.478281   -1.213014
     15          8           0       -0.849318   -5.796410   -2.240643
     16          8           0       -0.797629   -5.427878    0.065252
     17          7           0        2.207053    2.830772   -1.426105
     18          6           0        1.236015    2.598186   -2.364808
     19          6           0        0.596305    3.931482   -2.646855
     20          6           0        1.242477    4.945026   -1.818793
     21          6           0        2.281492    4.182155   -1.103627
     22          6           0       -0.637676    4.121223   -3.490029
     23          6           0        0.884437    6.469405   -1.875507
     24          8           0        0.155230    6.797937   -2.748559
     25          6           0        1.423797    7.468328   -0.935430
     26          7           0        4.122958    2.776912    0.975904
     27          6           0        3.967177    4.089025    0.816936
     28          6           0        4.691545    4.849506    1.964347
     29          6           0        5.301665    3.727476    2.839326
     30          6           0        5.030493    2.530237    1.994137
     31          6           0        5.671269    5.983770    1.561616
     32          6           0        4.801718    3.771619    4.310804
     33          6           0        5.980354    3.729479    5.288930
     34          7           0        4.716979    0.072453    0.452366
     35          6           0        5.557418    0.225792    1.563471
     36          6           0        6.229550   -1.023502    1.864447
     37          6           0        5.673669   -1.932796    0.989753
     38          6           0        4.726950   -1.197088    0.149560
     39          6           0        7.044170   -1.322226    2.973958
     40          6           0        5.673504   -3.316434    0.611985
     41          8           0        6.326853   -4.270145    1.071034
     42          6           0        4.502268   -3.435811   -0.538102
     43          6           0        5.229301   -3.887278   -1.784417
     44          8           0        6.068288   -3.215023   -2.316574
     45          8           0        4.641773   -5.008982   -2.352689
     46          6           0        5.048912   -5.299299   -3.742577
     47          6           0       -2.141866   -6.029591    0.268818
     48          6           0       -2.924236   -4.871954    0.708287
     49          6           0       -4.239284   -4.906066    0.992172
     50          6           0       -5.152882   -6.191007    1.145516
     51          6           0       -4.998913   -3.631524    1.375919
     52          6           0       -5.213791   -3.467150    2.930331
     53          6           0       -4.723379   -2.125194    3.454370
     54          6           0       -5.852835   -1.376497    4.235460
     55          6           0       -5.982938   -1.825223    5.643520
     56          6           0       -5.743547    0.213223    4.213326
     57          6           0       -6.777198    0.851549    3.207663
     58          6           0       -6.282441    1.032213    1.768293
     59          6           0       -7.514479    0.733001    0.763545
     60          6           0       -7.431137   -0.630935    0.067558
     61          6           0       -7.545377    1.889318   -0.214321
     62          6           0       -8.819877    2.781545   -0.214248
     63          6           0       -9.923871    2.111668   -1.092908
     64          6           0      -10.796852    3.020710   -1.995829
     65          6           0      -12.047779    2.207560   -2.464572
     66          6           0       -9.994142    3.780935   -3.135247
     67          1           0        0.272355    1.195148   -3.712445
     68          1           0        3.104131    5.806796   -0.104739
     69          1           0        6.437748    1.470896    3.067884
     70          1           0        2.394732   -3.105586   -2.966871
     71          1           0        0.015864   -1.489643   -3.040917
     72          1           0        1.193990   -0.359789   -5.158839
     73          1           0        0.954456   -2.061637   -5.224251
     74          1           0        2.364213   -1.631366   -4.775874
     75          1           0        0.007516   -2.982648   -1.344810
     76          1           0        1.412989   -2.972380   -0.282729
     77          1           0        1.546935   -5.028451   -0.316495
     78          1           0        1.647051   -5.121796   -2.121152
     79          1           0       -0.693064    3.266674   -4.164954
     80          1           0       -0.505583    4.965824   -4.166305
     81          1           0       -1.552298    4.219669   -2.906215
     82          1           0        1.116370    7.258107    0.088817
     83          1           0        1.078800    8.482823   -1.135315
     84          1           0        2.499343    7.553325   -1.085787
     85          1           0        3.876053    5.365383    2.471588
     86          1           0        6.392067    3.720154    2.818005
     87          1           0        5.698231    6.029708    0.472413
     88          1           0        6.681920    5.737957    1.887691
     89          1           0        5.257547    6.929453    1.912944
     90          1           0        4.130491    2.921851    4.435250
     91          1           0        4.218080    4.650712    4.580967
     92          1           0        5.779993    4.536040    5.993650
     93          1           0        7.000595    3.862943    4.931571
     94          1           0        5.893277    2.754014    5.767277
     95          1           0        6.490638   -1.178337    3.901671
     96          1           0        7.916635   -0.670945    2.920576
     97          1           0        7.403801   -2.350373    2.988005
     98          1           0        3.796915   -4.226892   -0.283297
     99          1           0        5.599047   -6.239537   -3.693458
    100          1           0        5.564427   -4.501326   -4.276701
    101          1           0        4.101388   -5.371531   -4.274994
    102          1           0       -2.060424   -6.747435    1.085874
    103          1           0       -2.567512   -6.446490   -0.643556
    104          1           0       -2.397694   -3.927427    0.571524
    105          1           0       -5.851460   -6.317101    0.319111
    106          1           0       -5.681274   -6.064088    2.089844
    107          1           0       -4.543082   -7.063111    1.382083
    108          1           0       -6.024324   -3.748613    1.023878
    109          1           0       -4.530262   -2.753875    0.928723
    110          1           0       -4.761361   -4.340262    3.399655
    111          1           0       -6.249302   -3.716874    3.162074
    112          1           0       -4.560862   -1.422107    2.638795
    113          1           0       -3.860096   -2.252246    4.108604
    114          1           0       -6.808182   -1.647884    3.786526
    115          1           0       -7.002712   -1.696125    6.005574
    116          1           0       -5.431825   -1.169777    6.318027
    117          1           0       -5.703007   -2.870365    5.771397
    118          1           0       -4.727534    0.477994    3.920041
    119          1           0       -5.865685    0.810694    5.115902
    120          1           0       -7.105472    1.840321    3.527877
    121          1           0       -7.631590    0.175541    3.240822
    122          1           0       -5.434708    0.376293    1.571688
    123          1           0       -5.881994    2.042168    1.681142
    124          1           0       -8.513556    0.848769    1.183589
    125          1           0       -8.337757   -1.209926    0.236467
    126          1           0       -6.634635   -1.216087    0.527431
    127          1           0       -7.326725   -0.692964   -1.016182
    128          1           0       -7.542904    1.426968   -1.201205
    129          1           0       -6.739538    2.622209   -0.256634
    130          1           0       -8.524155    3.730016   -0.662215
    131          1           0       -9.162167    2.933436    0.809248
    132          1           0      -10.576723    1.533438   -0.439149
    133          1           0       -9.459108    1.494713   -1.861863
    134          1           0      -11.154834    3.842650   -1.374927
    135          1           0      -12.356049    1.526259   -1.672481
    136          1           0      -11.910004    1.628207   -3.377600
    137          1           0      -12.816976    2.964699   -2.620235
    138          1           0       -9.089582    3.245746   -3.422364
    139          1           0       -9.666374    4.734625   -2.721365
    140          1           0      -10.685239    3.929685   -3.965261
 ---------------------------------------------------------------------

 SCF Done:  E(RPBE1PBE) =  -3005.33554071     A.U. after   16 cycles

 Excitation energies and oscillator strengths:

 Excited State   1:      Singlet-A      1.8284 eV  678.11 nm  f=0.3698  <S**2>=0.000
     245 -> 248       -0.16700
     246 -> 247        0.69650
     246 <- 247       -0.11370
 This state for optimization and/or second-order correction.
 Total Energy, E(TD-HF/TD-DFT) =  -3005.26834906
 Copying the excited state density for this state as the 1-particle RhoCI density.

 Excited State   2:      Singlet-A      2.2923 eV  540.87 nm  f=0.0775  <S**2>=0.000
     245 -> 247        0.63481
     246 -> 248        0.30116

 Excited State   3:      Singlet-A      2.9612 eV  418.70 nm  f=0.0004  <S**2>=0.000
     241 -> 247        0.10387
     242 -> 247       -0.12245
     243 -> 247        0.65410
     243 -> 249       -0.14138

 Excited State   4:      Singlet-A      3.0586 eV  405.36 nm  f=0.0007  <S**2>=0.000
     242 -> 247        0.67488
     243 -> 247        0.15357

 Excited State   5:      Singlet-A      3.2265 eV  384.27 nm  f=0.0044  <S**2>=0.000
     241 -> 247        0.66581
     246 -> 248        0.17231

 The electronic state is 1-A.
 Alpha  occ. eigenvalues --  -46.92589 -19.25626 -19.25534 -19.19862 -19.19701
 Alpha  occ. eigenvalues --  -19.19656 -19.18998 -14.41963 -14.41353 -14.39595
 Alpha  occ. eigenvalues --  -14.39075 -10.36196 -10.35857 -10.32917 -10.32104
 Alpha  occ. eigenvalues --  -10.29539 -10.29253 -10.29124 -10.28945 -10.28901
 Alpha  occ. eigenvalues --  -10.28858 -10.28597 -10.27160 -10.26937 -10.26757
 Alpha  occ. eigenvalues --  -10.26509 -10.26478 -10.26246 -10.26182 -10.26078
 Alpha  occ. eigenvalues --  -10.25554 -10.25430 -10.25306 -10.24797 -10.24783
 Alpha  occ. eigenvalues --  -10.24733 -10.24613 -10.24506 -10.24233 -10.24212
 Alpha  occ. eigenvalues --  -10.24165 -10.24006 -10.23880 -10.23585 -10.23373
 Alpha  occ. eigenvalues --  -10.23287 -10.23268 -10.23184 -10.23086 -10.23051
 Alpha  occ. eigenvalues --  -10.22917 -10.22738 -10.22723 -10.22668 -10.22600
 Alpha  occ. eigenvalues --  -10.22409 -10.22324 -10.22286 -10.22082 -10.22073
 Alpha  occ. eigenvalues --  -10.21967 -10.21845 -10.21818 -10.21663 -10.21109
 Alpha  occ. eigenvalues --  -10.21014  -3.14633  -1.87450  -1.87006  -1.86862
 Alpha  occ. eigenvalues --   -1.10778  -1.09958  -1.07791  -1.03050  -1.02659
 Alpha  occ. eigenvalues --   -1.02226  -0.99178  -0.98287  -0.97645  -0.96531
 Alpha  occ. eigenvalues --   -0.86064  -0.84392  -0.84266  -0.83689  -0.83322
 Alpha  occ. eigenvalues --   -0.82862  -0.82562  -0.82409  -0.81805  -0.80960
 Alpha  occ. eigenvalues --   -0.80318  -0.79648  -0.78855  -0.78331  -0.78010
 Alpha  occ. eigenvalues --   -0.77085  -0.76696  -0.75768  -0.75003  -0.74621
 Alpha  occ. eigenvalues --   -0.73852  -0.72867  -0.72359  -0.71501  -0.70239
 Alpha  occ. eigenvalues --   -0.69780  -0.69518  -0.69348  -0.68820  -0.67730
 Alpha  occ. eigenvalues --   -0.67372  -0.67021  -0.66279  -0.64710  -0.63596
 Alpha  occ. eigenvalues --   -0.62970  -0.62231  -0.61490  -0.61303  -0.60488
 Alpha  occ. eigenvalues --   -0.60053  -0.59787  -0.58853  -0.58742  -0.57809
 Alpha  occ. eigenvalues --   -0.57703  -0.57143  -0.56435  -0.56160  -0.54532
 Alpha  occ. eigenvalues --   -0.54467  -0.54421  -0.53894  -0.53231  -0.52693
 Alpha  occ. eigenvalues --   -0.51932  -0.51520  -0.50948  -0.50525  -0.49956
 Alpha  occ. eigenvalues --   -0.49800  -0.49448  -0.48902  -0.48601  -0.48466
 Alpha  occ. eigenvalues --   -0.48092  -0.48031  -0.47633  -0.47425  -0.47277
 Alpha  occ. eigenvalues --   -0.47047  -0.46743  -0.46679  -0.46568  -0.46475
 Alpha  occ. eigenvalues --   -0.46121  -0.45953  -0.45630  -0.45606  -0.45353
 Alpha  occ. eigenvalues --   -0.45085  -0.45050  -0.44713  -0.44514  -0.44404
 Alpha  occ. eigenvalues --   -0.44208  -0.44134  -0.43955  -0.43724  -0.43471
 Alpha  occ. eigenvalues --   -0.43389  -0.43223  -0.43022  -0.42868  -0.42250
 Alpha  occ. eigenvalues --   -0.41841  -0.41641  -0.41444  -0.41361  -0.41268
 Alpha  occ. eigenvalues --   -0.41138  -0.40918  -0.40594  -0.40529  -0.40338
 Alpha  occ. eigenvalues --   -0.40240  -0.40179  -0.39992  -0.39819  -0.39564
 Alpha  occ. eigenvalues --   -0.39402  -0.39393  -0.39050  -0.38885  -0.38869
 Alpha  occ. eigenvalues --   -0.38564  -0.38380  -0.38351  -0.38188  -0.37978
 Alpha  occ. eigenvalues --   -0.37686  -0.37620  -0.37556  -0.37541  -0.37266
 Alpha  occ. eigenvalues --   -0.36924  -0.36765  -0.36668  -0.36256  -0.35655
 Alpha  occ. eigenvalues --   -0.35584  -0.35376  -0.35163  -0.34919  -0.34846
 Alpha  occ. eigenvalues --   -0.34469  -0.34160  -0.33930  -0.33754  -0.33216
 Alpha  occ. eigenvalues --   -0.33147  -0.32898  -0.32581  -0.32319  -0.32150
 Alpha  occ. eigenvalues --   -0.32119  -0.31562  -0.31416  -0.31289  -0.31221
 Alpha  occ. eigenvalues --   -0.31156  -0.30576  -0.30315  -0.29323  -0.29174
 Alpha  occ. eigenvalues --   -0.28852  -0.28286  -0.27706  -0.26741  -0.26428
 Alpha  occ. eigenvalues --   -0.25727  -0.25320  -0.25215  -0.24998  -0.21342
 Alpha  occ. eigenvalues --   -0.18582
 Alpha virt. eigenvalues --   -0.11133  -0.05227  -0.03767  -0.02055  -0.01000
 Alpha virt. eigenvalues --   -0.00299   0.00811   0.01271   0.01421   0.02972
 Alpha virt. eigenvalues --    0.04387   0.04493   0.05063   0.05459   0.05728

 Mulliken charges:
               1
     1  Mg   0.962519
     2  C   -0.000062
     3  C   -0.063785
     4  C   -0.070575
     5  C   -0.095967
     6  N   -0.418614
     7  C    0.041850
     8  C   -0.080453
     9  C   -0.086613
    10  C    0.112763
    11  C   -0.025379
    12  C   -0.005280
    13  C   -0.004134
    14  C    0.219974
    15  O   -0.271741
    16  O   -0.395996
    17  N   -0.525761
    18  C    0.172951
    19  C   -0.191533
    20  C   -0.104723
    21  C    0.187867
    22  C    0.065537
    23  C    0.051688
    24  O   -0.194122
    25  C   -0.015274
    26  N   -0.383486
    27  C    0.095903
    28  C   -0.148377
    29  C   -0.094568
    30  C    0.093075
    31  C    0.025972
    32  C    0.008164
    33  C   -0.086032
    34  N   -0.420996
    35  C    0.118747
    36  C   -0.172948
    37  C   -0.011556
    38  C    0.147985
    39  C    0.051026
    40  C    0.153403
    41  O   -0.239324
    42  C   -0.159539
    43  C    0.287821
    44  O   -0.230556
    45  O   -0.382647
    46  C    0.108534
    47  C    0.254704
    48  C   -0.156892
    49  C   -0.192153
    50  C    0.000987
    51  C   -0.020653
    52  C   -0.050684
    53  C    0.037616
    54  C   -0.222961
    55  C    0.002040
    56  C   -0.017426
    57  C   -0.080670
    58  C    0.016382
    59  C   -0.192367
    60  C    0.001903
    61  C   -0.019972
    62  C   -0.048660
    63  C   -0.040506
    64  C   -0.238226
    65  C   -0.022574
    66  C   -0.024941
    67  H    0.014066
    68  H   -0.021254
    69  H    0.005765
    70  H    0.045310
    71  H    0.056062
    72  H    0.052439
    73  H    0.034286
    74  H    0.022450
    75  H    0.050867
    76  H    0.061040
    77  H    0.059704
    78  H    0.062180
    79  H    0.020024
    80  H    0.065882
    81  H    0.069649
    82  H    0.072180
    83  H    0.046818
    84  H    0.076710
    85  H    0.048969
    86  H    0.043156
    87  H    0.035912
    88  H    0.044837
    89  H    0.044854
    90  H    0.044223
    91  H    0.039150
    92  H    0.040880
    93  H    0.046664
    94  H    0.049056
    95  H    0.059390
    96  H    0.046188
    97  H    0.059765
    98  H    0.065564
    99  H    0.075229
   100  H    0.072047
   101  H    0.050269
   102  H    0.062227
   103  H    0.080376
   104  H    0.036751
   105  H    0.071856
   106  H    0.037305
   107  H    0.033107
   108  H    0.037102
   109  H    0.046701
   110  H    0.028449
   111  H    0.025566
   112  H    0.031433
   113  H    0.040569
   114  H    0.032903
   115  H    0.025581
   116  H    0.030105
   117  H    0.028452
   118  H    0.019721
   119  H    0.023901
   120  H    0.027246
   121  H    0.036059
   122  H    0.023510
   123  H    0.031447
   124  H    0.039536
   125  H    0.024488
   126  H    0.027950
   127  H    0.038688
   128  H    0.005002
   129  H    0.020679
   130  H    0.020400
   131  H    0.033055
   132  H    0.027676
   133  H    0.027115
   134  H    0.028812
   135  H    0.031334
   136  H    0.040017
   137  H    0.037619
   138  H    0.035901
   139  H    0.040706
   140  H    0.039637
 Sum of Mulliken charges =  -0.00000

 Dipole moment (field-independent basis, Debye):
    X=             -1.7734    Y=              3.9252    Z=              2.2129  Tot=              4.8424
 Quadrupole moment (field-independent basis, Debye-Ang):
   XX=           -408.6237   YY=           -400.4994   ZZ=           -390.9457
   XY=             46.0300   XZ=             -2.2442   YZ=             21.3075

 Normal termination of Gaussian 16 at Tue May  3 21:17:07 2022.
