 Gaussian 16, Revision A.03,
 Gaussian 16:  ES64L-G16RevA.03 25-Dec-2016

 --------------------------------
 #p wB97XD/Def2SVP td=(nstates=5)
 --------------------------------

 ----------------------------------------------------
 step_101_chromophore_17 TDDFT with wB97XD functional
 ----------------------------------------------------
 Symbolic Z-matrix:
 Charge =  0 Multiplicity = 1

                         Standard orientation:
 ---------------------------------------------------------------------
 Center     Atomic      Atomic             Coordinates (Angstroms)
 Number     Number       Type             X           Y           Z
 ---------------------------------------------------------------------
      1         12           0        3.556750    1.476863   -0.675688
      2          6           0        3.950098   -2.022424   -0.720569
      3          6           0        0.928162    1.275282   -2.842746
      4          6           0        3.101247    4.714648   -0.101330
      5          6           0        5.760620    1.444371    2.212134
      6          7           0        2.475015   -0.226554   -1.538025
      7          6           0        2.889898   -1.558153   -1.527383
      8          6           0        1.907004   -2.380310   -2.316034
      9          6           0        1.088727   -1.304010   -3.082378
     10          6           0        1.491250    0.026867   -2.459902
     11          6           0        1.352332   -1.273356   -4.585107
     12          6           0        1.061656   -3.250766   -1.275612
     13          6           0        1.069876   -4.777112   -1.264227
     14          6           0       -0.253620   -5.478281   -1.213014
     15          8           0       -0.849318   -5.796410   -2.240643
     16          8           0       -0.797629   -5.427878    0.065252
     17          7           0        2.207053    2.830772   -1.426105
     18          6           0        1.236015    2.598186   -2.364808
     19          6           0        0.596305    3.931482   -2.646855
     20          6           0        1.242477    4.945026   -1.818793
     21          6           0        2.281492    4.182155   -1.103627
     22          6           0       -0.637676    4.121223   -3.490029
     23          6           0        0.884437    6.469405   -1.875507
     24          8           0        0.155230    6.797937   -2.748559
     25          6           0        1.423797    7.468328   -0.935430
     26          7           0        4.122958    2.776912    0.975904
     27          6           0        3.967177    4.089025    0.816936
     28          6           0        4.691545    4.849506    1.964347
     29          6           0        5.301665    3.727476    2.839326
     30          6           0        5.030493    2.530237    1.994137
     31          6           0        5.671269    5.983770    1.561616
     32          6           0        4.801718    3.771619    4.310804
     33          6           0        5.980354    3.729479    5.288930
     34          7           0        4.716979    0.072453    0.452366
     35          6           0        5.557418    0.225792    1.563471
     36          6           0        6.229550   -1.023502    1.864447
     37          6           0        5.673669   -1.932796    0.989753
     38          6           0        4.726950   -1.197088    0.149560
     39          6           0        7.044170   -1.322226    2.973958
     40          6           0        5.673504   -3.316434    0.611985
     41          8           0        6.326853   -4.270145    1.071034
     42          6           0        4.502268   -3.435811   -0.538102
     43          6           0        5.229301   -3.887278   -1.784417
     44          8           0        6.068288   -3.215023   -2.316574
     45          8           0        4.641773   -5.008982   -2.352689
     46          6           0        5.048912   -5.299299   -3.742577
     47          6           0       -2.141866   -6.029591    0.268818
     48          6           0       -2.924236   -4.871954    0.708287
     49          6           0       -4.239284   -4.906066    0.992172
     50          6           0       -5.152882   -6.191007    1.145516
     51          6           0       -4.998913   -3.631524    1.375919
     52          6           0       -5.213791   -3.467150    2.930331
     53          6           0       -4.723379   -2.125194    3.454370
     54          6           0       -5.852835   -1.376497    4.235460
     55          6           0       -5.982938   -1.825223    5.643520
     56          6           0       -5.743547    0.213223    4.213326
     57          6           0       -6.777198    0.851549    3.207663
     58          6           0       -6.282441    1.032213    1.768293
     59          6           0       -7.514479    0.733001    0.763545
     60          6           0       -7.431137   -0.630935    0.067558
     61          6           0       -7.545377    1.889318   -0.214321
     62          6           0       -8.819877    2.781545   -0.214248
     63          6           0       -9.923871    2.111668   -1.092908
     64          6           0      -10.796852    3.020710   -1.995829
     65          6           0      -12.047779    2.207560   -2.464572
     66          6           0       -9.994142    3.780935   -3.135247
     67          1           0        0.272355    1.195148   -3.712445
     68          1           0        3.104131    5.806796   -0.104739
     69          1           0        6.437748    1.470896    3.067884
     70          1           0        2.394732   -3.105586   -2.966871
     71          1           0        0.015864   -1.489643   -3.040917
     72          1           0        1.193990   -0.359789   -5.158839
     73          1           0        0.954456   -2.061637   -5.224251
     74          1           0        2.364213   -1.631366   -4.775874
     75          1           0        0.007516   -2.982648   -1.344810
     76          1           0        1.412989   -2.972380   -0.282729
     77          1           0        1.546935   -5.028451   -0.316495
     78          1           0        1.647051   -5.121796   -2.121152
     79          1           0       -0.693064    3.266674   -4.164954
     80          1           0       -0.505583    4.965824   -4.166305
     81          1           0       -1.552298    4.219669   -2.906215
     82          1           0        1.116370    7.258107    0.088817
     83          1           0        1.078800    8.482823   -1.135315
     84          1           0        2.499343    7.553325   -1.085787
     85          1           0        3.876053    5.365383    2.471588
     86          1           0        6.392067    3.720154    2.818005
     87          1           0        5.698231    6.029708    0.472413
     88          1           0        6.681920    5.737957    1.887691
     89          1           0        5.257547    6.929453    1.912944
     90          1           0        4.130491    2.921851    4.435250
     91          1           0        4.218080    4.650712    4.580967
     92          1           0        5.779993    4.536040    5.993650
     93          1           0        7.000595    3.862943    4.931571
     94          1           0        5.893277    2.754014    5.767277
     95          1           0        6.490638   -1.178337    3.901671
     96          1           0        7.916635   -0.670945    2.920576
     97          1           0        7.403801   -2.350373    2.988005
     98          1           0        3.796915   -4.226892   -0.283297
     99          1           0        5.599047   -6.239537   -3.693458
    100          1           0        5.564427   -4.501326   -4.276701
    101          1           0        4.101388   -5.371531   -4.274994
    102          1           0       -2.060424   -6.747435    1.085874
    103          1           0       -2.567512   -6.446490   -0.643556
    104          1           0       -2.397694   -3.927427    0.571524
    105          1           0       -5.851460   -6.317101    0.319111
    106          1           0       -5.681274   -6.064088    2.089844
    107          1           0       -4.543082   -7.063111    1.382083
    108          1           0       -6.024324   -3.748613    1.023878
    109          1           0       -4.530262   -2.753875    0.928723
    110          1           0       -4.761361   -4.340262    3.399655
    111          1           0       -6.249302   -3.716874    3.162074
    112          1           0       -4.560862   -1.422107    2.638795
    113          1           0       -3.860096   -2.252246    4.108604
    114          1           0       -6.808182   -1.647884    3.786526
    115          1           0       -7.002712   -1.696125    6.005574
    116          1           0       -5.431825   -1.169777    6.318027
    117          1           0       -5.703007   -2.870365    5.771397
    118          1           0       -4.727534    0.477994    3.920041
    119          1           0       -5.865685    0.810694    5.115902
    120          1           0       -7.105472    1.840321    3.527877
    121          1           0       -7.631590    0.175541    3.240822
    122          1           0       -5.434708    0.376293    1.571688
    123          1           0       -5.881994    2.042168    1.681142
    124          1           0       -8.513556    0.848769    1.183589
    125          1           0       -8.337757   -1.209926    0.236467
    126          1           0       -6.634635   -1.216087    0.527431
    127          1           0       -7.326725   -0.692964   -1.016182
    128          1           0       -7.542904    1.426968   -1.201205
    129          1           0       -6.739538    2.622209   -0.256634
    130          1           0       -8.524155    3.730016   -0.662215
    131          1           0       -9.162167    2.933436    0.809248
    132          1           0      -10.576723    1.533438   -0.439149
    133          1           0       -9.459108    1.494713   -1.861863
    134          1           0      -11.154834    3.842650   -1.374927
    135          1           0      -12.356049    1.526259   -1.672481
    136          1           0      -11.910004    1.628207   -3.377600
    137          1           0      -12.816976    2.964699   -2.620235
    138          1           0       -9.089582    3.245746   -3.422364
    139          1           0       -9.666374    4.734625   -2.721365
    140          1           0      -10.685239    3.929685   -3.965261
 ---------------------------------------------------------------------

 SCF Done:  E(RwB97XD) =  -3007.84535429     A.U. after   19 cycles

 Excitation energies and oscillator strengths:

 Excited State   1:      Singlet-A      1.6400 eV  756.02 nm  f=0.3786  <S**2>=0.000
     245 -> 248       -0.17454
     246 -> 247        0.68687
     245 <- 248       -0.11501
 This state for optimization and/or second-order correction.
 Total Energy, E(TD-HF/TD-DFT) =  -3007.78508724
 Copying the excited state density for this state as the 1-particle RhoCI density.

 Excited State   2:      Singlet-A      2.2412 eV  553.20 nm  f=0.0753  <S**2>=0.000
     245 -> 247        0.61981
     246 -> 248        0.32750

 Excited State   3:      Singlet-A      3.3864 eV  366.13 nm  f=0.0502  <S**2>=0.000
     241 -> 247        0.50417
     242 -> 247       -0.36421
     243 -> 247        0.14813
     246 -> 248        0.24619

 Excited State   4:      Singlet-A      3.4931 eV  354.94 nm  f=0.2640  <S**2>=0.000
     241 -> 247        0.14551
     242 -> 249       -0.13019
     242 -> 250        0.11049
     243 -> 247        0.42591
     243 -> 249       -0.13579
     244 -> 247       -0.10851
     245 -> 247        0.20272
     246 -> 248       -0.40492

 Excited State   5:      Singlet-A      3.6050 eV  343.92 nm  f=0.3641  <S**2>=0.000
     241 -> 249       -0.13082
     241 -> 250        0.10634
     242 -> 247        0.42405
     242 -> 249       -0.20025
     242 -> 250        0.15299
     243 -> 247        0.12359
     245 -> 247       -0.21210
     246 -> 248        0.35810

 The electronic state is 1-A.
 Alpha  occ. eigenvalues --  -46.95581 -19.30131 -19.30026 -19.24709 -19.24507
 Alpha  occ. eigenvalues --  -19.24335 -19.23520 -14.47010 -14.46514 -14.44731
 Alpha  occ. eigenvalues --  -14.43862 -10.42952 -10.42592 -10.39967 -10.38741
 Alpha  occ. eigenvalues --  -10.36116 -10.35687 -10.35590 -10.35502 -10.35367
 Alpha  occ. eigenvalues --  -10.35339 -10.35308 -10.33600 -10.33141 -10.32741
 Alpha  occ. eigenvalues --  -10.32676 -10.32498 -10.32473 -10.32430 -10.32390
 Alpha  occ. eigenvalues --  -10.32048 -10.32042 -10.31711 -10.31216 -10.31097
 Alpha  occ. eigenvalues --  -10.31061 -10.30894 -10.30857 -10.30590 -10.30581
 Alpha  occ. eigenvalues --  -10.30444 -10.30439 -10.30321 -10.29849 -10.29822
 Alpha  occ. eigenvalues --  -10.29587 -10.29568 -10.29546 -10.29453 -10.29364
 Alpha  occ. eigenvalues --  -10.29361 -10.29276 -10.29105 -10.29043 -10.28801
 Alpha  occ. eigenvalues --  -10.28795 -10.28672 -10.28528 -10.28475 -10.28346
 Alpha  occ. eigenvalues --  -10.28264 -10.28239 -10.28211 -10.28121 -10.27562
 Alpha  occ. eigenvalues --  -10.27386  -3.21495  -1.95058  -1.94613  -1.94470
 Alpha  occ. eigenvalues --   -1.18101  -1.17311  -1.15475  -1.10323  -1.09911
 Alpha  occ. eigenvalues --   -1.09540  -1.06483  -1.05568  -1.05026  -1.04137
 Alpha  occ. eigenvalues --   -0.93548  -0.92046  -0.91777  -0.91322  -0.90969
 Alpha  occ. eigenvalues --   -0.90342  -0.90225  -0.89904  -0.89456  -0.88648
 Alpha  occ. eigenvalues --   -0.87992  -0.87618  -0.86543  -0.85890  -0.85732
 Alpha  occ. eigenvalues --   -0.84933  -0.84364  -0.83315  -0.82639  -0.82258
 Alpha  occ. eigenvalues --   -0.81510  -0.80355  -0.79943  -0.79290  -0.77807
 Alpha  occ. eigenvalues --   -0.77455  -0.77251  -0.76941  -0.76523  -0.75390
 Alpha  occ. eigenvalues --   -0.74969  -0.74548  -0.73832  -0.72303  -0.71093
 Alpha  occ. eigenvalues --   -0.70460  -0.69870  -0.69185  -0.68962  -0.67984
 Alpha  occ. eigenvalues --   -0.67515  -0.67289  -0.66404  -0.66219  -0.65461
 Alpha  occ. eigenvalues --   -0.65194  -0.64805  -0.63840  -0.63775  -0.61991
 Alpha  occ. eigenvalues --   -0.61980  -0.61882  -0.61304  -0.60564  -0.60123
 Alpha  occ. eigenvalues --   -0.59435  -0.58944  -0.58445  -0.57790  -0.57391
 Alpha  occ. eigenvalues --   -0.57175  -0.56810  -0.56272  -0.56039  -0.55832
 Alpha  occ. eigenvalues --   -0.55734  -0.55481  -0.54874  -0.54764  -0.54698
 Alpha  occ. eigenvalues --   -0.54444  -0.54068  -0.54044  -0.53961  -0.53735
 Alpha  occ. eigenvalues --   -0.53486  -0.53338  -0.53164  -0.52784  -0.52713
 Alpha  occ. eigenvalues --   -0.52431  -0.52384  -0.52096  -0.52007  -0.51825
 Alpha  occ. eigenvalues --   -0.51643  -0.51386  -0.51217  -0.50985  -0.50684
 Alpha  occ. eigenvalues --   -0.50572  -0.50467  -0.50309  -0.50105  -0.49515
 Alpha  occ. eigenvalues --   -0.49156  -0.48867  -0.48623  -0.48600  -0.48442
 Alpha  occ. eigenvalues --   -0.48423  -0.48127  -0.48000  -0.47801  -0.47621
 Alpha  occ. eigenvalues --   -0.47446  -0.47414  -0.47112  -0.47066  -0.46609
 Alpha  occ. eigenvalues --   -0.46575  -0.46544  -0.46376  -0.46090  -0.46008
 Alpha  occ. eigenvalues --   -0.45620  -0.45536  -0.45437  -0.45340  -0.45105
 Alpha  occ. eigenvalues --   -0.44826  -0.44745  -0.44731  -0.44656  -0.44403
 Alpha  occ. eigenvalues --   -0.44058  -0.43830  -0.43718  -0.43264  -0.42796
 Alpha  occ. eigenvalues --   -0.42633  -0.42506  -0.42183  -0.41935  -0.41824
 Alpha  occ. eigenvalues --   -0.41496  -0.41158  -0.40994  -0.40800  -0.40254
 Alpha  occ. eigenvalues --   -0.40182  -0.39962  -0.39591  -0.39328  -0.39138
 Alpha  occ. eigenvalues --   -0.39108  -0.38546  -0.38429  -0.38308  -0.38203
 Alpha  occ. eigenvalues --   -0.38159  -0.37531  -0.37308  -0.36182  -0.36068
 Alpha  occ. eigenvalues --   -0.35582  -0.35341  -0.34579  -0.33826  -0.33287
 Alpha  occ. eigenvalues --   -0.32265  -0.32190  -0.31770  -0.31723  -0.26435
 Alpha  occ. eigenvalues --   -0.22710
 Alpha virt. eigenvalues --   -0.06969   0.00165   0.02549   0.04490   0.04942
 Alpha virt. eigenvalues --    0.06497   0.07667   0.08099   0.08152   0.09523
 Alpha virt. eigenvalues --    0.10893   0.11317   0.11757   0.12269   0.12487

 Mulliken charges:
               1
     1  Mg   0.955900
     2  C    0.002827
     3  C   -0.084553
     4  C   -0.084575
     5  C   -0.112706
     6  N   -0.385975
     7  C    0.010025
     8  C   -0.052887
     9  C   -0.059453
    10  C    0.103557
    11  C   -0.018685
    12  C    0.004726
    13  C    0.015709
    14  C    0.209037
    15  O   -0.269695
    16  O   -0.395336
    17  N   -0.495666
    18  C    0.168012
    19  C   -0.180284
    20  C   -0.102548
    21  C    0.189351
    22  C    0.078518
    23  C    0.050725
    24  O   -0.189610
    25  C   -0.005693
    26  N   -0.348792
    27  C    0.085204
    28  C   -0.124681
    29  C   -0.059798
    30  C    0.074969
    31  C    0.036727
    32  C    0.017318
    33  C   -0.070266
    34  N   -0.380616
    35  C    0.107339
    36  C   -0.165564
    37  C   -0.010154
    38  C    0.121856
    39  C    0.058514
    40  C    0.134098
    41  O   -0.231846
    42  C   -0.116273
    43  C    0.262265
    44  O   -0.227196
    45  O   -0.380864
    46  C    0.124273
    47  C    0.265225
    48  C   -0.164898
    49  C   -0.178768
    50  C    0.016324
    51  C    0.002546
    52  C   -0.040174
    53  C    0.063292
    54  C   -0.191148
    55  C    0.011777
    56  C   -0.004998
    57  C   -0.058220
    58  C    0.031811
    59  C   -0.164167
    60  C    0.024250
    61  C   -0.000684
    62  C   -0.030663
    63  C   -0.022325
    64  C   -0.210772
    65  C   -0.009866
    66  C   -0.013952
    67  H    0.007315
    68  H   -0.034865
    69  H   -0.000428
    70  H    0.029780
    71  H    0.048282
    72  H    0.046866
    73  H    0.030071
    74  H    0.015577
    75  H    0.041127
    76  H    0.051525
    77  H    0.052949
    78  H    0.055859
    79  H    0.014645
    80  H    0.062966
    81  H    0.067367
    82  H    0.068811
    83  H    0.046643
    84  H    0.073121
    85  H    0.037328
    86  H    0.027055
    87  H    0.028473
    88  H    0.040473
    89  H    0.040201
    90  H    0.036970
    91  H    0.030858
    92  H    0.035155
    93  H    0.040930
    94  H    0.043250
    95  H    0.053466
    96  H    0.039592
    97  H    0.056144
    98  H    0.053860
    99  H    0.071729
   100  H    0.068276
   101  H    0.045572
   102  H    0.058017
   103  H    0.076679
   104  H    0.032818
   105  H    0.067721
   106  H    0.029991
   107  H    0.027320
   108  H    0.027328
   109  H    0.038872
   110  H    0.018771
   111  H    0.017310
   112  H    0.010933
   113  H    0.034369
   114  H    0.016281
   115  H    0.019788
   116  H    0.023196
   117  H    0.022669
   118  H    0.010229
   119  H    0.017466
   120  H    0.020104
   121  H    0.023164
   122  H    0.011786
   123  H    0.023695
   124  H    0.024021
   125  H    0.018974
   126  H    0.008150
   127  H    0.033880
   128  H   -0.010335
   129  H    0.012940
   130  H    0.011291
   131  H    0.024797
   132  H    0.018902
   133  H    0.012773
   134  H    0.017283
   135  H    0.025055
   136  H    0.034471
   137  H    0.031821
   138  H    0.029339
   139  H    0.034858
   140  H    0.034507
 Sum of Mulliken charges =  -0.00000

 Dipole moment (field-independent basis, Debye):
    X=             -2.1695    Y=              4.4554    Z=              1.8237  Tot=              5.2805
 Quadrupole moment (field-independent basis, Debye-Ang):
   XX=           -411.1336   YY=           -397.7121   ZZ=           -390.5647
   XY=             46.9741   XZ=             -3.6845   YZ=             20.1621

 Normal termination of Gaussian 16 at Tue May  3 21:46:06 2022.
