 Gaussian 16, Revision A.03,
 Gaussian 16:  ES64L-G16RevA.03 25-Dec-2016

 --------------------
 #p ZINDO=(nstates=5)
 --------------------

 -----------------------------
 step_101_chromophore_17 ZINDO
 -----------------------------
 Symbolic Z-matrix:
 Charge =  0 Multiplicity = 1

                         Standard orientation:
 ---------------------------------------------------------------------
 Center     Atomic      Atomic             Coordinates (Angstroms)
 Number     Number       Type             X           Y           Z
 ---------------------------------------------------------------------
      1         12           0        3.556750    1.476863   -0.675688
      2          6           0        3.950098   -2.022424   -0.720569
      3          6           0        0.928162    1.275282   -2.842746
      4          6           0        3.101247    4.714648   -0.101330
      5          6           0        5.760620    1.444371    2.212134
      6          7           0        2.475015   -0.226554   -1.538025
      7          6           0        2.889898   -1.558153   -1.527383
      8          6           0        1.907004   -2.380310   -2.316034
      9          6           0        1.088727   -1.304010   -3.082378
     10          6           0        1.491250    0.026867   -2.459902
     11          6           0        1.352332   -1.273356   -4.585107
     12          6           0        1.061656   -3.250766   -1.275612
     13          6           0        1.069876   -4.777112   -1.264227
     14          6           0       -0.253620   -5.478281   -1.213014
     15          8           0       -0.849318   -5.796410   -2.240643
     16          8           0       -0.797629   -5.427878    0.065252
     17          7           0        2.207053    2.830772   -1.426105
     18          6           0        1.236015    2.598186   -2.364808
     19          6           0        0.596305    3.931482   -2.646855
     20          6           0        1.242477    4.945026   -1.818793
     21          6           0        2.281492    4.182155   -1.103627
     22          6           0       -0.637676    4.121223   -3.490029
     23          6           0        0.884437    6.469405   -1.875507
     24          8           0        0.155230    6.797937   -2.748559
     25          6           0        1.423797    7.468328   -0.935430
     26          7           0        4.122958    2.776912    0.975904
     27          6           0        3.967177    4.089025    0.816936
     28          6           0        4.691545    4.849506    1.964347
     29          6           0        5.301665    3.727476    2.839326
     30          6           0        5.030493    2.530237    1.994137
     31          6           0        5.671269    5.983770    1.561616
     32          6           0        4.801718    3.771619    4.310804
     33          6           0        5.980354    3.729479    5.288930
     34          7           0        4.716979    0.072453    0.452366
     35          6           0        5.557418    0.225792    1.563471
     36          6           0        6.229550   -1.023502    1.864447
     37          6           0        5.673669   -1.932796    0.989753
     38          6           0        4.726950   -1.197088    0.149560
     39          6           0        7.044170   -1.322226    2.973958
     40          6           0        5.673504   -3.316434    0.611985
     41          8           0        6.326853   -4.270145    1.071034
     42          6           0        4.502268   -3.435811   -0.538102
     43          6           0        5.229301   -3.887278   -1.784417
     44          8           0        6.068288   -3.215023   -2.316574
     45          8           0        4.641773   -5.008982   -2.352689
     46          6           0        5.048912   -5.299299   -3.742577
     47          6           0       -2.141866   -6.029591    0.268818
     48          6           0       -2.924236   -4.871954    0.708287
     49          6           0       -4.239284   -4.906066    0.992172
     50          6           0       -5.152882   -6.191007    1.145516
     51          6           0       -4.998913   -3.631524    1.375919
     52          6           0       -5.213791   -3.467150    2.930331
     53          6           0       -4.723379   -2.125194    3.454370
     54          6           0       -5.852835   -1.376497    4.235460
     55          6           0       -5.982938   -1.825223    5.643520
     56          6           0       -5.743547    0.213223    4.213326
     57          6           0       -6.777198    0.851549    3.207663
     58          6           0       -6.282441    1.032213    1.768293
     59          6           0       -7.514479    0.733001    0.763545
     60          6           0       -7.431137   -0.630935    0.067558
     61          6           0       -7.545377    1.889318   -0.214321
     62          6           0       -8.819877    2.781545   -0.214248
     63          6           0       -9.923871    2.111668   -1.092908
     64          6           0      -10.796852    3.020710   -1.995829
     65          6           0      -12.047779    2.207560   -2.464572
     66          6           0       -9.994142    3.780935   -3.135247
     67          1           0        0.272355    1.195148   -3.712445
     68          1           0        3.104131    5.806796   -0.104739
     69          1           0        6.437748    1.470896    3.067884
     70          1           0        2.394732   -3.105586   -2.966871
     71          1           0        0.015864   -1.489643   -3.040917
     72          1           0        1.193990   -0.359789   -5.158839
     73          1           0        0.954456   -2.061637   -5.224251
     74          1           0        2.364213   -1.631366   -4.775874
     75          1           0        0.007516   -2.982648   -1.344810
     76          1           0        1.412989   -2.972380   -0.282729
     77          1           0        1.546935   -5.028451   -0.316495
     78          1           0        1.647051   -5.121796   -2.121152
     79          1           0       -0.693064    3.266674   -4.164954
     80          1           0       -0.505583    4.965824   -4.166305
     81          1           0       -1.552298    4.219669   -2.906215
     82          1           0        1.116370    7.258107    0.088817
     83          1           0        1.078800    8.482823   -1.135315
     84          1           0        2.499343    7.553325   -1.085787
     85          1           0        3.876053    5.365383    2.471588
     86          1           0        6.392067    3.720154    2.818005
     87          1           0        5.698231    6.029708    0.472413
     88          1           0        6.681920    5.737957    1.887691
     89          1           0        5.257547    6.929453    1.912944
     90          1           0        4.130491    2.921851    4.435250
     91          1           0        4.218080    4.650712    4.580967
     92          1           0        5.779993    4.536040    5.993650
     93          1           0        7.000595    3.862943    4.931571
     94          1           0        5.893277    2.754014    5.767277
     95          1           0        6.490638   -1.178337    3.901671
     96          1           0        7.916635   -0.670945    2.920576
     97          1           0        7.403801   -2.350373    2.988005
     98          1           0        3.796915   -4.226892   -0.283297
     99          1           0        5.599047   -6.239537   -3.693458
    100          1           0        5.564427   -4.501326   -4.276701
    101          1           0        4.101388   -5.371531   -4.274994
    102          1           0       -2.060424   -6.747435    1.085874
    103          1           0       -2.567512   -6.446490   -0.643556
    104          1           0       -2.397694   -3.927427    0.571524
    105          1           0       -5.851460   -6.317101    0.319111
    106          1           0       -5.681274   -6.064088    2.089844
    107          1           0       -4.543082   -7.063111    1.382083
    108          1           0       -6.024324   -3.748613    1.023878
    109          1           0       -4.530262   -2.753875    0.928723
    110          1           0       -4.761361   -4.340262    3.399655
    111          1           0       -6.249302   -3.716874    3.162074
    112          1           0       -4.560862   -1.422107    2.638795
    113          1           0       -3.860096   -2.252246    4.108604
    114          1           0       -6.808182   -1.647884    3.786526
    115          1           0       -7.002712   -1.696125    6.005574
    116          1           0       -5.431825   -1.169777    6.318027
    117          1           0       -5.703007   -2.870365    5.771397
    118          1           0       -4.727534    0.477994    3.920041
    119          1           0       -5.865685    0.810694    5.115902
    120          1           0       -7.105472    1.840321    3.527877
    121          1           0       -7.631590    0.175541    3.240822
    122          1           0       -5.434708    0.376293    1.571688
    123          1           0       -5.881994    2.042168    1.681142
    124          1           0       -8.513556    0.848769    1.183589
    125          1           0       -8.337757   -1.209926    0.236467
    126          1           0       -6.634635   -1.216087    0.527431
    127          1           0       -7.326725   -0.692964   -1.016182
    128          1           0       -7.542904    1.426968   -1.201205
    129          1           0       -6.739538    2.622209   -0.256634
    130          1           0       -8.524155    3.730016   -0.662215
    131          1           0       -9.162167    2.933436    0.809248
    132          1           0      -10.576723    1.533438   -0.439149
    133          1           0       -9.459108    1.494713   -1.861863
    134          1           0      -11.154834    3.842650   -1.374927
    135          1           0      -12.356049    1.526259   -1.672481
    136          1           0      -11.910004    1.628207   -3.377600
    137          1           0      -12.816976    2.964699   -2.620235
    138          1           0       -9.089582    3.245746   -3.422364
    139          1           0       -9.666374    4.734625   -2.721365
    140          1           0      -10.685239    3.929685   -3.965261
 ---------------------------------------------------------------------

 SCF Done:  E(RZINDO/S) =  -474.281631701     A.U. after   19 cycles

 Excitation energies and oscillator strengths:

 Excited State   1:      Singlet-A      1.2521 eV  990.18 nm  f=0.5791  <S**2>=0.000
     175 ->178         0.17274
     176 ->177         0.66887
 This state for optimization and/or second-order correction.
 Total Energy, E(CIS/TDA) =  -474.235616545
 Copying the excited state density for this state as the 1-particle RhoCI density.

 Excited State   2:      Singlet-A      1.9396 eV  639.21 nm  f=0.0187  <S**2>=0.000
     175 ->177         0.51791
     176 ->178        -0.45386

 Excited State   3:      Singlet-A      2.9148 eV  425.36 nm  f=0.5043  <S**2>=0.000
     175 ->177        -0.30612
     176 ->178        -0.38798
     176 ->179         0.39754
     176 ->182         0.20837

 Excited State   4:      Singlet-A      2.9832 eV  415.61 nm  f=0.2372  <S**2>=0.000
     175 ->177         0.17801
     176 ->178         0.19462
     176 ->179         0.23486
     176 ->180         0.52161
     176 ->181        -0.27728

 Excited State   5:      Singlet-A      3.0394 eV  407.92 nm  f=0.0048  <S**2>=0.000
     167 ->179        -0.15271
     167 ->182         0.11728
     167 ->185        -0.10770
     168 ->177        -0.26044
     168 ->179        -0.36402
     168 ->181        -0.13338
     168 ->182         0.27163
     168 ->185        -0.24624

 The electronic state is 1-A.
 Alpha  occ. eigenvalues --   -1.84117  -1.81233  -1.79132  -1.72403  -1.71520
 Alpha  occ. eigenvalues --   -1.70573  -1.65313  -1.63061  -1.60881  -1.55929
 Alpha  occ. eigenvalues --   -1.53823  -1.51262  -1.48859  -1.48003  -1.47747
 Alpha  occ. eigenvalues --   -1.44331  -1.43454  -1.40880  -1.38379  -1.37594
 Alpha  occ. eigenvalues --   -1.36157  -1.35624  -1.32846  -1.31346  -1.29865
 Alpha  occ. eigenvalues --   -1.27700  -1.26874  -1.23517  -1.21328  -1.18543
 Alpha  occ. eigenvalues --   -1.16955  -1.16224  -1.15171  -1.14280  -1.13224
 Alpha  occ. eigenvalues --   -1.12765  -1.10308  -1.08793  -1.04748  -1.03681
 Alpha  occ. eigenvalues --   -1.03105  -1.00994  -0.98843  -0.98118  -0.97432
 Alpha  occ. eigenvalues --   -0.95797  -0.94849  -0.93773  -0.93002  -0.92850
 Alpha  occ. eigenvalues --   -0.90466  -0.89847  -0.89128  -0.88752  -0.86499
 Alpha  occ. eigenvalues --   -0.86293  -0.85106  -0.83427  -0.82640  -0.80883
 Alpha  occ. eigenvalues --   -0.79482  -0.78956  -0.77182  -0.76754  -0.76715
 Alpha  occ. eigenvalues --   -0.75920  -0.74878  -0.74171  -0.73942  -0.73507
 Alpha  occ. eigenvalues --   -0.73055  -0.72267  -0.72044  -0.71600  -0.71159
 Alpha  occ. eigenvalues --   -0.70658  -0.70024  -0.69395  -0.68447  -0.68002
 Alpha  occ. eigenvalues --   -0.67670  -0.67301  -0.66909  -0.66457  -0.65842
 Alpha  occ. eigenvalues --   -0.65687  -0.65484  -0.64407  -0.64063  -0.63469
 Alpha  occ. eigenvalues --   -0.63199  -0.63081  -0.62856  -0.62560  -0.62518
 Alpha  occ. eigenvalues --   -0.62170  -0.61866  -0.61404  -0.60148  -0.59508
 Alpha  occ. eigenvalues --   -0.59233  -0.59103  -0.58792  -0.58511  -0.58176
 Alpha  occ. eigenvalues --   -0.57911  -0.57357  -0.56963  -0.56910  -0.56362
 Alpha  occ. eigenvalues --   -0.56090  -0.55597  -0.55478  -0.55286  -0.55154
 Alpha  occ. eigenvalues --   -0.54536  -0.54377  -0.53653  -0.53495  -0.52968
 Alpha  occ. eigenvalues --   -0.52760  -0.52650  -0.52174  -0.51990  -0.51907
 Alpha  occ. eigenvalues --   -0.50965  -0.50819  -0.50529  -0.50418  -0.50380
 Alpha  occ. eigenvalues --   -0.50247  -0.49838  -0.49611  -0.49168  -0.49084
 Alpha  occ. eigenvalues --   -0.48801  -0.48599  -0.48439  -0.48344  -0.47944
 Alpha  occ. eigenvalues --   -0.47798  -0.47330  -0.47249  -0.47110  -0.46806
 Alpha  occ. eigenvalues --   -0.46149  -0.45853  -0.45634  -0.45548  -0.45507
 Alpha  occ. eigenvalues --   -0.45018  -0.44639  -0.44604  -0.44389  -0.44364
 Alpha  occ. eigenvalues --   -0.43641  -0.43433  -0.43038  -0.42015  -0.41836
 Alpha  occ. eigenvalues --   -0.41477  -0.41424  -0.40266  -0.39170  -0.38678
 Alpha  occ. eigenvalues --   -0.37930  -0.37054  -0.36036  -0.35278  -0.34239
 Alpha  occ. eigenvalues --   -0.33562  -0.32462  -0.32324  -0.32099  -0.27160
 Alpha  occ. eigenvalues --   -0.21642
 Alpha virt. eigenvalues --   -0.08446  -0.02240  -0.00404   0.00898   0.01039
 Alpha virt. eigenvalues --    0.01395   0.02690   0.03111   0.04384   0.04787
 Alpha virt. eigenvalues --    0.05956   0.06290   0.07256   0.07523   0.07735

 Mulliken charges:
               1
     1  Mg   0.433572
     2  C   -0.037066
     3  C   -0.092221
     4  C   -0.088271
     5  C   -0.047061
     6  N   -0.296148
     7  C    0.110966
     8  C    0.013252
     9  C    0.023165
    10  C    0.168604
    11  C   -0.063031
    12  C   -0.025776
    13  C    0.008535
    14  C    0.467819
    15  O   -0.518782
    16  O   -0.279254
    17  N   -0.328221
    18  C    0.138390
    19  C    0.038419
    20  C   -0.058822
    21  C    0.136478
    22  C   -0.034900
    23  C    0.344984
    24  O   -0.496676
    25  C   -0.022320
    26  N   -0.268146
    27  C    0.159519
    28  C   -0.002285
    29  C   -0.004861
    30  C    0.091804
    31  C   -0.054188
    32  C   -0.025357
    33  C   -0.060503
    34  N   -0.302127
    35  C    0.046732
    36  C    0.042772
    37  C   -0.071586
    38  C    0.116902
    39  C   -0.028153
    40  C    0.322934
    41  O   -0.537490
    42  C    0.051310
    43  C    0.483590
    44  O   -0.512037
    45  O   -0.283456
    46  C    0.073420
    47  C    0.106992
    48  C   -0.077980
    49  C   -0.023327
    50  C   -0.049986
    51  C   -0.029381
    52  C   -0.032443
    53  C   -0.026115
    54  C   -0.009888
    55  C   -0.051828
    56  C   -0.045828
    57  C   -0.043336
    58  C   -0.033696
    59  C   -0.007907
    60  C   -0.056475
    61  C   -0.044963
    62  C   -0.041561
    63  C   -0.038348
    64  C   -0.020274
    65  C   -0.057378
    66  C   -0.058282
    67  H    0.030358
    68  H    0.022707
    69  H    0.026555
    70  H    0.037006
    71  H    0.034354
    72  H    0.028183
    73  H    0.018245
    74  H    0.013604
    75  H    0.024436
    76  H    0.024649
    77  H    0.031174
    78  H    0.042402
    79  H    0.013489
    80  H    0.043138
    81  H    0.044802
    82  H    0.039698
    83  H    0.031658
    84  H    0.041106
    85  H    0.025150
    86  H    0.030032
    87  H    0.017088
    88  H    0.030134
    89  H    0.024441
    90  H    0.023032
    91  H    0.021153
    92  H    0.014463
    93  H    0.028554
    94  H    0.019807
    95  H    0.030009
    96  H    0.025387
    97  H    0.031327
    98  H    0.049652
    99  H    0.047620
   100  H    0.054636
   101  H    0.026470
   102  H    0.047326
   103  H    0.066539
   104  H    0.038472
   105  H    0.041748
   106  H    0.021385
   107  H    0.020822
   108  H    0.018034
   109  H    0.025978
   110  H    0.016457
   111  H    0.019646
   112  H    0.024463
   113  H    0.028656
   114  H    0.019924
   115  H    0.009076
   116  H    0.015610
   117  H    0.015940
   118  H    0.010914
   119  H    0.022800
   120  H    0.015710
   121  H    0.018465
   122  H    0.021702
   123  H    0.021732
   124  H    0.032591
   125  H    0.010035
   126  H    0.014905
   127  H    0.026176
   128  H    0.007447
   129  H    0.016952
   130  H    0.016969
   131  H    0.022189
   132  H    0.019115
   133  H    0.020569
   134  H    0.010825
   135  H    0.019157
   136  H    0.023466
   137  H    0.014917
   138  H    0.023107
   139  H    0.018519
   140  H    0.022719
 Sum of Mulliken charges =  -0.00000

 Dipole moment (field-independent basis, Debye):
    X=             -3.7387    Y=              5.6503    Z=              1.9138  Tot=              7.0403
 N-N= 4.496751617660D+03 E-N= 0.000000000000D+00  KE=-9.667498754507D+03
 Leave Link  601 at Tue May  3 21:58:48 2022, MaxMem=  6710886400 cpu:               0.8 elap:               0.1
 (Enter /sw/apps/gaussian-16.0/g16/l9999.exe)
 1\1\GINC-BP1-COMPUTE050\SP\RZINDO CIS\STO-3G\C55H74Mg1N4O6\OF15641\03-
 May-2022\0\\#p ZINDO=(nstates=5)\\step_101_chromophore_17 ZINDO\\0,1\M
 g,0,29.242,58.877,41.103\C,0,26.083,57.456,40.468\C,0,30.806,56.201,39
 .675\C,0,32.049,60.626,41.39\C,0,27.447,61.958,41.798\N,0,28.485,57.11
 1,40.043\C,0,27.163,56.667,40.019\C,0,27.1,55.367,39.264\C,0,28.592,54
 .94,39.181\C,0,29.385,56.154,39.648\C,0,28.943,53.73,40.042\C,0,26.407
 ,55.661,37.854\C,0,25.089,55.023,37.423\C,0,25.03,54.405,36.059\O,0,25

 Normal termination of Gaussian 16 at Tue May  3 21:58:48 2022.
