 Gaussian 16, Revision A.03,
 Gaussian 16:  ES64L-G16RevA.03 25-Dec-2016

 ------------------------------
 #p blyp/Def2SVP td=(nstates=5)
 ------------------------------

 ---------------------------------------------------
 step_1201_chromophore_13 TDDFT with blyp functional
 ---------------------------------------------------
 Symbolic Z-matrix:
 Charge =  0 Multiplicity = 1

                         Standard orientation:
 ---------------------------------------------------------------------
 Center     Atomic      Atomic             Coordinates (Angstroms)
 Number     Number       Type             X           Y           Z
 ---------------------------------------------------------------------
      1         12           0       -5.959460    0.346216    0.013043
      2          6           0       -3.575654   -2.124258   -0.092006
      3          6           0       -3.337436    2.581811    0.848363
      4          6           0       -8.232353    2.546043    0.341239
      5          6           0       -8.487345   -1.994265   -0.803901
      6          7           0       -3.622679    0.173479    0.294111
      7          6           0       -2.873378   -0.921956    0.201013
      8          6           0       -1.366508   -0.694279    0.523663
      9          6           0       -1.409788    0.810990    0.951432
     10          6           0       -2.862107    1.292423    0.630016
     11          6           0       -1.151340    1.083363    2.509281
     12          6           0       -0.455201   -0.959396   -0.724031
     13          6           0        0.744541   -1.905965   -0.518641
     14          6           0        2.071175   -1.660104   -1.351985
     15          8           0        2.233427   -1.132683   -2.461793
     16          8           0        3.087708   -2.187268   -0.600120
     17          7           0       -5.807459    2.250206    0.448639
     18          6           0       -4.683597    3.023105    0.615944
     19          6           0       -5.131060    4.388644    0.736877
     20          6           0       -6.497285    4.401936    0.583206
     21          6           0       -6.940220    3.001454    0.491555
     22          6           0       -4.208691    5.613685    0.852475
     23          6           0       -7.440897    5.605804    0.711911
     24          8           0       -8.660649    5.512954    0.839121
     25          6           0       -6.963126    6.941883    0.954981
     26          7           0       -8.152756    0.190631    0.179940
     27          6           0       -8.845819    1.312795    0.231315
     28          6           0      -10.282206    1.140452   -0.261793
     29          6           0      -10.289231   -0.264862   -0.843587
     30          6           0       -8.901104   -0.749912   -0.436816
     31          6           0      -11.393342    1.418850    0.797540
     32          6           0      -10.475941   -0.225704   -2.351266
     33          6           0       -9.305361    0.277153   -3.159780
     34          7           0       -6.073440   -1.609340   -0.407744
     35          6           0       -7.118730   -2.462418   -0.659853
     36          6           0       -6.664670   -3.850623   -0.712020
     37          6           0       -5.289149   -3.747234   -0.505992
     38          6           0       -5.000254   -2.374463   -0.314291
     39          6           0       -7.523319   -5.101800   -0.641010
     40          6           0       -4.094332   -4.498184   -0.256941
     41          8           0       -3.883733   -5.714944   -0.247973
     42          6           0       -2.999902   -3.507520   -0.054634
     43          6           0       -2.456969   -3.880176    1.253500
     44          8           0       -3.101977   -3.911160    2.272299
     45          8           0       -1.090757   -4.101477    1.115475
     46          6           0       -0.387975   -4.405758    2.377980
     47          6           0        4.493543   -2.249698   -1.080094
     48          6           0        5.394496   -1.320143   -0.289177
     49          6           0        6.721506   -1.192837   -0.179999
     50          6           0        7.752188   -1.982003   -0.938824
     51          6           0        7.336033   -0.054072    0.587307
     52          6           0        7.339595    1.331887   -0.108218
     53          6           0        8.598020    2.107412    0.039045
     54          6           0        9.333727    2.495145   -1.266877
     55          6           0        8.515980    3.524808   -2.045742
     56          6           0        9.845277    1.283637   -2.101529
     57          6           0       11.271816    1.489581   -2.628366
     58          6           0       12.276639    0.555828   -1.902917
     59          6           0       13.418699    1.369469   -1.318379
     60          6           0       14.394383    1.931772   -2.407016
     61          6           0       14.036756    0.687895   -0.036996
     62          6           0       13.271575    1.035876    1.235089
     63          6           0       13.309399   -0.106595    2.102282
     64          6           0       11.962309   -0.378561    2.780292
     65          6           0       12.115904   -1.125383    4.144637
     66          6           0       11.060920   -1.262237    1.885279
     67          1           0       -2.630111    3.375215    1.096049
     68          1           0       -8.906798    3.374991    0.117247
     69          1           0       -9.212589   -2.655668   -1.282645
     70          1           0       -1.072137   -1.369866    1.325592
     71          1           0       -0.656307    1.386246    0.413539
     72          1           0       -1.222184    0.148052    3.063576
     73          1           0       -1.939696    1.687176    2.959424
     74          1           0       -0.127255    1.454041    2.552911
     75          1           0        0.015327   -0.024341   -1.029124
     76          1           0       -1.007848   -1.321827   -1.590454
     77          1           0        0.443698   -2.896928   -0.859386
     78          1           0        1.004360   -1.933169    0.540323
     79          1           0       -4.486493    6.243947    0.008060
     80          1           0       -3.166747    5.312291    0.742730
     81          1           0       -4.314153    6.224119    1.749313
     82          1           0       -7.819941    7.616338    0.977671
     83          1           0       -6.442021    7.133201    0.016722
     84          1           0       -6.306426    7.129673    1.803999
     85          1           0      -10.213283    1.829945   -1.103805
     86          1           0      -10.943307   -1.003003   -0.381511
     87          1           0      -12.277931    0.833826    0.543855
     88          1           0      -11.664535    2.474614    0.805711
     89          1           0      -11.103253    1.175153    1.818916
     90          1           0      -11.330243    0.362442   -2.686063
     91          1           0      -10.624077   -1.214208   -2.786355
     92          1           0       -9.703203    0.979611   -3.891505
     93          1           0       -8.665000   -0.457476   -3.645767
     94          1           0       -8.609503    0.702842   -2.436305
     95          1           0       -7.582582   -5.600673   -1.608359
     96          1           0       -8.560856   -4.922885   -0.357955
     97          1           0       -7.081224   -5.785776    0.083996
     98          1           0       -2.193209   -3.647455   -0.774238
     99          1           0        0.251446   -3.637628    2.814089
    100          1           0        0.176273   -5.328019    2.240439
    101          1           0       -0.996769   -4.704862    3.232365
    102          1           0        4.530987   -2.105652   -2.160326
    103          1           0        4.816301   -3.280575   -0.937363
    104          1           0        4.924822   -0.639679    0.421753
    105          1           0        8.174355   -2.780317   -0.327684
    106          1           0        8.435852   -1.270687   -1.403346
    107          1           0        7.301608   -2.371491   -1.852779
    108          1           0        8.255939   -0.490552    0.976301
    109          1           0        6.772793    0.043142    1.514671
    110          1           0        6.566148    1.912486    0.393383
    111          1           0        6.967522    1.262068   -1.130660
    112          1           0        9.330035    1.636029    0.695837
    113          1           0        8.278744    3.013538    0.553508
    114          1           0       10.160312    3.154829   -1.003378
    115          1           0        8.925047    4.519328   -2.221915
    116          1           0        7.606162    3.778880   -1.501932
    117          1           0        8.174866    3.242218   -3.042182
    118          1           0        9.227750    1.128346   -2.986842
    119          1           0        9.825902    0.420605   -1.436877
    120          1           0       11.506301    2.549819   -2.532788
    121          1           0       11.330557    1.371260   -3.710159
    122          1           0       12.671966   -0.163015   -2.620892
    123          1           0       11.817950    0.049680   -1.054175
    124          1           0       13.002373    2.288262   -0.905809
    125          1           0       14.216198    1.405893   -3.344999
    126          1           0       15.430406    1.656573   -2.210886
    127          1           0       14.247215    3.004303   -2.532605
    128          1           0       15.092554    0.953160    0.024224
    129          1           0       14.044373   -0.386862   -0.220193
    130          1           0       12.245490    1.287286    0.965451
    131          1           0       13.764592    1.866666    1.740448
    132          1           0       13.923132    0.152044    2.965280
    133          1           0       13.681480   -1.023038    1.646321
    134          1           0       11.471280    0.572975    2.987366
    135          1           0       12.165156   -0.304727    4.859703
    136          1           0       12.924724   -1.838955    4.300728
    137          1           0       11.219346   -1.729685    4.285087
    138          1           0       11.487454   -1.515911    0.914267
    139          1           0       10.314916   -0.517018    1.608430
    140          1           0       10.850529   -2.223731    2.353515
 ---------------------------------------------------------------------

 SCF Done:  E(RB-LYP) =  -3007.33388559     A.U. after   21 cycles

 Excitation energies and oscillator strengths:

 Excited State   1:      Singlet-A      1.7893 eV  692.93 nm  f=0.0658  <S**2>=0.000
     243 -> 247       -0.23180
     244 -> 247        0.45257
     245 -> 247        0.36177
     246 -> 247       -0.31834
 This state for optimization and/or second-order correction.
 Total Energy, E(TD-HF/TD-DFT) =  -3007.26813083
 Copying the excited state density for this state as the 1-particle RhoCI density.

 Excited State   2:      Singlet-A      1.8747 eV  661.35 nm  f=0.2326  <S**2>=0.000
     244 -> 247        0.35357
     245 -> 247        0.12188
     245 -> 248       -0.17361
     246 -> 247        0.57920
     246 <- 247       -0.12403

 Excited State   3:      Singlet-A      1.8813 eV  659.04 nm  f=0.0288  <S**2>=0.000
     243 -> 247        0.61201
     244 -> 247        0.27409
     245 -> 247       -0.11613
     246 -> 247       -0.18323

 Excited State   4:      Singlet-A      2.0461 eV  605.95 nm  f=0.0829  <S**2>=0.000
     243 -> 247        0.25710
     244 -> 247       -0.30015
     245 -> 247        0.53330
     246 -> 248        0.21542

 Excited State   5:      Singlet-A      2.3670 eV  523.81 nm  f=0.0000  <S**2>=0.000
     242 -> 247        0.70711

 The electronic state is 1-A.
 Alpha  occ. eigenvalues --  -46.27041 -18.82869 -18.81842 -18.76975 -18.76830
 Alpha  occ. eigenvalues --  -18.75217 -18.74842 -14.03175 -14.02625 -14.01360
 Alpha  occ. eigenvalues --  -14.01284 -10.04498 -10.03748  -9.99552  -9.98604
 Alpha  occ. eigenvalues --   -9.98570  -9.97536  -9.96833  -9.96618  -9.96013
 Alpha  occ. eigenvalues --   -9.95889  -9.95880  -9.95695  -9.95466  -9.94977
 Alpha  occ. eigenvalues --   -9.94922  -9.94593  -9.93918  -9.93660  -9.93627
 Alpha  occ. eigenvalues --   -9.93511  -9.93470  -9.93441  -9.93392  -9.93149
 Alpha  occ. eigenvalues --   -9.93090  -9.92731  -9.92583  -9.92453  -9.92323
 Alpha  occ. eigenvalues --   -9.92310  -9.92287  -9.92257  -9.92143  -9.91989
 Alpha  occ. eigenvalues --   -9.91903  -9.91858  -9.91674  -9.91594  -9.91579
 Alpha  occ. eigenvalues --   -9.91543  -9.91496  -9.91328  -9.91296  -9.91275
 Alpha  occ. eigenvalues --   -9.91224  -9.91143  -9.91029  -9.90859  -9.90795
 Alpha  occ. eigenvalues --   -9.90787  -9.90764  -9.90720  -9.90636  -9.90568
 Alpha  occ. eigenvalues --   -9.90027  -2.91874  -1.72281  -1.71822  -1.71548
 Alpha  occ. eigenvalues --   -0.97752  -0.96736  -0.91510  -0.90860  -0.90049
 Alpha  occ. eigenvalues --   -0.88876  -0.87771  -0.86805  -0.86185  -0.85401
 Alpha  occ. eigenvalues --   -0.75857  -0.74213  -0.73884  -0.73496  -0.72667
 Alpha  occ. eigenvalues --   -0.72260  -0.72141  -0.71212  -0.70997  -0.70829
 Alpha  occ. eigenvalues --   -0.69850  -0.68977  -0.68380  -0.67620  -0.67564
 Alpha  occ. eigenvalues --   -0.66873  -0.66264  -0.65890  -0.65437  -0.64487
 Alpha  occ. eigenvalues --   -0.64219  -0.62619  -0.62166  -0.62092  -0.61015
 Alpha  occ. eigenvalues --   -0.60765  -0.60275  -0.60105  -0.59690  -0.59225
 Alpha  occ. eigenvalues --   -0.58551  -0.58154  -0.56787  -0.55468  -0.55247
 Alpha  occ. eigenvalues --   -0.54492  -0.54216  -0.53007  -0.52880  -0.51574
 Alpha  occ. eigenvalues --   -0.51465  -0.51421  -0.51059  -0.50474  -0.50166
 Alpha  occ. eigenvalues --   -0.49142  -0.48861  -0.48841  -0.48000  -0.46980
 Alpha  occ. eigenvalues --   -0.46173  -0.45912  -0.45827  -0.45485  -0.44700
 Alpha  occ. eigenvalues --   -0.44141  -0.43442  -0.43237  -0.43116  -0.42556
 Alpha  occ. eigenvalues --   -0.42308  -0.42141  -0.41758  -0.41632  -0.41381
 Alpha  occ. eigenvalues --   -0.41005  -0.40961  -0.40593  -0.40480  -0.40226
 Alpha  occ. eigenvalues --   -0.40119  -0.39890  -0.39739  -0.39669  -0.39492
 Alpha  occ. eigenvalues --   -0.39298  -0.39045  -0.38646  -0.38531  -0.38057
 Alpha  occ. eigenvalues --   -0.37958  -0.37810  -0.37672  -0.37305  -0.37160
 Alpha  occ. eigenvalues --   -0.37096  -0.37065  -0.36863  -0.36763  -0.36541
 Alpha  occ. eigenvalues --   -0.36456  -0.36291  -0.36167  -0.35781  -0.35653
 Alpha  occ. eigenvalues --   -0.35603  -0.35457  -0.35292  -0.35174  -0.34832
 Alpha  occ. eigenvalues --   -0.34725  -0.34572  -0.34363  -0.34209  -0.34051
 Alpha  occ. eigenvalues --   -0.33762  -0.33715  -0.33388  -0.33213  -0.32900
 Alpha  occ. eigenvalues --   -0.32768  -0.32551  -0.32532  -0.32366  -0.32263
 Alpha  occ. eigenvalues --   -0.31995  -0.31808  -0.31783  -0.31460  -0.31312
 Alpha  occ. eigenvalues --   -0.31220  -0.30897  -0.30810  -0.30734  -0.30703
 Alpha  occ. eigenvalues --   -0.30586  -0.30452  -0.30258  -0.30106  -0.29925
 Alpha  occ. eigenvalues --   -0.29891  -0.29637  -0.29550  -0.29135  -0.29040
 Alpha  occ. eigenvalues --   -0.28868  -0.28705  -0.28135  -0.28094  -0.27849
 Alpha  occ. eigenvalues --   -0.27298  -0.27196  -0.27108  -0.26816  -0.26514
 Alpha  occ. eigenvalues --   -0.26398  -0.26253  -0.25666  -0.25500  -0.25072
 Alpha  occ. eigenvalues --   -0.24900  -0.24694  -0.24300  -0.23918  -0.23827
 Alpha  occ. eigenvalues --   -0.23462  -0.22795  -0.22001  -0.21694  -0.21300
 Alpha  occ. eigenvalues --   -0.20989  -0.20200  -0.18317  -0.18236  -0.16958
 Alpha  occ. eigenvalues --   -0.15961
 Alpha virt. eigenvalues --   -0.11502  -0.06645  -0.05822  -0.04449  -0.02391
 Alpha virt. eigenvalues --   -0.02232  -0.01717  -0.01497  -0.01227   0.00202
 Alpha virt. eigenvalues --    0.00827   0.01378   0.01487   0.02364   0.02653

 Mulliken charges:
               1
     1  Mg   0.702420
     2  C    0.027173
     3  C   -0.061560
     4  C   -0.048123
     5  C   -0.073463
     6  N   -0.179482
     7  C   -0.117652
     8  C    0.077792
     9  C   -0.019638
    10  C    0.050243
    11  C    0.111142
    12  C    0.126533
    13  C    0.061806
    14  C    0.089749
    15  O   -0.198329
    16  O   -0.279217
    17  N   -0.345262
    18  C    0.115312
    19  C   -0.155295
    20  C    0.056414
    21  C    0.106852
    22  C    0.177151
    23  C   -0.081529
    24  O   -0.177084
    25  C    0.167981
    26  N   -0.161522
    27  C   -0.021515
    28  C    0.069997
    29  C    0.059733
    30  C   -0.040782
    31  C    0.152863
    32  C    0.073204
    33  C    0.059714
    34  N   -0.252613
    35  C    0.099710
    36  C   -0.183620
    37  C    0.107348
    38  C    0.064704
    39  C    0.169702
    40  C   -0.069432
    41  O   -0.150555
    42  C    0.108889
    43  C    0.078456
    44  O   -0.150211
    45  O   -0.278065
    46  C    0.201589
    47  C    0.327672
    48  C   -0.058681
    49  C   -0.231648
    50  C    0.157717
    51  C    0.130774
    52  C    0.131059
    53  C    0.090190
    54  C   -0.050818
    55  C    0.085885
    56  C    0.095310
    57  C    0.075560
    58  C    0.125776
    59  C   -0.130695
    60  C    0.121154
    61  C    0.086391
    62  C    0.111958
    63  C    0.140133
    64  C   -0.161123
    65  C    0.099693
    66  C    0.094421
    67  H   -0.055037
    68  H   -0.041136
    69  H   -0.056870
    70  H   -0.009664
    71  H   -0.022081
    72  H   -0.013969
    73  H    0.004563
    74  H    0.001104
    75  H   -0.015968
    76  H   -0.008853
    77  H    0.024147
    78  H   -0.001044
    79  H   -0.002832
    80  H   -0.015751
    81  H    0.002979
    82  H   -0.010467
    83  H   -0.016785
    84  H    0.018195
    85  H   -0.027770
    86  H   -0.033492
    87  H   -0.009182
    88  H    0.001342
    89  H   -0.004669
    90  H   -0.019990
    91  H   -0.029276
    92  H   -0.006089
    93  H   -0.006864
    94  H   -0.004159
    95  H   -0.003489
    96  H   -0.017374
    97  H    0.018544
    98  H   -0.014081
    99  H    0.016712
   100  H    0.012592
   101  H    0.012400
   102  H    0.011440
   103  H   -0.000583
   104  H   -0.045535
   105  H    0.020206
   106  H   -0.021089
   107  H   -0.036222
   108  H   -0.042742
   109  H   -0.042619
   110  H   -0.036967
   111  H   -0.017724
   112  H   -0.029016
   113  H   -0.045567
   114  H   -0.039681
   115  H   -0.023717
   116  H   -0.032009
   117  H   -0.026674
   118  H   -0.028296
   119  H    0.006408
   120  H   -0.032581
   121  H   -0.042799
   122  H   -0.027251
   123  H   -0.034881
   124  H   -0.037845
   125  H   -0.031650
   126  H   -0.024816
   127  H   -0.004332
   128  H   -0.046126
   129  H   -0.038237
   130  H   -0.018527
   131  H   -0.027835
   132  H   -0.055060
   133  H   -0.030306
   134  H   -0.032566
   135  H   -0.015572
   136  H   -0.010490
   137  H   -0.025278
   138  H   -0.018721
   139  H    0.017311
   140  H   -0.009994
 Sum of Mulliken charges =  -0.00000

 Dipole moment (field-independent basis, Debye):
    X=              3.2503    Y=              3.6283    Z=              0.3776  Tot=              4.8859
 Quadrupole moment (field-independent basis, Debye-Ang):
   XX=           -375.1442   YY=           -420.9419   ZZ=           -409.5614
   XY=             -1.6348   XZ=             22.6122   YZ=              1.1012

 Normal termination of Gaussian 16 at Wed Apr 27 14:12:26 2022.
