 Gaussian 16, Revision A.03,
 Gaussian 16:  ES64L-G16RevA.03 25-Dec-2016

 -----------------------------------
 #p cam-b3lyp/Def2SVP td=(nstates=5)
 -----------------------------------

 --------------------------------------------------------
 step_1201_chromophore_13 TDDFT with cam-b3lyp functional
 --------------------------------------------------------
 Symbolic Z-matrix:
 Charge =  0 Multiplicity = 1

                         Standard orientation:
 ---------------------------------------------------------------------
 Center     Atomic      Atomic             Coordinates (Angstroms)
 Number     Number       Type             X           Y           Z
 ---------------------------------------------------------------------
      1         12           0       -5.959460    0.346216    0.013043
      2          6           0       -3.575654   -2.124258   -0.092006
      3          6           0       -3.337436    2.581811    0.848363
      4          6           0       -8.232353    2.546043    0.341239
      5          6           0       -8.487345   -1.994265   -0.803901
      6          7           0       -3.622679    0.173479    0.294111
      7          6           0       -2.873378   -0.921956    0.201013
      8          6           0       -1.366508   -0.694279    0.523663
      9          6           0       -1.409788    0.810990    0.951432
     10          6           0       -2.862107    1.292423    0.630016
     11          6           0       -1.151340    1.083363    2.509281
     12          6           0       -0.455201   -0.959396   -0.724031
     13          6           0        0.744541   -1.905965   -0.518641
     14          6           0        2.071175   -1.660104   -1.351985
     15          8           0        2.233427   -1.132683   -2.461793
     16          8           0        3.087708   -2.187268   -0.600120
     17          7           0       -5.807459    2.250206    0.448639
     18          6           0       -4.683597    3.023105    0.615944
     19          6           0       -5.131060    4.388644    0.736877
     20          6           0       -6.497285    4.401936    0.583206
     21          6           0       -6.940220    3.001454    0.491555
     22          6           0       -4.208691    5.613685    0.852475
     23          6           0       -7.440897    5.605804    0.711911
     24          8           0       -8.660649    5.512954    0.839121
     25          6           0       -6.963126    6.941883    0.954981
     26          7           0       -8.152756    0.190631    0.179940
     27          6           0       -8.845819    1.312795    0.231315
     28          6           0      -10.282206    1.140452   -0.261793
     29          6           0      -10.289231   -0.264862   -0.843587
     30          6           0       -8.901104   -0.749912   -0.436816
     31          6           0      -11.393342    1.418850    0.797540
     32          6           0      -10.475941   -0.225704   -2.351266
     33          6           0       -9.305361    0.277153   -3.159780
     34          7           0       -6.073440   -1.609340   -0.407744
     35          6           0       -7.118730   -2.462418   -0.659853
     36          6           0       -6.664670   -3.850623   -0.712020
     37          6           0       -5.289149   -3.747234   -0.505992
     38          6           0       -5.000254   -2.374463   -0.314291
     39          6           0       -7.523319   -5.101800   -0.641010
     40          6           0       -4.094332   -4.498184   -0.256941
     41          8           0       -3.883733   -5.714944   -0.247973
     42          6           0       -2.999902   -3.507520   -0.054634
     43          6           0       -2.456969   -3.880176    1.253500
     44          8           0       -3.101977   -3.911160    2.272299
     45          8           0       -1.090757   -4.101477    1.115475
     46          6           0       -0.387975   -4.405758    2.377980
     47          6           0        4.493543   -2.249698   -1.080094
     48          6           0        5.394496   -1.320143   -0.289177
     49          6           0        6.721506   -1.192837   -0.179999
     50          6           0        7.752188   -1.982003   -0.938824
     51          6           0        7.336033   -0.054072    0.587307
     52          6           0        7.339595    1.331887   -0.108218
     53          6           0        8.598020    2.107412    0.039045
     54          6           0        9.333727    2.495145   -1.266877
     55          6           0        8.515980    3.524808   -2.045742
     56          6           0        9.845277    1.283637   -2.101529
     57          6           0       11.271816    1.489581   -2.628366
     58          6           0       12.276639    0.555828   -1.902917
     59          6           0       13.418699    1.369469   -1.318379
     60          6           0       14.394383    1.931772   -2.407016
     61          6           0       14.036756    0.687895   -0.036996
     62          6           0       13.271575    1.035876    1.235089
     63          6           0       13.309399   -0.106595    2.102282
     64          6           0       11.962309   -0.378561    2.780292
     65          6           0       12.115904   -1.125383    4.144637
     66          6           0       11.060920   -1.262237    1.885279
     67          1           0       -2.630111    3.375215    1.096049
     68          1           0       -8.906798    3.374991    0.117247
     69          1           0       -9.212589   -2.655668   -1.282645
     70          1           0       -1.072137   -1.369866    1.325592
     71          1           0       -0.656307    1.386246    0.413539
     72          1           0       -1.222184    0.148052    3.063576
     73          1           0       -1.939696    1.687176    2.959424
     74          1           0       -0.127255    1.454041    2.552911
     75          1           0        0.015327   -0.024341   -1.029124
     76          1           0       -1.007848   -1.321827   -1.590454
     77          1           0        0.443698   -2.896928   -0.859386
     78          1           0        1.004360   -1.933169    0.540323
     79          1           0       -4.486493    6.243947    0.008060
     80          1           0       -3.166747    5.312291    0.742730
     81          1           0       -4.314153    6.224119    1.749313
     82          1           0       -7.819941    7.616338    0.977671
     83          1           0       -6.442021    7.133201    0.016722
     84          1           0       -6.306426    7.129673    1.803999
     85          1           0      -10.213283    1.829945   -1.103805
     86          1           0      -10.943307   -1.003003   -0.381511
     87          1           0      -12.277931    0.833826    0.543855
     88          1           0      -11.664535    2.474614    0.805711
     89          1           0      -11.103253    1.175153    1.818916
     90          1           0      -11.330243    0.362442   -2.686063
     91          1           0      -10.624077   -1.214208   -2.786355
     92          1           0       -9.703203    0.979611   -3.891505
     93          1           0       -8.665000   -0.457476   -3.645767
     94          1           0       -8.609503    0.702842   -2.436305
     95          1           0       -7.582582   -5.600673   -1.608359
     96          1           0       -8.560856   -4.922885   -0.357955
     97          1           0       -7.081224   -5.785776    0.083996
     98          1           0       -2.193209   -3.647455   -0.774238
     99          1           0        0.251446   -3.637628    2.814089
    100          1           0        0.176273   -5.328019    2.240439
    101          1           0       -0.996769   -4.704862    3.232365
    102          1           0        4.530987   -2.105652   -2.160326
    103          1           0        4.816301   -3.280575   -0.937363
    104          1           0        4.924822   -0.639679    0.421753
    105          1           0        8.174355   -2.780317   -0.327684
    106          1           0        8.435852   -1.270687   -1.403346
    107          1           0        7.301608   -2.371491   -1.852779
    108          1           0        8.255939   -0.490552    0.976301
    109          1           0        6.772793    0.043142    1.514671
    110          1           0        6.566148    1.912486    0.393383
    111          1           0        6.967522    1.262068   -1.130660
    112          1           0        9.330035    1.636029    0.695837
    113          1           0        8.278744    3.013538    0.553508
    114          1           0       10.160312    3.154829   -1.003378
    115          1           0        8.925047    4.519328   -2.221915
    116          1           0        7.606162    3.778880   -1.501932
    117          1           0        8.174866    3.242218   -3.042182
    118          1           0        9.227750    1.128346   -2.986842
    119          1           0        9.825902    0.420605   -1.436877
    120          1           0       11.506301    2.549819   -2.532788
    121          1           0       11.330557    1.371260   -3.710159
    122          1           0       12.671966   -0.163015   -2.620892
    123          1           0       11.817950    0.049680   -1.054175
    124          1           0       13.002373    2.288262   -0.905809
    125          1           0       14.216198    1.405893   -3.344999
    126          1           0       15.430406    1.656573   -2.210886
    127          1           0       14.247215    3.004303   -2.532605
    128          1           0       15.092554    0.953160    0.024224
    129          1           0       14.044373   -0.386862   -0.220193
    130          1           0       12.245490    1.287286    0.965451
    131          1           0       13.764592    1.866666    1.740448
    132          1           0       13.923132    0.152044    2.965280
    133          1           0       13.681480   -1.023038    1.646321
    134          1           0       11.471280    0.572975    2.987366
    135          1           0       12.165156   -0.304727    4.859703
    136          1           0       12.924724   -1.838955    4.300728
    137          1           0       11.219346   -1.729685    4.285087
    138          1           0       11.487454   -1.515911    0.914267
    139          1           0       10.314916   -0.517018    1.608430
    140          1           0       10.850529   -2.223731    2.353515
 ---------------------------------------------------------------------

 SCF Done:  E(RCAM-B3LYP) =  -3007.14508810     A.U. after   19 cycles

 Excitation energies and oscillator strengths:

 Excited State   1:      Singlet-A      1.7404 eV  712.40 nm  f=0.3710  <S**2>=0.000
     245 -> 248       -0.18667
     246 -> 247        0.68179
     245 <- 248       -0.10904
 This state for optimization and/or second-order correction.
 Total Energy, E(TD-HF/TD-DFT) =  -3007.08113069
 Copying the excited state density for this state as the 1-particle RhoCI density.

 Excited State   2:      Singlet-A      2.2036 eV  562.64 nm  f=0.1459  <S**2>=0.000
     245 -> 247        0.65223
     246 -> 248        0.25927

 Excited State   3:      Singlet-A      3.4836 eV  355.91 nm  f=0.0003  <S**2>=0.000
     241 -> 247        0.48483
     241 -> 249       -0.28400
     241 -> 250        0.19457
     242 -> 247        0.28557
     243 -> 247       -0.16055

 Excited State   4:      Singlet-A      3.5246 eV  351.76 nm  f=0.0564  <S**2>=0.000
     240 -> 249        0.15581
     240 -> 250        0.11285
     241 -> 247       -0.29368
     241 -> 250       -0.10725
     242 -> 247        0.33550
     242 -> 249        0.18529
     243 -> 247       -0.30807
     246 -> 248       -0.23733

 Excited State   5:      Singlet-A      3.6083 eV  343.61 nm  f=0.1805  <S**2>=0.000
     240 -> 247        0.14715
     242 -> 247        0.15065
     243 -> 247        0.52435
     245 -> 247        0.13272
     246 -> 248       -0.38414

 The electronic state is 1-A.
 Alpha  occ. eigenvalues --  -46.88552 -19.25830 -19.24694 -19.20018 -19.19754
 Alpha  occ. eigenvalues --  -19.18569 -19.17926 -14.42090 -14.41407 -14.39930
 Alpha  occ. eigenvalues --  -14.39628 -10.39867 -10.39090 -10.34853 -10.33710
 Alpha  occ. eigenvalues --  -10.32700 -10.31561 -10.31244 -10.31238 -10.30588
 Alpha  occ. eigenvalues --  -10.30496 -10.30461 -10.29760 -10.29640 -10.29082
 Alpha  occ. eigenvalues --  -10.29079 -10.28679 -10.28455 -10.28200 -10.27767
 Alpha  occ. eigenvalues --  -10.27667 -10.27605 -10.27569 -10.27408 -10.27045
 Alpha  occ. eigenvalues --  -10.26985 -10.26950 -10.26724 -10.26499 -10.26358
 Alpha  occ. eigenvalues --  -10.26283 -10.25997 -10.25895 -10.25723 -10.25694
 Alpha  occ. eigenvalues --  -10.25691 -10.25623 -10.25549 -10.25504 -10.25375
 Alpha  occ. eigenvalues --  -10.25311 -10.25206 -10.25070 -10.25012 -10.24960
 Alpha  occ. eigenvalues --  -10.24853 -10.24778 -10.24667 -10.24485 -10.24480
 Alpha  occ. eigenvalues --  -10.24439 -10.24408 -10.24391 -10.24270 -10.24224
 Alpha  occ. eigenvalues --  -10.23585  -3.17301  -1.92180  -1.91798  -1.91595
 Alpha  occ. eigenvalues --   -1.16291  -1.15126  -1.10066  -1.08929  -1.08170
 Alpha  occ. eigenvalues --   -1.06684  -1.05530  -1.04350  -1.03962  -1.03024
 Alpha  occ. eigenvalues --   -0.92970  -0.91112  -0.90746  -0.90225  -0.89419
 Alpha  occ. eigenvalues --   -0.89002  -0.88922  -0.87815  -0.87716  -0.87591
 Alpha  occ. eigenvalues --   -0.86283  -0.85306  -0.84667  -0.83763  -0.83666
 Alpha  occ. eigenvalues --   -0.82974  -0.82612  -0.81859  -0.81270  -0.80336
 Alpha  occ. eigenvalues --   -0.80003  -0.78448  -0.77746  -0.77582  -0.76425
 Alpha  occ. eigenvalues --   -0.76149  -0.75580  -0.75456  -0.74999  -0.74478
 Alpha  occ. eigenvalues --   -0.73602  -0.73156  -0.71726  -0.70246  -0.69875
 Alpha  occ. eigenvalues --   -0.69122  -0.68751  -0.67551  -0.67403  -0.65844
 Alpha  occ. eigenvalues --   -0.65679  -0.65426  -0.65110  -0.64483  -0.64223
 Alpha  occ. eigenvalues --   -0.62796  -0.62691  -0.62544  -0.61777  -0.60728
 Alpha  occ. eigenvalues --   -0.59812  -0.59405  -0.59369  -0.58807  -0.58382
 Alpha  occ. eigenvalues --   -0.57537  -0.56606  -0.56550  -0.56194  -0.55672
 Alpha  occ. eigenvalues --   -0.55432  -0.55063  -0.55015  -0.54430  -0.54345
 Alpha  occ. eigenvalues --   -0.54280  -0.53961  -0.53519  -0.53216  -0.52928
 Alpha  occ. eigenvalues --   -0.52672  -0.52538  -0.52446  -0.52303  -0.52184
 Alpha  occ. eigenvalues --   -0.51807  -0.51745  -0.51141  -0.51019  -0.50514
 Alpha  occ. eigenvalues --   -0.50363  -0.50286  -0.49844  -0.49661  -0.49599
 Alpha  occ. eigenvalues --   -0.49465  -0.49326  -0.49159  -0.48958  -0.48843
 Alpha  occ. eigenvalues --   -0.48673  -0.48518  -0.48398  -0.48272  -0.47889
 Alpha  occ. eigenvalues --   -0.47857  -0.47792  -0.47310  -0.47262  -0.46975
 Alpha  occ. eigenvalues --   -0.46541  -0.46425  -0.46176  -0.46086  -0.45913
 Alpha  occ. eigenvalues --   -0.45724  -0.45348  -0.45250  -0.45110  -0.44420
 Alpha  occ. eigenvalues --   -0.44314  -0.44223  -0.44089  -0.43932  -0.43802
 Alpha  occ. eigenvalues --   -0.43657  -0.43437  -0.43220  -0.43070  -0.42952
 Alpha  occ. eigenvalues --   -0.42594  -0.42379  -0.42303  -0.42126  -0.42087
 Alpha  occ. eigenvalues --   -0.42040  -0.41785  -0.41748  -0.41595  -0.41560
 Alpha  occ. eigenvalues --   -0.41253  -0.41100  -0.40722  -0.40499  -0.40349
 Alpha  occ. eigenvalues --   -0.40183  -0.39642  -0.39267  -0.39044  -0.38885
 Alpha  occ. eigenvalues --   -0.38255  -0.38137  -0.38052  -0.37834  -0.37380
 Alpha  occ. eigenvalues --   -0.37273  -0.37160  -0.36914  -0.36556  -0.36087
 Alpha  occ. eigenvalues --   -0.35639  -0.35236  -0.34842  -0.34803  -0.34791
 Alpha  occ. eigenvalues --   -0.34258  -0.33721  -0.32831  -0.31679  -0.31191
 Alpha  occ. eigenvalues --   -0.30567  -0.30266  -0.30221  -0.29870  -0.23698
 Alpha  occ. eigenvalues --   -0.21343
 Alpha virt. eigenvalues --   -0.08629  -0.01413   0.00735   0.02541   0.03261
 Alpha virt. eigenvalues --    0.05460   0.05661   0.05849   0.06021   0.06584
 Alpha virt. eigenvalues --    0.07632   0.07783   0.08522   0.08731   0.09041

 Mulliken charges:
               1
     1  Mg   0.839853
     2  C    0.002717
     3  C   -0.074722
     4  C   -0.073958
     5  C   -0.075586
     6  N   -0.245321
     7  C   -0.077631
     8  C    0.029909
     9  C   -0.066893
    10  C    0.063600
    11  C    0.053445
    12  C    0.075177
    13  C   -0.002421
    14  C    0.175465
    15  O   -0.241744
    16  O   -0.346119
    17  N   -0.439648
    18  C    0.127816
    19  C   -0.160787
    20  C   -0.013922
    21  C    0.137713
    22  C    0.119475
    23  C    0.001667
    24  O   -0.216103
    25  C    0.076099
    26  N   -0.230238
    27  C    0.012421
    28  C   -0.000943
    29  C   -0.000128
    30  C   -0.022675
    31  C    0.097668
    32  C    0.019120
    33  C    0.000986
    34  N   -0.345847
    35  C    0.095924
    36  C   -0.173129
    37  C    0.025704
    38  C    0.103577
    39  C    0.115956
    40  C    0.027431
    41  O   -0.190118
    42  C    0.025362
    43  C    0.168506
    44  O   -0.187991
    45  O   -0.342904
    46  C    0.163608
    47  C    0.301861
    48  C   -0.089088
    49  C   -0.242015
    50  C    0.095523
    51  C    0.069927
    52  C    0.067596
    53  C    0.041832
    54  C   -0.105120
    55  C    0.025288
    56  C    0.043687
    57  C    0.024723
    58  C    0.074218
    59  C   -0.182521
    60  C    0.062437
    61  C    0.035728
    62  C    0.057669
    63  C    0.077252
    64  C   -0.210737
    65  C    0.039996
    66  C    0.037067
    67  H   -0.019509
    68  H   -0.001610
    69  H   -0.021084
    70  H    0.020974
    71  H    0.012171
    72  H    0.011287
    73  H    0.030274
    74  H    0.024671
    75  H    0.014932
    76  H    0.022423
    77  H    0.053084
    78  H    0.029489
    79  H    0.023711
    80  H    0.012728
    81  H    0.030243
    82  H    0.027606
    83  H    0.010577
    84  H    0.046236
    85  H    0.008789
    86  H    0.004349
    87  H    0.015150
    88  H    0.025897
    89  H    0.020777
    90  H    0.009593
    91  H    0.000467
    92  H    0.018677
    93  H    0.018793
    94  H    0.011100
    95  H    0.022524
    96  H    0.007823
    97  H    0.044087
    98  H    0.030017
    99  H    0.034902
   100  H    0.035656
   101  H    0.040066
   102  H    0.042670
   103  H    0.027080
   104  H   -0.012296
   105  H    0.043825
   106  H    0.002756
   107  H   -0.009909
   108  H   -0.013651
   109  H   -0.010497
   110  H   -0.006070
   111  H    0.011514
   112  H   -0.005988
   113  H   -0.013628
   114  H   -0.006722
   115  H    0.002090
   116  H   -0.007187
   117  H   -0.001735
   118  H    0.000558
   119  H    0.023678
   120  H   -0.005856
   121  H   -0.012063
   122  H    0.001570
   123  H   -0.012823
   124  H   -0.006799
   125  H   -0.007295
   126  H    0.000537
   127  H    0.018760
   128  H   -0.015268
   129  H   -0.010343
   130  H    0.002963
   131  H    0.002648
   132  H   -0.022529
   133  H   -0.001043
   134  H   -0.000770
   135  H    0.008241
   136  H    0.013810
   137  H   -0.000836
   138  H    0.003294
   139  H    0.029093
   140  H    0.015655
 Sum of Mulliken charges =  -0.00000

 Dipole moment (field-independent basis, Debye):
    X=              3.3181    Y=              4.4228    Z=              0.5092  Tot=              5.5525
 Quadrupole moment (field-independent basis, Debye-Ang):
   XX=           -374.1213   YY=           -416.5111   ZZ=           -409.5966
   XY=             -6.1865   XZ=             23.2151   YZ=              1.5034

 Normal termination of Gaussian 16 at Wed Apr 27 13:12:13 2022.
