 Gaussian 16, Revision A.03,
 Gaussian 16:  ES64L-G16RevA.03 25-Dec-2016

 ---------------------------------
 #p PBE1PBE/Def2SVP td=(nstates=5)
 ---------------------------------

 ------------------------------------------------------
 step_1201_chromophore_13 TDDFT with PBE1PBE functional
 ------------------------------------------------------
 Symbolic Z-matrix:
 Charge =  0 Multiplicity = 1

                         Standard orientation:
 ---------------------------------------------------------------------
 Center     Atomic      Atomic             Coordinates (Angstroms)
 Number     Number       Type             X           Y           Z
 ---------------------------------------------------------------------
      1         12           0       -5.959460    0.346216    0.013043
      2          6           0       -3.575654   -2.124258   -0.092006
      3          6           0       -3.337436    2.581811    0.848363
      4          6           0       -8.232353    2.546043    0.341239
      5          6           0       -8.487345   -1.994265   -0.803901
      6          7           0       -3.622679    0.173479    0.294111
      7          6           0       -2.873378   -0.921956    0.201013
      8          6           0       -1.366508   -0.694279    0.523663
      9          6           0       -1.409788    0.810990    0.951432
     10          6           0       -2.862107    1.292423    0.630016
     11          6           0       -1.151340    1.083363    2.509281
     12          6           0       -0.455201   -0.959396   -0.724031
     13          6           0        0.744541   -1.905965   -0.518641
     14          6           0        2.071175   -1.660104   -1.351985
     15          8           0        2.233427   -1.132683   -2.461793
     16          8           0        3.087708   -2.187268   -0.600120
     17          7           0       -5.807459    2.250206    0.448639
     18          6           0       -4.683597    3.023105    0.615944
     19          6           0       -5.131060    4.388644    0.736877
     20          6           0       -6.497285    4.401936    0.583206
     21          6           0       -6.940220    3.001454    0.491555
     22          6           0       -4.208691    5.613685    0.852475
     23          6           0       -7.440897    5.605804    0.711911
     24          8           0       -8.660649    5.512954    0.839121
     25          6           0       -6.963126    6.941883    0.954981
     26          7           0       -8.152756    0.190631    0.179940
     27          6           0       -8.845819    1.312795    0.231315
     28          6           0      -10.282206    1.140452   -0.261793
     29          6           0      -10.289231   -0.264862   -0.843587
     30          6           0       -8.901104   -0.749912   -0.436816
     31          6           0      -11.393342    1.418850    0.797540
     32          6           0      -10.475941   -0.225704   -2.351266
     33          6           0       -9.305361    0.277153   -3.159780
     34          7           0       -6.073440   -1.609340   -0.407744
     35          6           0       -7.118730   -2.462418   -0.659853
     36          6           0       -6.664670   -3.850623   -0.712020
     37          6           0       -5.289149   -3.747234   -0.505992
     38          6           0       -5.000254   -2.374463   -0.314291
     39          6           0       -7.523319   -5.101800   -0.641010
     40          6           0       -4.094332   -4.498184   -0.256941
     41          8           0       -3.883733   -5.714944   -0.247973
     42          6           0       -2.999902   -3.507520   -0.054634
     43          6           0       -2.456969   -3.880176    1.253500
     44          8           0       -3.101977   -3.911160    2.272299
     45          8           0       -1.090757   -4.101477    1.115475
     46          6           0       -0.387975   -4.405758    2.377980
     47          6           0        4.493543   -2.249698   -1.080094
     48          6           0        5.394496   -1.320143   -0.289177
     49          6           0        6.721506   -1.192837   -0.179999
     50          6           0        7.752188   -1.982003   -0.938824
     51          6           0        7.336033   -0.054072    0.587307
     52          6           0        7.339595    1.331887   -0.108218
     53          6           0        8.598020    2.107412    0.039045
     54          6           0        9.333727    2.495145   -1.266877
     55          6           0        8.515980    3.524808   -2.045742
     56          6           0        9.845277    1.283637   -2.101529
     57          6           0       11.271816    1.489581   -2.628366
     58          6           0       12.276639    0.555828   -1.902917
     59          6           0       13.418699    1.369469   -1.318379
     60          6           0       14.394383    1.931772   -2.407016
     61          6           0       14.036756    0.687895   -0.036996
     62          6           0       13.271575    1.035876    1.235089
     63          6           0       13.309399   -0.106595    2.102282
     64          6           0       11.962309   -0.378561    2.780292
     65          6           0       12.115904   -1.125383    4.144637
     66          6           0       11.060920   -1.262237    1.885279
     67          1           0       -2.630111    3.375215    1.096049
     68          1           0       -8.906798    3.374991    0.117247
     69          1           0       -9.212589   -2.655668   -1.282645
     70          1           0       -1.072137   -1.369866    1.325592
     71          1           0       -0.656307    1.386246    0.413539
     72          1           0       -1.222184    0.148052    3.063576
     73          1           0       -1.939696    1.687176    2.959424
     74          1           0       -0.127255    1.454041    2.552911
     75          1           0        0.015327   -0.024341   -1.029124
     76          1           0       -1.007848   -1.321827   -1.590454
     77          1           0        0.443698   -2.896928   -0.859386
     78          1           0        1.004360   -1.933169    0.540323
     79          1           0       -4.486493    6.243947    0.008060
     80          1           0       -3.166747    5.312291    0.742730
     81          1           0       -4.314153    6.224119    1.749313
     82          1           0       -7.819941    7.616338    0.977671
     83          1           0       -6.442021    7.133201    0.016722
     84          1           0       -6.306426    7.129673    1.803999
     85          1           0      -10.213283    1.829945   -1.103805
     86          1           0      -10.943307   -1.003003   -0.381511
     87          1           0      -12.277931    0.833826    0.543855
     88          1           0      -11.664535    2.474614    0.805711
     89          1           0      -11.103253    1.175153    1.818916
     90          1           0      -11.330243    0.362442   -2.686063
     91          1           0      -10.624077   -1.214208   -2.786355
     92          1           0       -9.703203    0.979611   -3.891505
     93          1           0       -8.665000   -0.457476   -3.645767
     94          1           0       -8.609503    0.702842   -2.436305
     95          1           0       -7.582582   -5.600673   -1.608359
     96          1           0       -8.560856   -4.922885   -0.357955
     97          1           0       -7.081224   -5.785776    0.083996
     98          1           0       -2.193209   -3.647455   -0.774238
     99          1           0        0.251446   -3.637628    2.814089
    100          1           0        0.176273   -5.328019    2.240439
    101          1           0       -0.996769   -4.704862    3.232365
    102          1           0        4.530987   -2.105652   -2.160326
    103          1           0        4.816301   -3.280575   -0.937363
    104          1           0        4.924822   -0.639679    0.421753
    105          1           0        8.174355   -2.780317   -0.327684
    106          1           0        8.435852   -1.270687   -1.403346
    107          1           0        7.301608   -2.371491   -1.852779
    108          1           0        8.255939   -0.490552    0.976301
    109          1           0        6.772793    0.043142    1.514671
    110          1           0        6.566148    1.912486    0.393383
    111          1           0        6.967522    1.262068   -1.130660
    112          1           0        9.330035    1.636029    0.695837
    113          1           0        8.278744    3.013538    0.553508
    114          1           0       10.160312    3.154829   -1.003378
    115          1           0        8.925047    4.519328   -2.221915
    116          1           0        7.606162    3.778880   -1.501932
    117          1           0        8.174866    3.242218   -3.042182
    118          1           0        9.227750    1.128346   -2.986842
    119          1           0        9.825902    0.420605   -1.436877
    120          1           0       11.506301    2.549819   -2.532788
    121          1           0       11.330557    1.371260   -3.710159
    122          1           0       12.671966   -0.163015   -2.620892
    123          1           0       11.817950    0.049680   -1.054175
    124          1           0       13.002373    2.288262   -0.905809
    125          1           0       14.216198    1.405893   -3.344999
    126          1           0       15.430406    1.656573   -2.210886
    127          1           0       14.247215    3.004303   -2.532605
    128          1           0       15.092554    0.953160    0.024224
    129          1           0       14.044373   -0.386862   -0.220193
    130          1           0       12.245490    1.287286    0.965451
    131          1           0       13.764592    1.866666    1.740448
    132          1           0       13.923132    0.152044    2.965280
    133          1           0       13.681480   -1.023038    1.646321
    134          1           0       11.471280    0.572975    2.987366
    135          1           0       12.165156   -0.304727    4.859703
    136          1           0       12.924724   -1.838955    4.300728
    137          1           0       11.219346   -1.729685    4.285087
    138          1           0       11.487454   -1.515911    0.914267
    139          1           0       10.314916   -0.517018    1.608430
    140          1           0       10.850529   -2.223731    2.353515
 ---------------------------------------------------------------------

 SCF Done:  E(RPBE1PBE) =  -3005.33411080     A.U. after   15 cycles

 Excitation energies and oscillator strengths:

 Excited State   1:      Singlet-A      1.8992 eV  652.84 nm  f=0.3601  <S**2>=0.000
     245 -> 248       -0.18151
     246 -> 247        0.68709
     246 <- 247       -0.10175
 This state for optimization and/or second-order correction.
 Total Energy, E(TD-HF/TD-DFT) =  -3005.26431800
 Copying the excited state density for this state as the 1-particle RhoCI density.

 Excited State   2:      Singlet-A      2.2106 eV  560.87 nm  f=0.1389  <S**2>=0.000
     245 -> 247        0.66052
     246 -> 248        0.23553

 Excited State   3:      Singlet-A      2.9533 eV  419.81 nm  f=0.0001  <S**2>=0.000
     242 -> 247        0.61092
     242 -> 249       -0.16306
     243 -> 247        0.28871

 Excited State   4:      Singlet-A      3.0038 eV  412.75 nm  f=0.0002  <S**2>=0.000
     242 -> 247       -0.28796
     243 -> 247        0.60711
     243 -> 249        0.13513

 Excited State   5:      Singlet-A      3.2805 eV  377.94 nm  f=0.0025  <S**2>=0.000
     240 -> 247       -0.20245
     241 -> 247        0.65428
     246 -> 248       -0.14345

 The electronic state is 1-A.
 Alpha  occ. eigenvalues --  -46.91952 -19.26500 -19.25448 -19.20261 -19.20094
 Alpha  occ. eigenvalues --  -19.18705 -19.18269 -14.41584 -14.40908 -14.39518
 Alpha  occ. eigenvalues --  -14.39332 -10.36968 -10.36141 -10.31876 -10.30936
 Alpha  occ. eigenvalues --  -10.30108 -10.29057 -10.28905 -10.28815 -10.28140
 Alpha  occ. eigenvalues --  -10.28043 -10.28011 -10.27680 -10.27466 -10.26915
 Alpha  occ. eigenvalues --  -10.26913 -10.26486 -10.26075 -10.25949 -10.25463
 Alpha  occ. eigenvalues --  -10.25353 -10.25206 -10.25186 -10.24898 -10.24786
 Alpha  occ. eigenvalues --  -10.24630 -10.24597 -10.24376 -10.23999 -10.23994
 Alpha  occ. eigenvalues --  -10.23980 -10.23543 -10.23440 -10.23402 -10.23315
 Alpha  occ. eigenvalues --  -10.23246 -10.23092 -10.22994 -10.22899 -10.22865
 Alpha  occ. eigenvalues --  -10.22848 -10.22787 -10.22718 -10.22522 -10.22491
 Alpha  occ. eigenvalues --  -10.22415 -10.22328 -10.22328 -10.22211 -10.22008
 Alpha  occ. eigenvalues --  -10.21907 -10.21808 -10.21796 -10.21759 -10.21616
 Alpha  occ. eigenvalues --  -10.21102  -3.14279  -1.87100  -1.86696  -1.86497
 Alpha  occ. eigenvalues --   -1.11055  -1.09980  -1.04695  -1.03750  -1.03017
 Alpha  occ. eigenvalues --   -1.01591  -1.00177  -0.99129  -0.98539  -0.97656
 Alpha  occ. eigenvalues --   -0.87405  -0.85209  -0.84871  -0.84531  -0.83560
 Alpha  occ. eigenvalues --   -0.83223  -0.83203  -0.81954  -0.81918  -0.81891
 Alpha  occ. eigenvalues --   -0.80716  -0.79551  -0.78851  -0.78075  -0.77918
 Alpha  occ. eigenvalues --   -0.77183  -0.76718  -0.76106  -0.75575  -0.74629
 Alpha  occ. eigenvalues --   -0.74221  -0.72676  -0.72025  -0.71902  -0.70751
 Alpha  occ. eigenvalues --   -0.70313  -0.69913  -0.69543  -0.69125  -0.68648
 Alpha  occ. eigenvalues --   -0.67961  -0.67607  -0.66148  -0.64528  -0.64218
 Alpha  occ. eigenvalues --   -0.63490  -0.63192  -0.61894  -0.61603  -0.60091
 Alpha  occ. eigenvalues --   -0.60014  -0.60001  -0.59583  -0.59073  -0.58330
 Alpha  occ. eigenvalues --   -0.57377  -0.57157  -0.56899  -0.56030  -0.55207
 Alpha  occ. eigenvalues --   -0.54339  -0.53998  -0.53756  -0.53462  -0.52839
 Alpha  occ. eigenvalues --   -0.52112  -0.51149  -0.51048  -0.50728  -0.50184
 Alpha  occ. eigenvalues --   -0.49780  -0.49537  -0.49430  -0.49007  -0.48835
 Alpha  occ. eigenvalues --   -0.48715  -0.48508  -0.47888  -0.47718  -0.47443
 Alpha  occ. eigenvalues --   -0.47196  -0.47092  -0.47030  -0.46816  -0.46712
 Alpha  occ. eigenvalues --   -0.46449  -0.46279  -0.45780  -0.45557  -0.45083
 Alpha  occ. eigenvalues --   -0.44946  -0.44845  -0.44385  -0.44231  -0.44195
 Alpha  occ. eigenvalues --   -0.44058  -0.43910  -0.43812  -0.43572  -0.43431
 Alpha  occ. eigenvalues --   -0.43280  -0.43131  -0.43048  -0.42862  -0.42509
 Alpha  occ. eigenvalues --   -0.42505  -0.42386  -0.41930  -0.41903  -0.41709
 Alpha  occ. eigenvalues --   -0.41176  -0.41104  -0.40915  -0.40835  -0.40607
 Alpha  occ. eigenvalues --   -0.40424  -0.40050  -0.40005  -0.39897  -0.39164
 Alpha  occ. eigenvalues --   -0.39112  -0.38991  -0.38883  -0.38837  -0.38494
 Alpha  occ. eigenvalues --   -0.38455  -0.38183  -0.37893  -0.37882  -0.37747
 Alpha  occ. eigenvalues --   -0.37246  -0.37211  -0.37086  -0.36955  -0.36809
 Alpha  occ. eigenvalues --   -0.36718  -0.36646  -0.36479  -0.36446  -0.36308
 Alpha  occ. eigenvalues --   -0.36108  -0.35893  -0.35490  -0.35358  -0.35278
 Alpha  occ. eigenvalues --   -0.34931  -0.34363  -0.34210  -0.33853  -0.33832
 Alpha  occ. eigenvalues --   -0.33232  -0.33030  -0.32864  -0.32713  -0.32351
 Alpha  occ. eigenvalues --   -0.32064  -0.32016  -0.31958  -0.31603  -0.31059
 Alpha  occ. eigenvalues --   -0.30496  -0.30098  -0.29997  -0.29721  -0.29689
 Alpha  occ. eigenvalues --   -0.29175  -0.28606  -0.28440  -0.27205  -0.26489
 Alpha  occ. eigenvalues --   -0.25974  -0.25401  -0.25192  -0.25151  -0.20660
 Alpha  occ. eigenvalues --   -0.18942
 Alpha virt. eigenvalues --   -0.11100  -0.04941  -0.03514  -0.01877   0.00399
 Alpha virt. eigenvalues --    0.00898   0.01113   0.01514   0.01614   0.02985
 Alpha virt. eigenvalues --    0.03564   0.04171   0.04532   0.05313   0.05607

 Mulliken charges:
               1
     1  Mg   0.994291
     2  C   -0.006224
     3  C   -0.067491
     4  C   -0.069066
     5  C   -0.058629
     6  N   -0.343321
     7  C    0.000802
     8  C   -0.050453
     9  C   -0.137049
    10  C    0.095487
    11  C   -0.003717
    12  C    0.033493
    13  C   -0.080782
    14  C    0.244182
    15  O   -0.275701
    16  O   -0.377117
    17  N   -0.566042
    18  C    0.154604
    19  C   -0.185687
    20  C   -0.068402
    21  C    0.170404
    22  C    0.056714
    23  C    0.053445
    24  O   -0.252516
    25  C   -0.002208
    26  N   -0.333342
    27  C    0.058948
    28  C   -0.087028
    29  C   -0.080218
    30  C    0.012462
    31  C    0.041367
    32  C   -0.038423
    33  C   -0.077907
    34  N   -0.478906
    35  C    0.111222
    36  C   -0.177815
    37  C   -0.026326
    38  C    0.158504
    39  C    0.061570
    40  C    0.120135
    41  O   -0.236245
    42  C   -0.091158
    43  C    0.262876
    44  O   -0.222545
    45  O   -0.375138
    46  C    0.108449
    47  C    0.266570
    48  C   -0.102750
    49  C   -0.280906
    50  C    0.025076
    51  C   -0.006251
    52  C    0.009118
    53  C   -0.030766
    54  C   -0.188518
    55  C   -0.027615
    56  C   -0.019690
    57  C   -0.028700
    58  C    0.006899
    59  C   -0.268371
    60  C    0.005209
    61  C   -0.016825
    62  C   -0.011904
    63  C    0.020531
    64  C   -0.303051
    65  C   -0.021347
    66  C   -0.031558
    67  H    0.011941
    68  H    0.030452
    69  H    0.009553
    70  H    0.061350
    71  H    0.047586
    72  H    0.038836
    73  H    0.058137
    74  H    0.051723
    75  H    0.047528
    76  H    0.053763
    77  H    0.086657
    78  H    0.061481
    79  H    0.052085
    80  H    0.039952
    81  H    0.057030
    82  H    0.055243
    83  H    0.039238
    84  H    0.071930
    85  H    0.047044
    86  H    0.040630
    87  H    0.042558
    88  H    0.053209
    89  H    0.047876
    90  H    0.043478
    91  H    0.033883
    92  H    0.046863
    93  H    0.047042
    94  H    0.048694
    95  H    0.051309
    96  H    0.034933
    97  H    0.071273
    98  H    0.069072
    99  H    0.055446
   100  H    0.057803
   101  H    0.061252
   102  H    0.066931
   103  H    0.053859
   104  H    0.017856
   105  H    0.070623
   106  H    0.036718
   107  H    0.019128
   108  H    0.028446
   109  H    0.023188
   110  H    0.026787
   111  H    0.043021
   112  H    0.034601
   113  H    0.020539
   114  H    0.031431
   115  H    0.029158
   116  H    0.020208
   117  H    0.025077
   118  H    0.032426
   119  H    0.059128
   120  H    0.025645
   121  H    0.020280
   122  H    0.034511
   123  H    0.026937
   124  H    0.034544
   125  H    0.020392
   126  H    0.028002
   127  H    0.044655
   128  H    0.017825
   129  H    0.022311
   130  H    0.039869
   131  H    0.036123
   132  H    0.013159
   133  H    0.030168
   134  H    0.036154
   135  H    0.036685
   136  H    0.040668
   137  H    0.027177
   138  H    0.031442
   139  H    0.060743
   140  H    0.042085
 Sum of Mulliken charges =  -0.00000

 Dipole moment (field-independent basis, Debye):
    X=              3.2884    Y=              4.1565    Z=              0.4387  Tot=              5.3181
 Quadrupole moment (field-independent basis, Debye-Ang):
   XX=           -368.4678   YY=           -413.7891   ZZ=           -406.9607
   XY=             -3.6948   XZ=             24.1762   YZ=              1.5219

 Normal termination of Gaussian 16 at Wed Apr 27 13:30:57 2022.
