 Gaussian 16, Revision A.03,
 Gaussian 16:  ES64L-G16RevA.03 25-Dec-2016

 --------------------------------
 #p wB97XD/Def2SVP td=(nstates=5)
 --------------------------------

 -----------------------------------------------------
 step_1201_chromophore_13 TDDFT with wB97XD functional
 -----------------------------------------------------
 Symbolic Z-matrix:
 Charge =  0 Multiplicity = 1

                         Standard orientation:
 ---------------------------------------------------------------------
 Center     Atomic      Atomic             Coordinates (Angstroms)
 Number     Number       Type             X           Y           Z
 ---------------------------------------------------------------------
      1         12           0       -5.959460    0.346216    0.013043
      2          6           0       -3.575654   -2.124258   -0.092006
      3          6           0       -3.337436    2.581811    0.848363
      4          6           0       -8.232353    2.546043    0.341239
      5          6           0       -8.487345   -1.994265   -0.803901
      6          7           0       -3.622679    0.173479    0.294111
      7          6           0       -2.873378   -0.921956    0.201013
      8          6           0       -1.366508   -0.694279    0.523663
      9          6           0       -1.409788    0.810990    0.951432
     10          6           0       -2.862107    1.292423    0.630016
     11          6           0       -1.151340    1.083363    2.509281
     12          6           0       -0.455201   -0.959396   -0.724031
     13          6           0        0.744541   -1.905965   -0.518641
     14          6           0        2.071175   -1.660104   -1.351985
     15          8           0        2.233427   -1.132683   -2.461793
     16          8           0        3.087708   -2.187268   -0.600120
     17          7           0       -5.807459    2.250206    0.448639
     18          6           0       -4.683597    3.023105    0.615944
     19          6           0       -5.131060    4.388644    0.736877
     20          6           0       -6.497285    4.401936    0.583206
     21          6           0       -6.940220    3.001454    0.491555
     22          6           0       -4.208691    5.613685    0.852475
     23          6           0       -7.440897    5.605804    0.711911
     24          8           0       -8.660649    5.512954    0.839121
     25          6           0       -6.963126    6.941883    0.954981
     26          7           0       -8.152756    0.190631    0.179940
     27          6           0       -8.845819    1.312795    0.231315
     28          6           0      -10.282206    1.140452   -0.261793
     29          6           0      -10.289231   -0.264862   -0.843587
     30          6           0       -8.901104   -0.749912   -0.436816
     31          6           0      -11.393342    1.418850    0.797540
     32          6           0      -10.475941   -0.225704   -2.351266
     33          6           0       -9.305361    0.277153   -3.159780
     34          7           0       -6.073440   -1.609340   -0.407744
     35          6           0       -7.118730   -2.462418   -0.659853
     36          6           0       -6.664670   -3.850623   -0.712020
     37          6           0       -5.289149   -3.747234   -0.505992
     38          6           0       -5.000254   -2.374463   -0.314291
     39          6           0       -7.523319   -5.101800   -0.641010
     40          6           0       -4.094332   -4.498184   -0.256941
     41          8           0       -3.883733   -5.714944   -0.247973
     42          6           0       -2.999902   -3.507520   -0.054634
     43          6           0       -2.456969   -3.880176    1.253500
     44          8           0       -3.101977   -3.911160    2.272299
     45          8           0       -1.090757   -4.101477    1.115475
     46          6           0       -0.387975   -4.405758    2.377980
     47          6           0        4.493543   -2.249698   -1.080094
     48          6           0        5.394496   -1.320143   -0.289177
     49          6           0        6.721506   -1.192837   -0.179999
     50          6           0        7.752188   -1.982003   -0.938824
     51          6           0        7.336033   -0.054072    0.587307
     52          6           0        7.339595    1.331887   -0.108218
     53          6           0        8.598020    2.107412    0.039045
     54          6           0        9.333727    2.495145   -1.266877
     55          6           0        8.515980    3.524808   -2.045742
     56          6           0        9.845277    1.283637   -2.101529
     57          6           0       11.271816    1.489581   -2.628366
     58          6           0       12.276639    0.555828   -1.902917
     59          6           0       13.418699    1.369469   -1.318379
     60          6           0       14.394383    1.931772   -2.407016
     61          6           0       14.036756    0.687895   -0.036996
     62          6           0       13.271575    1.035876    1.235089
     63          6           0       13.309399   -0.106595    2.102282
     64          6           0       11.962309   -0.378561    2.780292
     65          6           0       12.115904   -1.125383    4.144637
     66          6           0       11.060920   -1.262237    1.885279
     67          1           0       -2.630111    3.375215    1.096049
     68          1           0       -8.906798    3.374991    0.117247
     69          1           0       -9.212589   -2.655668   -1.282645
     70          1           0       -1.072137   -1.369866    1.325592
     71          1           0       -0.656307    1.386246    0.413539
     72          1           0       -1.222184    0.148052    3.063576
     73          1           0       -1.939696    1.687176    2.959424
     74          1           0       -0.127255    1.454041    2.552911
     75          1           0        0.015327   -0.024341   -1.029124
     76          1           0       -1.007848   -1.321827   -1.590454
     77          1           0        0.443698   -2.896928   -0.859386
     78          1           0        1.004360   -1.933169    0.540323
     79          1           0       -4.486493    6.243947    0.008060
     80          1           0       -3.166747    5.312291    0.742730
     81          1           0       -4.314153    6.224119    1.749313
     82          1           0       -7.819941    7.616338    0.977671
     83          1           0       -6.442021    7.133201    0.016722
     84          1           0       -6.306426    7.129673    1.803999
     85          1           0      -10.213283    1.829945   -1.103805
     86          1           0      -10.943307   -1.003003   -0.381511
     87          1           0      -12.277931    0.833826    0.543855
     88          1           0      -11.664535    2.474614    0.805711
     89          1           0      -11.103253    1.175153    1.818916
     90          1           0      -11.330243    0.362442   -2.686063
     91          1           0      -10.624077   -1.214208   -2.786355
     92          1           0       -9.703203    0.979611   -3.891505
     93          1           0       -8.665000   -0.457476   -3.645767
     94          1           0       -8.609503    0.702842   -2.436305
     95          1           0       -7.582582   -5.600673   -1.608359
     96          1           0       -8.560856   -4.922885   -0.357955
     97          1           0       -7.081224   -5.785776    0.083996
     98          1           0       -2.193209   -3.647455   -0.774238
     99          1           0        0.251446   -3.637628    2.814089
    100          1           0        0.176273   -5.328019    2.240439
    101          1           0       -0.996769   -4.704862    3.232365
    102          1           0        4.530987   -2.105652   -2.160326
    103          1           0        4.816301   -3.280575   -0.937363
    104          1           0        4.924822   -0.639679    0.421753
    105          1           0        8.174355   -2.780317   -0.327684
    106          1           0        8.435852   -1.270687   -1.403346
    107          1           0        7.301608   -2.371491   -1.852779
    108          1           0        8.255939   -0.490552    0.976301
    109          1           0        6.772793    0.043142    1.514671
    110          1           0        6.566148    1.912486    0.393383
    111          1           0        6.967522    1.262068   -1.130660
    112          1           0        9.330035    1.636029    0.695837
    113          1           0        8.278744    3.013538    0.553508
    114          1           0       10.160312    3.154829   -1.003378
    115          1           0        8.925047    4.519328   -2.221915
    116          1           0        7.606162    3.778880   -1.501932
    117          1           0        8.174866    3.242218   -3.042182
    118          1           0        9.227750    1.128346   -2.986842
    119          1           0        9.825902    0.420605   -1.436877
    120          1           0       11.506301    2.549819   -2.532788
    121          1           0       11.330557    1.371260   -3.710159
    122          1           0       12.671966   -0.163015   -2.620892
    123          1           0       11.817950    0.049680   -1.054175
    124          1           0       13.002373    2.288262   -0.905809
    125          1           0       14.216198    1.405893   -3.344999
    126          1           0       15.430406    1.656573   -2.210886
    127          1           0       14.247215    3.004303   -2.532605
    128          1           0       15.092554    0.953160    0.024224
    129          1           0       14.044373   -0.386862   -0.220193
    130          1           0       12.245490    1.287286    0.965451
    131          1           0       13.764592    1.866666    1.740448
    132          1           0       13.923132    0.152044    2.965280
    133          1           0       13.681480   -1.023038    1.646321
    134          1           0       11.471280    0.572975    2.987366
    135          1           0       12.165156   -0.304727    4.859703
    136          1           0       12.924724   -1.838955    4.300728
    137          1           0       11.219346   -1.729685    4.285087
    138          1           0       11.487454   -1.515911    0.914267
    139          1           0       10.314916   -0.517018    1.608430
    140          1           0       10.850529   -2.223731    2.353515
 ---------------------------------------------------------------------

 SCF Done:  E(RwB97XD) =  -3007.84793220     A.U. after   19 cycles

 Excitation energies and oscillator strengths:

 Excited State   1:      Singlet-A      1.6840 eV  736.25 nm  f=0.3695  <S**2>=0.000
     245 -> 248       -0.19161
     246 -> 247        0.68014
     245 <- 248       -0.11830
 This state for optimization and/or second-order correction.
 Total Energy, E(TD-HF/TD-DFT) =  -3007.78604631
 Copying the excited state density for this state as the 1-particle RhoCI density.

 Excited State   2:      Singlet-A      2.1510 eV  576.39 nm  f=0.1419  <S**2>=0.000
     245 -> 247        0.65032
     246 -> 248        0.26282

 Excited State   3:      Singlet-A      3.5167 eV  352.55 nm  f=0.0015  <S**2>=0.000
     241 -> 247        0.36162
     241 -> 249       -0.29839
     241 -> 250        0.15894
     243 -> 247        0.43797
     243 -> 250        0.13444

 Excited State   4:      Singlet-A      3.5390 eV  350.33 nm  f=0.0639  <S**2>=0.000
     240 -> 249       -0.13165
     241 -> 247        0.39333
     241 -> 250        0.16318
     243 -> 247       -0.34151
     243 -> 249       -0.24721
     246 -> 248        0.24616

 Excited State   5:      Singlet-A      3.6294 eV  341.61 nm  f=0.2195  <S**2>=0.000
     240 -> 247        0.14425
     242 -> 247        0.49013
     243 -> 247       -0.18508
     245 -> 247        0.14451
     246 -> 248       -0.40574

 The electronic state is 1-A.
 Alpha  occ. eigenvalues --  -46.94868 -19.31055 -19.29978 -19.24946 -19.24743
 Alpha  occ. eigenvalues --  -19.23613 -19.22973 -14.46696 -14.45982 -14.44539
 Alpha  occ. eigenvalues --  -14.44204 -10.43731 -10.42933 -10.38821 -10.37704
 Alpha  occ. eigenvalues --  -10.36606 -10.35317 -10.35308 -10.35260 -10.34672
 Alpha  occ. eigenvalues --  -10.34563 -10.34483 -10.33765 -10.33610 -10.33166
 Alpha  occ. eigenvalues --  -10.33071 -10.32745 -10.32612 -10.32357 -10.31837
 Alpha  occ. eigenvalues --  -10.31701 -10.31615 -10.31542 -10.31451 -10.31150
 Alpha  occ. eigenvalues --  -10.30979 -10.30967 -10.30742 -10.30378 -10.30341
 Alpha  occ. eigenvalues --  -10.30295 -10.29855 -10.29820 -10.29684 -10.29575
 Alpha  occ. eigenvalues --  -10.29574 -10.29567 -10.29494 -10.29418 -10.29327
 Alpha  occ. eigenvalues --  -10.29245 -10.29167 -10.28991 -10.28903 -10.28891
 Alpha  occ. eigenvalues --  -10.28779 -10.28702 -10.28586 -10.28500 -10.28366
 Alpha  occ. eigenvalues --  -10.28327 -10.28231 -10.28218 -10.28144 -10.28047
 Alpha  occ. eigenvalues --  -10.27467  -3.21045  -1.94620  -1.94215  -1.94008
 Alpha  occ. eigenvalues --   -1.18442  -1.17346  -1.12288  -1.11128  -1.10381
 Alpha  occ. eigenvalues --   -1.08918  -1.07530  -1.06374  -1.06015  -1.05054
 Alpha  occ. eigenvalues --   -0.94960  -0.92876  -0.92524  -0.92090  -0.91216
 Alpha  occ. eigenvalues --   -0.90863  -0.90852  -0.89682  -0.89599  -0.89523
 Alpha  occ. eigenvalues --   -0.88221  -0.87196  -0.86501  -0.85682  -0.85530
 Alpha  occ. eigenvalues --   -0.84832  -0.84544  -0.83753  -0.83188  -0.82258
 Alpha  occ. eigenvalues --   -0.81871  -0.80421  -0.79651  -0.79492  -0.78346
 Alpha  occ. eigenvalues --   -0.77986  -0.77515  -0.77241  -0.76808  -0.76308
 Alpha  occ. eigenvalues --   -0.75536  -0.75125  -0.73705  -0.72158  -0.71780
 Alpha  occ. eigenvalues --   -0.71041  -0.70718  -0.69534  -0.69260  -0.67676
 Alpha  occ. eigenvalues --   -0.67636  -0.67421  -0.67061  -0.66486  -0.66012
 Alpha  occ. eigenvalues --   -0.64799  -0.64539  -0.64519  -0.63629  -0.62742
 Alpha  occ. eigenvalues --   -0.61769  -0.61388  -0.61279  -0.60797  -0.60341
 Alpha  occ. eigenvalues --   -0.59529  -0.58582  -0.58493  -0.58131  -0.57636
 Alpha  occ. eigenvalues --   -0.57283  -0.56937  -0.56915  -0.56391  -0.56215
 Alpha  occ. eigenvalues --   -0.56187  -0.55889  -0.55468  -0.55109  -0.54871
 Alpha  occ. eigenvalues --   -0.54572  -0.54438  -0.54387  -0.54190  -0.54068
 Alpha  occ. eigenvalues --   -0.53756  -0.53629  -0.53076  -0.52914  -0.52475
 Alpha  occ. eigenvalues --   -0.52297  -0.52179  -0.51712  -0.51623  -0.51523
 Alpha  occ. eigenvalues --   -0.51408  -0.51228  -0.51077  -0.50867  -0.50762
 Alpha  occ. eigenvalues --   -0.50591  -0.50401  -0.50354  -0.50140  -0.49814
 Alpha  occ. eigenvalues --   -0.49794  -0.49722  -0.49209  -0.49133  -0.48884
 Alpha  occ. eigenvalues --   -0.48401  -0.48344  -0.48088  -0.48006  -0.47803
 Alpha  occ. eigenvalues --   -0.47637  -0.47215  -0.47163  -0.47069  -0.46290
 Alpha  occ. eigenvalues --   -0.46252  -0.46146  -0.45993  -0.45846  -0.45659
 Alpha  occ. eigenvalues --   -0.45573  -0.45349  -0.45069  -0.44992  -0.44875
 Alpha  occ. eigenvalues --   -0.44436  -0.44328  -0.44243  -0.44044  -0.43957
 Alpha  occ. eigenvalues --   -0.43904  -0.43679  -0.43636  -0.43573  -0.43561
 Alpha  occ. eigenvalues --   -0.43173  -0.42980  -0.42580  -0.42428  -0.42276
 Alpha  occ. eigenvalues --   -0.42021  -0.41453  -0.41184  -0.40895  -0.40775
 Alpha  occ. eigenvalues --   -0.40163  -0.40022  -0.39902  -0.39713  -0.39429
 Alpha  occ. eigenvalues --   -0.39106  -0.39090  -0.39013  -0.38517  -0.38033
 Alpha  occ. eigenvalues --   -0.37481  -0.37063  -0.36793  -0.36788  -0.36635
 Alpha  occ. eigenvalues --   -0.36095  -0.35665  -0.35076  -0.33881  -0.33299
 Alpha  occ. eigenvalues --   -0.32519  -0.32388  -0.32300  -0.31907  -0.25618
 Alpha  occ. eigenvalues --   -0.23163
 Alpha virt. eigenvalues --   -0.06978   0.00500   0.02786   0.04639   0.06267
 Alpha virt. eigenvalues --    0.07753   0.07979   0.08194   0.08358   0.09240
 Alpha virt. eigenvalues --    0.10225   0.10612   0.11368   0.11925   0.12309

 Mulliken charges:
               1
     1  Mg   0.983434
     2  C   -0.007813
     3  C   -0.086589
     4  C   -0.084076
     5  C   -0.081474
     6  N   -0.309005
     7  C   -0.034813
     8  C   -0.017723
     9  C   -0.114437
    10  C    0.084564
    11  C    0.007698
    12  C    0.040109
    13  C   -0.061471
    14  C    0.233016
    15  O   -0.272572
    16  O   -0.376297
    17  N   -0.533252
    18  C    0.147301
    19  C   -0.176830
    20  C   -0.060015
    21  C    0.162933
    22  C    0.072064
    23  C    0.050581
    24  O   -0.246369
    25  C    0.010104
    26  N   -0.300303
    27  C    0.042521
    28  C   -0.058759
    29  C   -0.051750
    30  C    0.003197
    31  C    0.050078
    32  C   -0.027116
    33  C   -0.053975
    34  N   -0.441550
    35  C    0.104410
    36  C   -0.179780
    37  C   -0.021330
    38  C    0.138050
    39  C    0.072810
    40  C    0.103857
    41  O   -0.227211
    42  C   -0.048872
    43  C    0.238168
    44  O   -0.218223
    45  O   -0.372222
    46  C    0.123856
    47  C    0.278103
    48  C   -0.114224
    49  C   -0.265876
    50  C    0.043310
    51  C    0.025189
    52  C    0.018579
    53  C   -0.000208
    54  C   -0.160852
    55  C   -0.020599
    56  C    0.009820
    57  C   -0.015501
    58  C    0.034316
    59  C   -0.231987
    60  C    0.014736
    61  C   -0.000946
    62  C    0.010169
    63  C    0.034396
    64  C   -0.269900
    65  C   -0.009176
    66  C   -0.007987
    67  H    0.006205
    68  H    0.023971
    69  H    0.005162
    70  H    0.041920
    71  H    0.038497
    72  H    0.033498
    73  H    0.051154
    74  H    0.047028
    75  H    0.038791
    76  H    0.047524
    77  H    0.078827
    78  H    0.054184
    79  H    0.045086
    80  H    0.036087
    81  H    0.052587
    82  H    0.054780
    83  H    0.031624
    84  H    0.067697
    85  H    0.033853
    86  H    0.032715
    87  H    0.036974
    88  H    0.048291
    89  H    0.043159
    90  H    0.035481
    91  H    0.025791
    92  H    0.042686
    93  H    0.041979
    94  H    0.028787
    95  H    0.045918
    96  H    0.028971
    97  H    0.066822
    98  H    0.060522
    99  H    0.051518
   100  H    0.054040
   101  H    0.057304
   102  H    0.063853
   103  H    0.049551
   104  H    0.013630
   105  H    0.066545
   106  H    0.025986
   107  H    0.013542
   108  H    0.008794
   109  H    0.015533
   110  H    0.020279
   111  H    0.032983
   112  H    0.019000
   113  H    0.012413
   114  H    0.018651
   115  H    0.024731
   116  H    0.012887
   117  H    0.019253
   118  H    0.024757
   119  H    0.032568
   120  H    0.013314
   121  H    0.014249
   122  H    0.026877
   123  H    0.002676
   124  H    0.015971
   125  H    0.013318
   126  H    0.022476
   127  H    0.040308
   128  H    0.010379
   129  H    0.010501
   130  H    0.020220
   131  H    0.030286
   132  H    0.004127
   133  H    0.020285
   134  H    0.025815
   135  H    0.030763
   136  H    0.035559
   137  H    0.019902
   138  H    0.023533
   139  H    0.041461
   140  H    0.037309
 Sum of Mulliken charges =  -0.00000

 Dipole moment (field-independent basis, Debye):
    X=              3.3414    Y=              4.5617    Z=              0.5162  Tot=              5.6781
 Quadrupole moment (field-independent basis, Debye-Ang):
   XX=           -368.9352   YY=           -411.9853   ZZ=           -406.6107
   XY=             -6.6223   XZ=             23.6673   YZ=              1.6667

 Normal termination of Gaussian 16 at Wed Apr 27 13:57:39 2022.
