 Gaussian 16, Revision A.03,
 Gaussian 16:  ES64L-G16RevA.03 25-Dec-2016

 --------------------
 #p ZINDO=(nstates=5)
 --------------------

 ------------------------------
 step_1201_chromophore_13 ZINDO
 ------------------------------
 Symbolic Z-matrix:
 Charge =  0 Multiplicity = 1

                         Standard orientation:
 ---------------------------------------------------------------------
 Center     Atomic      Atomic             Coordinates (Angstroms)
 Number     Number       Type             X           Y           Z
 ---------------------------------------------------------------------
      1         12           0       -5.959460    0.346216    0.013043
      2          6           0       -3.575654   -2.124258   -0.092006
      3          6           0       -3.337436    2.581811    0.848363
      4          6           0       -8.232353    2.546043    0.341239
      5          6           0       -8.487345   -1.994265   -0.803901
      6          7           0       -3.622679    0.173479    0.294111
      7          6           0       -2.873378   -0.921956    0.201013
      8          6           0       -1.366508   -0.694279    0.523663
      9          6           0       -1.409788    0.810990    0.951432
     10          6           0       -2.862107    1.292423    0.630016
     11          6           0       -1.151340    1.083363    2.509281
     12          6           0       -0.455201   -0.959396   -0.724031
     13          6           0        0.744541   -1.905965   -0.518641
     14          6           0        2.071175   -1.660104   -1.351985
     15          8           0        2.233427   -1.132683   -2.461793
     16          8           0        3.087708   -2.187268   -0.600120
     17          7           0       -5.807459    2.250206    0.448639
     18          6           0       -4.683597    3.023105    0.615944
     19          6           0       -5.131060    4.388644    0.736877
     20          6           0       -6.497285    4.401936    0.583206
     21          6           0       -6.940220    3.001454    0.491555
     22          6           0       -4.208691    5.613685    0.852475
     23          6           0       -7.440897    5.605804    0.711911
     24          8           0       -8.660649    5.512954    0.839121
     25          6           0       -6.963126    6.941883    0.954981
     26          7           0       -8.152756    0.190631    0.179940
     27          6           0       -8.845819    1.312795    0.231315
     28          6           0      -10.282206    1.140452   -0.261793
     29          6           0      -10.289231   -0.264862   -0.843587
     30          6           0       -8.901104   -0.749912   -0.436816
     31          6           0      -11.393342    1.418850    0.797540
     32          6           0      -10.475941   -0.225704   -2.351266
     33          6           0       -9.305361    0.277153   -3.159780
     34          7           0       -6.073440   -1.609340   -0.407744
     35          6           0       -7.118730   -2.462418   -0.659853
     36          6           0       -6.664670   -3.850623   -0.712020
     37          6           0       -5.289149   -3.747234   -0.505992
     38          6           0       -5.000254   -2.374463   -0.314291
     39          6           0       -7.523319   -5.101800   -0.641010
     40          6           0       -4.094332   -4.498184   -0.256941
     41          8           0       -3.883733   -5.714944   -0.247973
     42          6           0       -2.999902   -3.507520   -0.054634
     43          6           0       -2.456969   -3.880176    1.253500
     44          8           0       -3.101977   -3.911160    2.272299
     45          8           0       -1.090757   -4.101477    1.115475
     46          6           0       -0.387975   -4.405758    2.377980
     47          6           0        4.493543   -2.249698   -1.080094
     48          6           0        5.394496   -1.320143   -0.289177
     49          6           0        6.721506   -1.192837   -0.179999
     50          6           0        7.752188   -1.982003   -0.938824
     51          6           0        7.336033   -0.054072    0.587307
     52          6           0        7.339595    1.331887   -0.108218
     53          6           0        8.598020    2.107412    0.039045
     54          6           0        9.333727    2.495145   -1.266877
     55          6           0        8.515980    3.524808   -2.045742
     56          6           0        9.845277    1.283637   -2.101529
     57          6           0       11.271816    1.489581   -2.628366
     58          6           0       12.276639    0.555828   -1.902917
     59          6           0       13.418699    1.369469   -1.318379
     60          6           0       14.394383    1.931772   -2.407016
     61          6           0       14.036756    0.687895   -0.036996
     62          6           0       13.271575    1.035876    1.235089
     63          6           0       13.309399   -0.106595    2.102282
     64          6           0       11.962309   -0.378561    2.780292
     65          6           0       12.115904   -1.125383    4.144637
     66          6           0       11.060920   -1.262237    1.885279
     67          1           0       -2.630111    3.375215    1.096049
     68          1           0       -8.906798    3.374991    0.117247
     69          1           0       -9.212589   -2.655668   -1.282645
     70          1           0       -1.072137   -1.369866    1.325592
     71          1           0       -0.656307    1.386246    0.413539
     72          1           0       -1.222184    0.148052    3.063576
     73          1           0       -1.939696    1.687176    2.959424
     74          1           0       -0.127255    1.454041    2.552911
     75          1           0        0.015327   -0.024341   -1.029124
     76          1           0       -1.007848   -1.321827   -1.590454
     77          1           0        0.443698   -2.896928   -0.859386
     78          1           0        1.004360   -1.933169    0.540323
     79          1           0       -4.486493    6.243947    0.008060
     80          1           0       -3.166747    5.312291    0.742730
     81          1           0       -4.314153    6.224119    1.749313
     82          1           0       -7.819941    7.616338    0.977671
     83          1           0       -6.442021    7.133201    0.016722
     84          1           0       -6.306426    7.129673    1.803999
     85          1           0      -10.213283    1.829945   -1.103805
     86          1           0      -10.943307   -1.003003   -0.381511
     87          1           0      -12.277931    0.833826    0.543855
     88          1           0      -11.664535    2.474614    0.805711
     89          1           0      -11.103253    1.175153    1.818916
     90          1           0      -11.330243    0.362442   -2.686063
     91          1           0      -10.624077   -1.214208   -2.786355
     92          1           0       -9.703203    0.979611   -3.891505
     93          1           0       -8.665000   -0.457476   -3.645767
     94          1           0       -8.609503    0.702842   -2.436305
     95          1           0       -7.582582   -5.600673   -1.608359
     96          1           0       -8.560856   -4.922885   -0.357955
     97          1           0       -7.081224   -5.785776    0.083996
     98          1           0       -2.193209   -3.647455   -0.774238
     99          1           0        0.251446   -3.637628    2.814089
    100          1           0        0.176273   -5.328019    2.240439
    101          1           0       -0.996769   -4.704862    3.232365
    102          1           0        4.530987   -2.105652   -2.160326
    103          1           0        4.816301   -3.280575   -0.937363
    104          1           0        4.924822   -0.639679    0.421753
    105          1           0        8.174355   -2.780317   -0.327684
    106          1           0        8.435852   -1.270687   -1.403346
    107          1           0        7.301608   -2.371491   -1.852779
    108          1           0        8.255939   -0.490552    0.976301
    109          1           0        6.772793    0.043142    1.514671
    110          1           0        6.566148    1.912486    0.393383
    111          1           0        6.967522    1.262068   -1.130660
    112          1           0        9.330035    1.636029    0.695837
    113          1           0        8.278744    3.013538    0.553508
    114          1           0       10.160312    3.154829   -1.003378
    115          1           0        8.925047    4.519328   -2.221915
    116          1           0        7.606162    3.778880   -1.501932
    117          1           0        8.174866    3.242218   -3.042182
    118          1           0        9.227750    1.128346   -2.986842
    119          1           0        9.825902    0.420605   -1.436877
    120          1           0       11.506301    2.549819   -2.532788
    121          1           0       11.330557    1.371260   -3.710159
    122          1           0       12.671966   -0.163015   -2.620892
    123          1           0       11.817950    0.049680   -1.054175
    124          1           0       13.002373    2.288262   -0.905809
    125          1           0       14.216198    1.405893   -3.344999
    126          1           0       15.430406    1.656573   -2.210886
    127          1           0       14.247215    3.004303   -2.532605
    128          1           0       15.092554    0.953160    0.024224
    129          1           0       14.044373   -0.386862   -0.220193
    130          1           0       12.245490    1.287286    0.965451
    131          1           0       13.764592    1.866666    1.740448
    132          1           0       13.923132    0.152044    2.965280
    133          1           0       13.681480   -1.023038    1.646321
    134          1           0       11.471280    0.572975    2.987366
    135          1           0       12.165156   -0.304727    4.859703
    136          1           0       12.924724   -1.838955    4.300728
    137          1           0       11.219346   -1.729685    4.285087
    138          1           0       11.487454   -1.515911    0.914267
    139          1           0       10.314916   -0.517018    1.608430
    140          1           0       10.850529   -2.223731    2.353515
 ---------------------------------------------------------------------

 SCF Done:  E(RZINDO/S) =  -474.715065781     A.U. after   20 cycles

 Excitation energies and oscillator strengths:

 Excited State   1:      Singlet-A      1.2655 eV  979.72 nm  f=0.5659  <S**2>=0.000
     175 ->178         0.19665
     176 ->177         0.66080
 This state for optimization and/or second-order correction.
 Total Energy, E(CIS/TDA) =  -474.668559157
 Copying the excited state density for this state as the 1-particle RhoCI density.

 Excited State   2:      Singlet-A      1.8552 eV  668.30 nm  f=0.0952  <S**2>=0.000
     175 ->177         0.58381
     176 ->178        -0.36879

 Excited State   3:      Singlet-A      2.7513 eV  450.64 nm  f=0.0063  <S**2>=0.000
     168 ->177         0.22824
     168 ->178        -0.10456
     168 ->179        -0.35314
     168 ->180        -0.26339
     168 ->185        -0.19226
     169 ->179         0.12950
     170 ->177         0.10018
     170 ->179        -0.12733
     171 ->177        -0.11431
     171 ->179         0.15487
     171 ->180         0.11151

 Excited State   4:      Singlet-A      2.9664 eV  417.96 nm  f=0.0006  <S**2>=0.000
     170 ->177         0.29731
     170 ->179         0.27070
     170 ->180        -0.30510
     170 ->185         0.13647
     170 ->187         0.14168
     171 ->177         0.18449
     171 ->179         0.16531
     171 ->180        -0.19234

 Excited State   5:      Singlet-A      3.0296 eV  409.24 nm  f=1.0672  <S**2>=0.000
     172 ->177        -0.10804
     175 ->177         0.34398
     176 ->178         0.56293
     176 ->180         0.10416

 The electronic state is 1-A.
 Alpha  occ. eigenvalues --   -1.87276  -1.84706  -1.81305  -1.72910  -1.72305
 Alpha  occ. eigenvalues --   -1.69508  -1.68577  -1.63265  -1.61805  -1.59108
 Alpha  occ. eigenvalues --   -1.57048  -1.51263  -1.49168  -1.47486  -1.46735
 Alpha  occ. eigenvalues --   -1.44163  -1.43077  -1.40886  -1.40613  -1.39191
 Alpha  occ. eigenvalues --   -1.35993  -1.34053  -1.32798  -1.32431  -1.29987
 Alpha  occ. eigenvalues --   -1.27574  -1.25204  -1.22098  -1.21097  -1.19064
 Alpha  occ. eigenvalues --   -1.16609  -1.16109  -1.15233  -1.14719  -1.13552
 Alpha  occ. eigenvalues --   -1.13274  -1.11435  -1.10784  -1.06009  -1.04637
 Alpha  occ. eigenvalues --   -1.03616  -1.02365  -1.00086  -0.98343  -0.97217
 Alpha  occ. eigenvalues --   -0.97030  -0.95500  -0.94847  -0.94592  -0.93063
 Alpha  occ. eigenvalues --   -0.91439  -0.89740  -0.88768  -0.87723  -0.85900
 Alpha  occ. eigenvalues --   -0.84255  -0.83806  -0.82597  -0.82071  -0.80682
 Alpha  occ. eigenvalues --   -0.80476  -0.80112  -0.77881  -0.77640  -0.76863
 Alpha  occ. eigenvalues --   -0.76511  -0.75408  -0.75262  -0.74790  -0.73675
 Alpha  occ. eigenvalues --   -0.73518  -0.72890  -0.72543  -0.72295  -0.71035
 Alpha  occ. eigenvalues --   -0.70417  -0.69814  -0.69530  -0.68699  -0.68226
 Alpha  occ. eigenvalues --   -0.68011  -0.67070  -0.66549  -0.66053  -0.65846
 Alpha  occ. eigenvalues --   -0.65418  -0.64598  -0.64048  -0.63260  -0.63040
 Alpha  occ. eigenvalues --   -0.62976  -0.62800  -0.62307  -0.61963  -0.61761
 Alpha  occ. eigenvalues --   -0.61355  -0.61196  -0.61168  -0.60809  -0.60346
 Alpha  occ. eigenvalues --   -0.59950  -0.59597  -0.59133  -0.58635  -0.58009
 Alpha  occ. eigenvalues --   -0.57773  -0.57369  -0.56798  -0.56176  -0.56093
 Alpha  occ. eigenvalues --   -0.55679  -0.55518  -0.54723  -0.54486  -0.54465
 Alpha  occ. eigenvalues --   -0.53878  -0.53665  -0.53206  -0.52913  -0.52810
 Alpha  occ. eigenvalues --   -0.52572  -0.52341  -0.52319  -0.51571  -0.51300
 Alpha  occ. eigenvalues --   -0.51217  -0.50868  -0.50756  -0.49874  -0.49805
 Alpha  occ. eigenvalues --   -0.49713  -0.49535  -0.49120  -0.49046  -0.48974
 Alpha  occ. eigenvalues --   -0.48730  -0.48432  -0.48419  -0.47996  -0.47956
 Alpha  occ. eigenvalues --   -0.47837  -0.47096  -0.47031  -0.46746  -0.46235
 Alpha  occ. eigenvalues --   -0.45972  -0.45756  -0.45562  -0.45486  -0.44980
 Alpha  occ. eigenvalues --   -0.44722  -0.44453  -0.44043  -0.43877  -0.43320
 Alpha  occ. eigenvalues --   -0.42731  -0.42525  -0.42427  -0.42076  -0.41769
 Alpha  occ. eigenvalues --   -0.41700  -0.41509  -0.41136  -0.39257  -0.38808
 Alpha  occ. eigenvalues --   -0.37848  -0.37421  -0.35201  -0.34303  -0.34077
 Alpha  occ. eigenvalues --   -0.34014  -0.32543  -0.32313  -0.32209  -0.26081
 Alpha  occ. eigenvalues --   -0.21955
 Alpha virt. eigenvalues --   -0.08499  -0.01829  -0.00238   0.01537   0.01802
 Alpha virt. eigenvalues --    0.03005   0.03377   0.03409   0.04458   0.04980
 Alpha virt. eigenvalues --    0.06080   0.06863   0.07107   0.07849   0.08345

 Mulliken charges:
               1
     1  Mg   0.437063
     2  C   -0.061501
     3  C   -0.081452
     4  C   -0.063179
     5  C   -0.070524
     6  N   -0.297114
     7  C    0.122413
     8  C    0.012344
     9  C    0.000168
    10  C    0.130232
    11  C   -0.058159
    12  C   -0.025560
    13  C    0.006415
    14  C    0.463940
    15  O   -0.519346
    16  O   -0.280703
    17  N   -0.314791
    18  C    0.115121
    19  C    0.014000
    20  C   -0.038039
    21  C    0.142394
    22  C   -0.048871
    23  C    0.329170
    24  O   -0.530195
    25  C   -0.024233
    26  N   -0.268000
    27  C    0.164294
    28  C    0.008100
    29  C    0.007110
    30  C    0.112173
    31  C   -0.045819
    32  C   -0.023716
    33  C   -0.058187
    34  N   -0.294877
    35  C    0.073481
    36  C    0.015840
    37  C   -0.055561
    38  C    0.113634
    39  C   -0.035024
    40  C    0.345626
    41  O   -0.545130
    42  C    0.058398
    43  C    0.501551
    44  O   -0.518889
    45  O   -0.274938
    46  C    0.064239
    47  C    0.116108
    48  C   -0.086433
    49  C   -0.007304
    50  C   -0.050973
    51  C   -0.024871
    52  C   -0.014666
    53  C   -0.023276
    54  C   -0.008681
    55  C   -0.060616
    56  C   -0.031072
    57  C   -0.039430
    58  C   -0.026661
    59  C   -0.025053
    60  C   -0.061056
    61  C   -0.038465
    62  C   -0.020726
    63  C   -0.024497
    64  C   -0.019336
    65  C   -0.066748
    66  C   -0.071976
    67  H    0.032548
    68  H    0.034268
    69  H    0.031443
    70  H    0.042468
    71  H    0.031556
    72  H    0.020912
    73  H    0.034127
    74  H    0.024824
    75  H    0.026201
    76  H    0.031305
    77  H    0.047528
    78  H    0.040410
    79  H    0.026999
    80  H    0.023446
    81  H    0.035638
    82  H    0.036212
    83  H    0.029721
    84  H    0.045564
    85  H    0.039812
    86  H    0.031530
    87  H    0.019601
    88  H    0.024118
    89  H    0.028930
    90  H    0.016205
    91  H    0.011479
    92  H    0.019801
    93  H    0.022685
    94  H    0.022556
    95  H    0.029879
    96  H    0.019755
    97  H    0.037849
    98  H    0.046848
    99  H    0.038055
   100  H    0.031721
   101  H    0.046241
   102  H    0.059906
   103  H    0.038294
   104  H    0.024973
   105  H    0.041298
   106  H    0.027520
   107  H    0.011688
   108  H    0.023021
   109  H    0.010051
   110  H    0.013847
   111  H    0.027899
   112  H    0.013989
   113  H    0.010903
   114  H    0.016321
   115  H    0.015396
   116  H    0.009255
   117  H    0.014399
   118  H    0.022185
   119  H    0.022886
   120  H    0.019932
   121  H    0.014148
   122  H    0.022311
   123  H    0.021122
   124  H    0.008292
   125  H    0.013907
   126  H    0.018348
   127  H    0.026227
   128  H    0.014528
   129  H    0.016197
   130  H    0.022933
   131  H    0.021499
   132  H    0.005366
   133  H    0.026576
   134  H    0.022516
   135  H    0.014019
   136  H    0.026065
   137  H    0.012620
   138  H    0.008311
   139  H    0.025897
   140  H    0.034957
 Sum of Mulliken charges =  -0.00000

 Dipole moment (field-independent basis, Debye):
    X=              4.0264    Y=              7.4205    Z=             -0.2008  Tot=              8.4448
 N-N= 4.321548548990D+03 E-N= 0.000000000000D+00  KE=-9.317701392940D+03
 Leave Link  601 at Wed Apr 27 14:12:32 2022, MaxMem=  6710886400 cpu:               0.8 elap:               0.1
 (Enter /sw/apps/gaussian-16.0/g16/l9999.exe)
 1\1\GINC-BP1-COMPUTE070\SP\RZINDO CIS\STO-3G\C55H74Mg1N4O6\OF15641\27-
 Apr-2022\0\\#p ZINDO=(nstates=5)\\step_1201_chromophore_13 ZINDO\\0,1\
 Mg,0,46.455,25.043,28.45\C,0,46.746,27.211,31.098\C,0,45.493,22.581,30
 .813\C,0,46.44,23.012,26.003\C,0,47.451,27.587,26.198\N,0,46.117,24.98
 9,30.785\C,0,46.292,25.982,31.653\C,0,46.052,25.581,33.139\C,0,45.794,
 24.047,32.963\C,0,45.719,23.813,31.419\C,0,46.948,23.093,33.534\C,0,44
 .835,26.348,33.762\C,0,45.078,27.058,35.109\C,0,43.885,27.168,36.148\O

 Normal termination of Gaussian 16 at Wed Apr 27 14:12:32 2022.
