 Gaussian 16, Revision A.03,
 Gaussian 16:  ES64L-G16RevA.03 25-Dec-2016

 ------------------------------
 #p blyp/Def2SVP td=(nstates=5)
 ------------------------------

 ------------------------------------------------
 step_1_chromophore_20 TDDFT with blyp functional
 ------------------------------------------------
 Symbolic Z-matrix:
 Charge =  0 Multiplicity = 1

                         Standard orientation:
 ---------------------------------------------------------------------
 Center     Atomic      Atomic             Coordinates (Angstroms)
 Number     Number       Type             X           Y           Z
 ---------------------------------------------------------------------
      1         12           0       -4.309429    1.408365    0.530118
      2          6           0       -4.538032   -2.031652    0.321677
      3          6           0       -1.743638    1.004865    2.789373
      4          6           0       -3.674864    4.775970    0.293960
      5          6           0       -6.805484    1.726468   -1.819288
      6          7           0       -3.139102   -0.291541    1.289248
      7          6           0       -3.487231   -1.614805    1.102534
      8          6           0       -2.577158   -2.558248    1.884515
      9          6           0       -1.927656   -1.564101    2.917929
     10          6           0       -2.247255   -0.222658    2.274521
     11          6           0       -2.353688   -1.715380    4.448236
     12          6           0       -1.567250   -3.403977    1.045008
     13          6           0       -1.464910   -4.867598    1.419046
     14          6           0       -0.130534   -5.201680    2.067609
     15          8           0        0.116909   -5.199892    3.297228
     16          8           0        0.646022   -5.823163    1.199185
     17          7           0       -2.901576    2.657391    1.410964
     18          6           0       -1.971940    2.319109    2.311537
     19          6           0       -1.255548    3.493096    2.779254
     20          6           0       -1.717998    4.626992    2.132432
     21          6           0       -2.776727    4.064808    1.188302
     22          6           0       -0.040432    3.404084    3.820235
     23          6           0       -1.285015    6.108700    2.396169
     24          8           0       -0.356141    6.329683    3.223798
     25          6           0       -1.895239    7.245404    1.669428
     26          7           0       -4.980907    3.060101   -0.818763
     27          6           0       -4.710447    4.325824   -0.597013
     28          6           0       -5.668754    5.263833   -1.300733
     29          6           0       -6.673448    4.361881   -2.094867
     30          6           0       -6.209113    2.941589   -1.513292
     31          6           0       -6.246764    6.502495   -0.544541
     32          6           0       -6.686807    4.373196   -3.651003
     33          6           0       -7.956927    3.790959   -4.235971
     34          7           0       -5.463048    0.092448   -0.568812
     35          6           0       -6.531366    0.365224   -1.454221
     36          6           0       -7.130811   -0.888949   -1.820520
     37          6           0       -6.411304   -1.890928   -1.124774
     38          6           0       -5.408992   -1.212058   -0.437399
     39          6           0       -8.436564   -1.082578   -2.577054
     40          6           0       -6.377421   -3.251610   -0.909109
     41          8           0       -6.946628   -4.206083   -1.364136
     42          6           0       -5.027193   -3.451368   -0.043218
     43          6           0       -4.004838   -3.942429   -1.067034
     44          8           0       -3.391991   -3.242433   -1.849980
     45          8           0       -3.938550   -5.320062   -0.934757
     46          6           0       -3.093084   -6.013214   -1.901385
     47          6           0        1.982701   -6.335227    1.593740
     48          6           0        3.152817   -5.557334    0.942262
     49          6           0        3.277469   -5.062888   -0.357193
     50          6           0        2.240086   -5.211692   -1.503428
     51          6           0        4.587958   -4.362719   -0.756435
     52          6           0        4.504463   -2.835374   -0.590845
     53          6           0        5.128608   -2.132127   -1.787294
     54          6           0        5.652169   -0.741262   -1.296902
     55          6           0        5.552142    0.194699   -2.564836
     56          6           0        7.077878   -0.842321   -0.628500
     57          6           0        7.361549    0.257407    0.405949
     58          6           0        8.221883    1.400119   -0.220431
     59          6           0        9.632931    1.511892    0.474796
     60          6           0        9.730075    2.598902    1.523938
     61          6           0       10.678165    1.661533   -0.664744
     62          6           0       12.118945    1.363201   -0.053561
     63          6           0       13.045954    2.445941   -0.637389
     64          6           0       14.079519    1.847385   -1.595266
     65          6           0       15.200151    2.872667   -1.816169
     66          6           0       13.437060    1.361031   -2.927777
     67          1           0       -1.070409    0.953353    3.647417
     68          1           0       -3.428596    5.839432    0.278659
     69          1           0       -7.693194    1.679056   -2.453442
     70          1           0       -3.218146   -3.225820    2.459619
     71          1           0       -0.849136   -1.621166    2.766384
     72          1           0       -2.146849   -0.716148    4.831293
     73          1           0       -1.688055   -2.345642    5.038507
     74          1           0       -3.377408   -2.033407    4.645141
     75          1           0       -0.615982   -2.903484    1.226971
     76          1           0       -1.604661   -3.286725   -0.037825
     77          1           0       -1.607001   -5.445083    0.505295
     78          1           0       -2.230171   -5.170509    2.133967
     79          1           0        0.233944    2.394578    4.129258
     80          1           0       -0.263330    3.981114    4.718327
     81          1           0        0.908910    3.730773    3.398092
     82          1           0       -2.966702    7.269293    1.865645
     83          1           0       -1.587962    7.265381    0.623744
     84          1           0       -1.568618    8.119296    2.231737
     85          1           0       -5.262264    5.789068   -2.165267
     86          1           0       -7.676423    4.378185   -1.667742
     87          1           0       -5.650990    6.601051    0.363943
     88          1           0       -7.325841    6.462077   -0.391611
     89          1           0       -6.114302    7.448870   -1.069076
     90          1           0       -5.779539    3.855608   -3.962265
     91          1           0       -6.531286    5.420157   -3.911159
     92          1           0       -8.149086    4.305655   -5.177719
     93          1           0       -8.849504    3.903782   -3.619463
     94          1           0       -7.771265    2.756993   -4.526845
     95          1           0       -8.804672   -2.108531   -2.567032
     96          1           0       -8.281540   -0.729801   -3.595847
     97          1           0       -9.230424   -0.462252   -2.160868
     98          1           0       -5.204305   -4.079413    0.830418
     99          1           0       -3.517171   -5.902674   -2.899535
    100          1           0       -2.947491   -7.059736   -1.635818
    101          1           0       -2.119215   -5.526419   -1.945155
    102          1           0        2.189663   -7.356787    1.277129
    103          1           0        2.118875   -6.383601    2.673980
    104          1           0        4.003366   -5.280996    1.565179
    105          1           0        1.257099   -5.423312   -1.080974
    106          1           0        2.648514   -5.966950   -2.174623
    107          1           0        2.227979   -4.199582   -1.907037
    108          1           0        4.976525   -4.650239   -1.733644
    109          1           0        5.454215   -4.591739   -0.135365
    110          1           0        5.023598   -2.525519    0.315666
    111          1           0        3.474109   -2.497371   -0.477276
    112          1           0        4.409950   -2.013579   -2.598047
    113          1           0        5.874721   -2.726731   -2.313319
    114          1           0        4.935342   -0.245325   -0.643056
    115          1           0        5.746491   -0.371689   -3.476258
    116          1           0        6.293901    0.992670   -2.545201
    117          1           0        4.585963    0.649550   -2.782446
    118          1           0        7.800169   -0.911690   -1.442085
    119          1           0        7.163432   -1.708168    0.027754
    120          1           0        7.702706   -0.181342    1.344433
    121          1           0        6.344922    0.535209    0.683467
    122          1           0        7.703216    2.343405   -0.049668
    123          1           0        8.351704    1.276770   -1.295457
    124          1           0        9.925950    0.573125    0.945605
    125          1           0       10.271438    3.421359    1.056452
    126          1           0       10.315144    2.204912    2.354159
    127          1           0        8.802382    2.970982    1.958046
    128          1           0       10.555622    2.616079   -1.176664
    129          1           0       10.624429    0.855427   -1.396013
    130          1           0       12.473605    0.396345   -0.409892
    131          1           0       12.201721    1.316831    1.032215
    132          1           0       13.487812    2.902357    0.248114
    133          1           0       12.444059    3.172685   -1.181588
    134          1           0       14.550024    1.016370   -1.068216
    135          1           0       14.898777    3.878665   -1.521632
    136          1           0       15.516677    3.088903   -2.836674
    137          1           0       16.084535    2.435132   -1.353513
    138          1           0       13.364527    0.273929   -2.904266
    139          1           0       14.021751    1.619265   -3.810768
    140          1           0       12.463821    1.833562   -3.058390
 ---------------------------------------------------------------------

 SCF Done:  E(RB-LYP) =  -3007.36251386     A.U. after   21 cycles

 Excitation energies and oscillator strengths:

 Excited State   1:      Singlet-A      1.7954 eV  690.58 nm  f=0.2900  <S**2>=0.000
     245 -> 248        0.15627
     245 -> 249       -0.11805
     246 -> 247        0.68600
     246 <- 247       -0.13852
 This state for optimization and/or second-order correction.
 Total Energy, E(TD-HF/TD-DFT) =  -3007.29653569
 Copying the excited state density for this state as the 1-particle RhoCI density.

 Excited State   2:      Singlet-A      1.9301 eV  642.38 nm  f=0.0252  <S**2>=0.000
     244 -> 247        0.57563
     245 -> 247        0.38922

 Excited State   3:      Singlet-A      2.0194 eV  613.98 nm  f=0.0616  <S**2>=0.000
     244 -> 247       -0.40664
     245 -> 247        0.52757
     246 -> 248       -0.16838
     246 -> 249        0.12759

 Excited State   4:      Singlet-A      2.1369 eV  580.21 nm  f=0.0009  <S**2>=0.000
     243 -> 247        0.70419

 Excited State   5:      Singlet-A      2.2170 eV  559.25 nm  f=0.0001  <S**2>=0.000
     242 -> 247        0.70700

 The electronic state is 1-A.
 Alpha  occ. eigenvalues --  -46.27810 -18.82880 -18.82025 -18.77230 -18.76312
 Alpha  occ. eigenvalues --  -18.75667 -18.75482 -14.03306 -14.03235 -14.01652
 Alpha  occ. eigenvalues --  -14.00541 -10.04008 -10.03851 -10.01110  -9.98840
 Alpha  occ. eigenvalues --   -9.98612  -9.97520  -9.97503  -9.97328  -9.96599
 Alpha  occ. eigenvalues --   -9.96482  -9.95866  -9.95796  -9.95217  -9.94239
 Alpha  occ. eigenvalues --   -9.94201  -9.94196  -9.94084  -9.93833  -9.93723
 Alpha  occ. eigenvalues --   -9.93696  -9.93574  -9.93510  -9.93457  -9.93319
 Alpha  occ. eigenvalues --   -9.93308  -9.93119  -9.92975  -9.92929  -9.92913
 Alpha  occ. eigenvalues --   -9.92889  -9.92786  -9.92661  -9.92647  -9.92350
 Alpha  occ. eigenvalues --   -9.92223  -9.92203  -9.92188  -9.92162  -9.92134
 Alpha  occ. eigenvalues --   -9.91713  -9.91561  -9.91246  -9.91165  -9.91151
 Alpha  occ. eigenvalues --   -9.90983  -9.90869  -9.90862  -9.90753  -9.90742
 Alpha  occ. eigenvalues --   -9.90567  -9.90562  -9.90538  -9.90245  -9.90128
 Alpha  occ. eigenvalues --   -9.90093  -2.92351  -1.72757  -1.72250  -1.72061
 Alpha  occ. eigenvalues --   -0.98649  -0.97366  -0.92190  -0.90418  -0.90178
 Alpha  occ. eigenvalues --   -0.87946  -0.86825  -0.86083  -0.85735  -0.84852
 Alpha  occ. eigenvalues --   -0.74993  -0.73161  -0.72846  -0.72584  -0.72564
 Alpha  occ. eigenvalues --   -0.71437  -0.71168  -0.70511  -0.70464  -0.69711
 Alpha  occ. eigenvalues --   -0.69375  -0.69085  -0.68036  -0.67721  -0.67190
 Alpha  occ. eigenvalues --   -0.66384  -0.66060  -0.65295  -0.64790  -0.64592
 Alpha  occ. eigenvalues --   -0.63859  -0.62405  -0.61928  -0.61210  -0.60175
 Alpha  occ. eigenvalues --   -0.60018  -0.59984  -0.59794  -0.59588  -0.58421
 Alpha  occ. eigenvalues --   -0.57974  -0.57467  -0.56746  -0.55655  -0.55153
 Alpha  occ. eigenvalues --   -0.54149  -0.53320  -0.52852  -0.52131  -0.51584
 Alpha  occ. eigenvalues --   -0.51453  -0.51087  -0.50910  -0.50555  -0.50341
 Alpha  occ. eigenvalues --   -0.49602  -0.49313  -0.48420  -0.48264  -0.46164
 Alpha  occ. eigenvalues --   -0.46126  -0.45575  -0.44987  -0.44927  -0.44630
 Alpha  occ. eigenvalues --   -0.44274  -0.44101  -0.42992  -0.42566  -0.42066
 Alpha  occ. eigenvalues --   -0.41950  -0.41484  -0.41348  -0.41259  -0.40999
 Alpha  occ. eigenvalues --   -0.40749  -0.40569  -0.40358  -0.39971  -0.39931
 Alpha  occ. eigenvalues --   -0.39857  -0.39502  -0.39260  -0.39204  -0.39033
 Alpha  occ. eigenvalues --   -0.38653  -0.38435  -0.38286  -0.38076  -0.38013
 Alpha  occ. eigenvalues --   -0.37831  -0.37431  -0.37237  -0.37152  -0.37039
 Alpha  occ. eigenvalues --   -0.36983  -0.36816  -0.36493  -0.36367  -0.36207
 Alpha  occ. eigenvalues --   -0.36069  -0.35838  -0.35678  -0.35653  -0.35494
 Alpha  occ. eigenvalues --   -0.35131  -0.34891  -0.34843  -0.34606  -0.34424
 Alpha  occ. eigenvalues --   -0.34241  -0.34197  -0.34046  -0.33923  -0.33658
 Alpha  occ. eigenvalues --   -0.33634  -0.33511  -0.33348  -0.32973  -0.32901
 Alpha  occ. eigenvalues --   -0.32872  -0.32713  -0.32525  -0.32359  -0.32298
 Alpha  occ. eigenvalues --   -0.32126  -0.32050  -0.31897  -0.31521  -0.31281
 Alpha  occ. eigenvalues --   -0.31080  -0.31030  -0.30932  -0.30868  -0.30716
 Alpha  occ. eigenvalues --   -0.30578  -0.30470  -0.30385  -0.30265  -0.30045
 Alpha  occ. eigenvalues --   -0.29551  -0.29354  -0.29330  -0.28935  -0.28645
 Alpha  occ. eigenvalues --   -0.28563  -0.28201  -0.27879  -0.27807  -0.27593
 Alpha  occ. eigenvalues --   -0.27428  -0.26887  -0.26815  -0.26693  -0.26436
 Alpha  occ. eigenvalues --   -0.25958  -0.25940  -0.25719  -0.25596  -0.25475
 Alpha  occ. eigenvalues --   -0.25145  -0.24550  -0.23886  -0.23872  -0.23654
 Alpha  occ. eigenvalues --   -0.22545  -0.22115  -0.21876  -0.21322  -0.20825
 Alpha  occ. eigenvalues --   -0.20540  -0.19717  -0.19325  -0.18645  -0.17152
 Alpha  occ. eigenvalues --   -0.15951
 Alpha virt. eigenvalues --   -0.11570  -0.07345  -0.06074  -0.05081  -0.03286
 Alpha virt. eigenvalues --   -0.02965  -0.02403  -0.02069  -0.01581  -0.00158
 Alpha virt. eigenvalues --    0.01941   0.02041   0.02416   0.03009   0.03186

 Mulliken charges:
               1
     1  Mg   0.698267
     2  C   -0.003034
     3  C   -0.095455
     4  C   -0.068299
     5  C   -0.021437
     6  N   -0.186939
     7  C   -0.076772
     8  C    0.009072
     9  C    0.043629
    10  C   -0.005684
    11  C    0.137782
    12  C    0.118978
    13  C    0.167349
    14  C    0.049086
    15  O   -0.232628
    16  O   -0.227591
    17  N   -0.291057
    18  C    0.150025
    19  C   -0.131197
    20  C    0.042786
    21  C    0.074314
    22  C    0.164481
    23  C   -0.076124
    24  O   -0.191042
    25  C    0.162276
    26  N   -0.199500
    27  C    0.072715
    28  C    0.039611
    29  C   -0.015956
    30  C   -0.004557
    31  C    0.120143
    32  C    0.117402
    33  C    0.095985
    34  N   -0.258968
    35  C    0.040237
    36  C   -0.149568
    37  C    0.142398
    38  C    0.073292
    39  C    0.159025
    40  C   -0.100766
    41  O   -0.111299
    42  C    0.021354
    43  C    0.144610
    44  O   -0.176466
    45  O   -0.274663
    46  C    0.229594
    47  C    0.339877
    48  C   -0.122882
    49  C   -0.174603
    50  C    0.151833
    51  C    0.121812
    52  C    0.074420
    53  C    0.090260
    54  C   -0.060570
    55  C    0.076816
    56  C    0.085254
    57  C    0.091289
    58  C    0.133190
    59  C   -0.084808
    60  C    0.138763
    61  C    0.040496
    62  C    0.071001
    63  C    0.087074
    64  C   -0.103540
    65  C    0.111664
    66  C    0.110350
    67  H   -0.057143
    68  H   -0.078243
    69  H   -0.076331
    70  H   -0.034315
    71  H   -0.027976
    72  H   -0.020263
    73  H    0.007376
    74  H    0.004165
    75  H   -0.028763
    76  H   -0.002924
    77  H   -0.015023
    78  H    0.000318
    79  H   -0.031641
    80  H    0.012259
    81  H    0.005548
    82  H    0.012482
    83  H    0.039861
    84  H   -0.011123
    85  H   -0.028363
    86  H   -0.027259
    87  H   -0.009697
    88  H   -0.007504
    89  H   -0.019607
    90  H   -0.012912
    91  H   -0.023990
    92  H   -0.018729
    93  H   -0.001022
    94  H    0.008542
    95  H    0.007413
    96  H   -0.005647
    97  H   -0.002159
    98  H   -0.015844
    99  H    0.013897
   100  H    0.018995
   101  H    0.006625
   102  H    0.007644
   103  H   -0.001806
   104  H   -0.033798
   105  H    0.002891
   106  H    0.011585
   107  H   -0.006936
   108  H   -0.029007
   109  H   -0.037223
   110  H   -0.025918
   111  H   -0.022426
   112  H   -0.040241
   113  H   -0.036023
   114  H   -0.031208
   115  H   -0.027625
   116  H   -0.025094
   117  H   -0.013830
   118  H   -0.026366
   119  H   -0.041443
   120  H   -0.033495
   121  H   -0.052922
   122  H   -0.041485
   123  H   -0.018338
   124  H   -0.039037
   125  H   -0.021122
   126  H   -0.018032
   127  H   -0.013608
   128  H   -0.014120
   129  H   -0.023733
   130  H   -0.036199
   131  H   -0.029390
   132  H   -0.036902
   133  H   -0.028739
   134  H   -0.037729
   135  H   -0.018241
   136  H   -0.037286
   137  H   -0.013036
   138  H   -0.011575
   139  H   -0.018650
   140  H   -0.013646
 Sum of Mulliken charges =  -0.00000

 Dipole moment (field-independent basis, Debye):
    X=             -0.3532    Y=              2.3094    Z=             -1.7688  Tot=              2.9303
 Quadrupole moment (field-independent basis, Debye-Ang):
   XX=           -390.7647   YY=           -398.6582   ZZ=           -410.4963
   XY=            -53.7665   XZ=             -4.0313   YZ=            -12.8327

 Normal termination of Gaussian 16 at Fri Apr 29 06:47:06 2022.
