 Gaussian 16, Revision A.03,
 Gaussian 16:  ES64L-G16RevA.03 25-Dec-2016

 -----------------------------------
 #p cam-b3lyp/Def2SVP td=(nstates=5)
 -----------------------------------

 -----------------------------------------------------
 step_1_chromophore_20 TDDFT with cam-b3lyp functional
 -----------------------------------------------------
 Symbolic Z-matrix:
 Charge =  0 Multiplicity = 1

                         Standard orientation:
 ---------------------------------------------------------------------
 Center     Atomic      Atomic             Coordinates (Angstroms)
 Number     Number       Type             X           Y           Z
 ---------------------------------------------------------------------
      1         12           0       -4.309429    1.408365    0.530118
      2          6           0       -4.538032   -2.031652    0.321677
      3          6           0       -1.743638    1.004865    2.789373
      4          6           0       -3.674864    4.775970    0.293960
      5          6           0       -6.805484    1.726468   -1.819288
      6          7           0       -3.139102   -0.291541    1.289248
      7          6           0       -3.487231   -1.614805    1.102534
      8          6           0       -2.577158   -2.558248    1.884515
      9          6           0       -1.927656   -1.564101    2.917929
     10          6           0       -2.247255   -0.222658    2.274521
     11          6           0       -2.353688   -1.715380    4.448236
     12          6           0       -1.567250   -3.403977    1.045008
     13          6           0       -1.464910   -4.867598    1.419046
     14          6           0       -0.130534   -5.201680    2.067609
     15          8           0        0.116909   -5.199892    3.297228
     16          8           0        0.646022   -5.823163    1.199185
     17          7           0       -2.901576    2.657391    1.410964
     18          6           0       -1.971940    2.319109    2.311537
     19          6           0       -1.255548    3.493096    2.779254
     20          6           0       -1.717998    4.626992    2.132432
     21          6           0       -2.776727    4.064808    1.188302
     22          6           0       -0.040432    3.404084    3.820235
     23          6           0       -1.285015    6.108700    2.396169
     24          8           0       -0.356141    6.329683    3.223798
     25          6           0       -1.895239    7.245404    1.669428
     26          7           0       -4.980907    3.060101   -0.818763
     27          6           0       -4.710447    4.325824   -0.597013
     28          6           0       -5.668754    5.263833   -1.300733
     29          6           0       -6.673448    4.361881   -2.094867
     30          6           0       -6.209113    2.941589   -1.513292
     31          6           0       -6.246764    6.502495   -0.544541
     32          6           0       -6.686807    4.373196   -3.651003
     33          6           0       -7.956927    3.790959   -4.235971
     34          7           0       -5.463048    0.092448   -0.568812
     35          6           0       -6.531366    0.365224   -1.454221
     36          6           0       -7.130811   -0.888949   -1.820520
     37          6           0       -6.411304   -1.890928   -1.124774
     38          6           0       -5.408992   -1.212058   -0.437399
     39          6           0       -8.436564   -1.082578   -2.577054
     40          6           0       -6.377421   -3.251610   -0.909109
     41          8           0       -6.946628   -4.206083   -1.364136
     42          6           0       -5.027193   -3.451368   -0.043218
     43          6           0       -4.004838   -3.942429   -1.067034
     44          8           0       -3.391991   -3.242433   -1.849980
     45          8           0       -3.938550   -5.320062   -0.934757
     46          6           0       -3.093084   -6.013214   -1.901385
     47          6           0        1.982701   -6.335227    1.593740
     48          6           0        3.152817   -5.557334    0.942262
     49          6           0        3.277469   -5.062888   -0.357193
     50          6           0        2.240086   -5.211692   -1.503428
     51          6           0        4.587958   -4.362719   -0.756435
     52          6           0        4.504463   -2.835374   -0.590845
     53          6           0        5.128608   -2.132127   -1.787294
     54          6           0        5.652169   -0.741262   -1.296902
     55          6           0        5.552142    0.194699   -2.564836
     56          6           0        7.077878   -0.842321   -0.628500
     57          6           0        7.361549    0.257407    0.405949
     58          6           0        8.221883    1.400119   -0.220431
     59          6           0        9.632931    1.511892    0.474796
     60          6           0        9.730075    2.598902    1.523938
     61          6           0       10.678165    1.661533   -0.664744
     62          6           0       12.118945    1.363201   -0.053561
     63          6           0       13.045954    2.445941   -0.637389
     64          6           0       14.079519    1.847385   -1.595266
     65          6           0       15.200151    2.872667   -1.816169
     66          6           0       13.437060    1.361031   -2.927777
     67          1           0       -1.070409    0.953353    3.647417
     68          1           0       -3.428596    5.839432    0.278659
     69          1           0       -7.693194    1.679056   -2.453442
     70          1           0       -3.218146   -3.225820    2.459619
     71          1           0       -0.849136   -1.621166    2.766384
     72          1           0       -2.146849   -0.716148    4.831293
     73          1           0       -1.688055   -2.345642    5.038507
     74          1           0       -3.377408   -2.033407    4.645141
     75          1           0       -0.615982   -2.903484    1.226971
     76          1           0       -1.604661   -3.286725   -0.037825
     77          1           0       -1.607001   -5.445083    0.505295
     78          1           0       -2.230171   -5.170509    2.133967
     79          1           0        0.233944    2.394578    4.129258
     80          1           0       -0.263330    3.981114    4.718327
     81          1           0        0.908910    3.730773    3.398092
     82          1           0       -2.966702    7.269293    1.865645
     83          1           0       -1.587962    7.265381    0.623744
     84          1           0       -1.568618    8.119296    2.231737
     85          1           0       -5.262264    5.789068   -2.165267
     86          1           0       -7.676423    4.378185   -1.667742
     87          1           0       -5.650990    6.601051    0.363943
     88          1           0       -7.325841    6.462077   -0.391611
     89          1           0       -6.114302    7.448870   -1.069076
     90          1           0       -5.779539    3.855608   -3.962265
     91          1           0       -6.531286    5.420157   -3.911159
     92          1           0       -8.149086    4.305655   -5.177719
     93          1           0       -8.849504    3.903782   -3.619463
     94          1           0       -7.771265    2.756993   -4.526845
     95          1           0       -8.804672   -2.108531   -2.567032
     96          1           0       -8.281540   -0.729801   -3.595847
     97          1           0       -9.230424   -0.462252   -2.160868
     98          1           0       -5.204305   -4.079413    0.830418
     99          1           0       -3.517171   -5.902674   -2.899535
    100          1           0       -2.947491   -7.059736   -1.635818
    101          1           0       -2.119215   -5.526419   -1.945155
    102          1           0        2.189663   -7.356787    1.277129
    103          1           0        2.118875   -6.383601    2.673980
    104          1           0        4.003366   -5.280996    1.565179
    105          1           0        1.257099   -5.423312   -1.080974
    106          1           0        2.648514   -5.966950   -2.174623
    107          1           0        2.227979   -4.199582   -1.907037
    108          1           0        4.976525   -4.650239   -1.733644
    109          1           0        5.454215   -4.591739   -0.135365
    110          1           0        5.023598   -2.525519    0.315666
    111          1           0        3.474109   -2.497371   -0.477276
    112          1           0        4.409950   -2.013579   -2.598047
    113          1           0        5.874721   -2.726731   -2.313319
    114          1           0        4.935342   -0.245325   -0.643056
    115          1           0        5.746491   -0.371689   -3.476258
    116          1           0        6.293901    0.992670   -2.545201
    117          1           0        4.585963    0.649550   -2.782446
    118          1           0        7.800169   -0.911690   -1.442085
    119          1           0        7.163432   -1.708168    0.027754
    120          1           0        7.702706   -0.181342    1.344433
    121          1           0        6.344922    0.535209    0.683467
    122          1           0        7.703216    2.343405   -0.049668
    123          1           0        8.351704    1.276770   -1.295457
    124          1           0        9.925950    0.573125    0.945605
    125          1           0       10.271438    3.421359    1.056452
    126          1           0       10.315144    2.204912    2.354159
    127          1           0        8.802382    2.970982    1.958046
    128          1           0       10.555622    2.616079   -1.176664
    129          1           0       10.624429    0.855427   -1.396013
    130          1           0       12.473605    0.396345   -0.409892
    131          1           0       12.201721    1.316831    1.032215
    132          1           0       13.487812    2.902357    0.248114
    133          1           0       12.444059    3.172685   -1.181588
    134          1           0       14.550024    1.016370   -1.068216
    135          1           0       14.898777    3.878665   -1.521632
    136          1           0       15.516677    3.088903   -2.836674
    137          1           0       16.084535    2.435132   -1.353513
    138          1           0       13.364527    0.273929   -2.904266
    139          1           0       14.021751    1.619265   -3.810768
    140          1           0       12.463821    1.833562   -3.058390
 ---------------------------------------------------------------------

 SCF Done:  E(RCAM-B3LYP) =  -3007.15075206     A.U. after   18 cycles

 Excitation energies and oscillator strengths:

 Excited State   1:      Singlet-A      1.8714 eV  662.51 nm  f=0.3597  <S**2>=0.000
     245 -> 248       -0.14275
     246 -> 247        0.68811
 This state for optimization and/or second-order correction.
 Total Energy, E(TD-HF/TD-DFT) =  -3007.08197861
 Copying the excited state density for this state as the 1-particle RhoCI density.

 Excited State   2:      Singlet-A      2.2655 eV  547.28 nm  f=0.1290  <S**2>=0.000
     245 -> 247        0.64697
     246 -> 248        0.24640
     246 -> 249        0.10205

 Excited State   3:      Singlet-A      3.5490 eV  349.35 nm  f=0.2454  <S**2>=0.000
     238 -> 247       -0.15855
     238 -> 248       -0.12864
     238 -> 249        0.14616
     240 -> 247       -0.29028
     241 -> 247        0.30199
     242 -> 247        0.13784
     244 -> 247        0.13754
     245 -> 247       -0.14576
     246 -> 248        0.41493

 Excited State   4:      Singlet-A      3.5937 eV  345.00 nm  f=0.2287  <S**2>=0.000
     238 -> 247        0.25015
     238 -> 248        0.15713
     238 -> 249       -0.17722
     238 -> 251        0.10885
     242 -> 247       -0.16437
     244 -> 247       -0.29159
     245 -> 247       -0.17395
     246 -> 248        0.43181

 Excited State   5:      Singlet-A      3.6046 eV  343.96 nm  f=0.0023  <S**2>=0.000
     238 -> 247        0.34265
     238 -> 248        0.20386
     238 -> 249       -0.22452
     238 -> 251        0.13165
     241 -> 247        0.17949
     242 -> 247        0.20240
     244 -> 247        0.40587

 The electronic state is 1-A.
 Alpha  occ. eigenvalues --  -46.89401 -19.25750 -19.24712 -19.20218 -19.20043
 Alpha  occ. eigenvalues --  -19.18497 -19.17753 -14.42312 -14.42038 -14.40544
 Alpha  occ. eigenvalues --  -14.38506 -10.39244 -10.39040 -10.37025 -10.33443
 Alpha  occ. eigenvalues --  -10.33090 -10.32750 -10.32434 -10.31687 -10.31320
 Alpha  occ. eigenvalues --  -10.31076 -10.30357 -10.29829 -10.29796 -10.29163
 Alpha  occ. eigenvalues --  -10.28390 -10.28355 -10.28254 -10.28071 -10.28055
 Alpha  occ. eigenvalues --  -10.27821 -10.27647 -10.27421 -10.27268 -10.27248
 Alpha  occ. eigenvalues --  -10.26978 -10.26953 -10.26922 -10.26902 -10.26872
 Alpha  occ. eigenvalues --  -10.26781 -10.26718 -10.26712 -10.26675 -10.26487
 Alpha  occ. eigenvalues --  -10.26197 -10.25972 -10.25815 -10.25761 -10.25437
 Alpha  occ. eigenvalues --  -10.25301 -10.25279 -10.25003 -10.24849 -10.24819
 Alpha  occ. eigenvalues --  -10.24659 -10.24623 -10.24557 -10.24487 -10.24379
 Alpha  occ. eigenvalues --  -10.24301 -10.24196 -10.24174 -10.23924 -10.23699
 Alpha  occ. eigenvalues --  -10.23116  -3.17840  -1.92724  -1.92301  -1.92144
 Alpha  occ. eigenvalues --   -1.17030  -1.15641  -1.09840  -1.09139  -1.08082
 Alpha  occ. eigenvalues --   -1.05700  -1.04585  -1.03846  -1.03198  -1.02557
 Alpha  occ. eigenvalues --   -0.91615  -0.90008  -0.89604  -0.89379  -0.89190
 Alpha  occ. eigenvalues --   -0.88137  -0.87964  -0.87073  -0.87029  -0.86661
 Alpha  occ. eigenvalues --   -0.85849  -0.85497  -0.84371  -0.83871  -0.83634
 Alpha  occ. eigenvalues --   -0.82617  -0.82038  -0.81115  -0.80613  -0.80298
 Alpha  occ. eigenvalues --   -0.79635  -0.77842  -0.77476  -0.77124  -0.75412
 Alpha  occ. eigenvalues --   -0.75384  -0.75281  -0.75129  -0.74941  -0.73660
 Alpha  occ. eigenvalues --   -0.72995  -0.72356  -0.71679  -0.70521  -0.69638
 Alpha  occ. eigenvalues --   -0.68762  -0.67917  -0.67563  -0.66465  -0.65771
 Alpha  occ. eigenvalues --   -0.65492  -0.65354  -0.64797  -0.64586  -0.64108
 Alpha  occ. eigenvalues --   -0.63682  -0.63316  -0.62342  -0.61792  -0.59983
 Alpha  occ. eigenvalues --   -0.59556  -0.59095  -0.58500  -0.58385  -0.57998
 Alpha  occ. eigenvalues --   -0.57575  -0.57380  -0.56508  -0.55593  -0.55265
 Alpha  occ. eigenvalues --   -0.54951  -0.54324  -0.54236  -0.54153  -0.53903
 Alpha  occ. eigenvalues --   -0.53773  -0.53503  -0.53265  -0.52797  -0.52663
 Alpha  occ. eigenvalues --   -0.52547  -0.52066  -0.52013  -0.51597  -0.51575
 Alpha  occ. eigenvalues --   -0.51120  -0.50929  -0.50715  -0.50460  -0.50351
 Alpha  occ. eigenvalues --   -0.50187  -0.50076  -0.49829  -0.49607  -0.49420
 Alpha  occ. eigenvalues --   -0.49293  -0.49161  -0.49029  -0.48655  -0.48440
 Alpha  occ. eigenvalues --   -0.48385  -0.48225  -0.47820  -0.47645  -0.47532
 Alpha  occ. eigenvalues --   -0.47151  -0.47033  -0.46743  -0.46548  -0.46306
 Alpha  occ. eigenvalues --   -0.46098  -0.45964  -0.45949  -0.45784  -0.45430
 Alpha  occ. eigenvalues --   -0.45305  -0.45183  -0.45117  -0.44872  -0.44655
 Alpha  occ. eigenvalues --   -0.44534  -0.44449  -0.44272  -0.44110  -0.43943
 Alpha  occ. eigenvalues --   -0.43677  -0.43603  -0.43425  -0.43102  -0.42959
 Alpha  occ. eigenvalues --   -0.42707  -0.42484  -0.42333  -0.42288  -0.42243
 Alpha  occ. eigenvalues --   -0.42025  -0.41874  -0.41709  -0.41651  -0.41375
 Alpha  occ. eigenvalues --   -0.40806  -0.40538  -0.40393  -0.40213  -0.39910
 Alpha  occ. eigenvalues --   -0.39583  -0.39321  -0.39174  -0.38858  -0.38519
 Alpha  occ. eigenvalues --   -0.38338  -0.37982  -0.37793  -0.37667  -0.37300
 Alpha  occ. eigenvalues --   -0.36704  -0.36629  -0.36553  -0.36407  -0.36293
 Alpha  occ. eigenvalues --   -0.36178  -0.35632  -0.34697  -0.34441  -0.34386
 Alpha  occ. eigenvalues --   -0.33095  -0.32957  -0.32436  -0.32172  -0.31883
 Alpha  occ. eigenvalues --   -0.30873  -0.29702  -0.29251  -0.29119  -0.24074
 Alpha  occ. eigenvalues --   -0.21506
 Alpha virt. eigenvalues --   -0.08440  -0.01796   0.00105   0.01803   0.01978
 Alpha virt. eigenvalues --    0.04642   0.05136   0.05672   0.05946   0.06964
 Alpha virt. eigenvalues --    0.07877   0.08569   0.08718   0.09397   0.09438

 Mulliken charges:
               1
     1  Mg   0.829049
     2  C   -0.032111
     3  C   -0.117637
     4  C   -0.096335
     5  C   -0.030604
     6  N   -0.260204
     7  C   -0.040347
     8  C   -0.032773
     9  C   -0.019558
    10  C    0.029196
    11  C    0.082523
    12  C    0.057911
    13  C    0.097779
    14  C    0.133465
    15  O   -0.277134
    16  O   -0.293883
    17  N   -0.381859
    18  C    0.167447
    19  C   -0.136726
    20  C   -0.024811
    21  C    0.115768
    22  C    0.116761
    23  C    0.007404
    24  O   -0.226352
    25  C    0.070436
    26  N   -0.264616
    27  C    0.101835
    28  C   -0.027445
    29  C   -0.054109
    30  C    0.007726
    31  C    0.065026
    32  C    0.060328
    33  C    0.025695
    34  N   -0.347410
    35  C    0.034325
    36  C   -0.140659
    37  C    0.052176
    38  C    0.114603
    39  C    0.104369
    40  C   -0.011962
    41  O   -0.157428
    42  C   -0.046202
    43  C    0.231292
    44  O   -0.211825
    45  O   -0.336572
    46  C    0.186006
    47  C    0.308743
    48  C   -0.149849
    49  C   -0.195914
    50  C    0.099580
    51  C    0.059020
    52  C    0.024147
    53  C    0.036243
    54  C   -0.120733
    55  C    0.023142
    56  C    0.033947
    57  C    0.035873
    58  C    0.078744
    59  C   -0.137492
    60  C    0.076972
    61  C   -0.007787
    62  C    0.015097
    63  C    0.030939
    64  C   -0.161016
    65  C    0.050663
    66  C    0.050357
    67  H   -0.023556
    68  H   -0.042831
    69  H   -0.041156
    70  H    0.000890
    71  H    0.008916
    72  H    0.002273
    73  H    0.034711
    74  H    0.029725
    75  H    0.000945
    76  H    0.029505
    77  H    0.018726
    78  H    0.033064
    79  H   -0.001443
    80  H    0.041444
    81  H    0.035511
    82  H    0.040910
    83  H    0.068514
    84  H    0.028267
    85  H    0.010146
    86  H    0.006819
    87  H    0.011494
    88  H    0.019474
    89  H    0.006896
    90  H    0.016584
    91  H    0.001311
    92  H    0.007715
    93  H    0.022221
    94  H    0.031224
    95  H    0.034134
    96  H    0.015929
    97  H    0.019542
    98  H    0.025396
    99  H    0.039394
   100  H    0.042321
   101  H    0.025902
   102  H    0.035178
   103  H    0.033690
   104  H   -0.001799
   105  H    0.026914
   106  H    0.035031
   107  H    0.013945
   108  H    0.001482
   109  H   -0.005510
   110  H    0.000493
   111  H    0.005489
   112  H   -0.009712
   113  H   -0.007607
   114  H   -0.000358
   115  H   -0.003900
   116  H   -0.002639
   117  H    0.011325
   118  H    0.000283
   119  H   -0.012157
   120  H   -0.004383
   121  H   -0.022975
   122  H   -0.011946
   123  H    0.007026
   124  H   -0.007732
   125  H    0.002477
   126  H    0.005466
   127  H    0.011332
   128  H    0.011069
   129  H    0.004232
   130  H   -0.006893
   131  H   -0.001041
   132  H   -0.005731
   133  H   -0.002424
   134  H   -0.005485
   135  H    0.006303
   136  H   -0.011358
   137  H    0.010902
   138  H    0.011606
   139  H    0.006881
   140  H    0.008377
 Sum of Mulliken charges =  -0.00000

 Dipole moment (field-independent basis, Debye):
    X=              0.7629    Y=              3.8761    Z=             -0.8976  Tot=              4.0511
 Quadrupole moment (field-independent basis, Debye-Ang):
   XX=           -398.4494   YY=           -391.3155   ZZ=           -409.0178
   XY=            -59.7879   XZ=             -7.1517   YZ=            -11.4615

 Normal termination of Gaussian 16 at Fri Apr 29 05:42:48 2022.
