 Gaussian 16, Revision A.03,
 Gaussian 16:  ES64L-G16RevA.03 25-Dec-2016

 ---------------------------------
 #p PBE1PBE/Def2SVP td=(nstates=5)
 ---------------------------------

 ---------------------------------------------------
 step_1_chromophore_20 TDDFT with PBE1PBE functional
 ---------------------------------------------------
 Symbolic Z-matrix:
 Charge =  0 Multiplicity = 1

                         Standard orientation:
 ---------------------------------------------------------------------
 Center     Atomic      Atomic             Coordinates (Angstroms)
 Number     Number       Type             X           Y           Z
 ---------------------------------------------------------------------
      1         12           0       -4.309429    1.408365    0.530118
      2          6           0       -4.538032   -2.031652    0.321677
      3          6           0       -1.743638    1.004865    2.789373
      4          6           0       -3.674864    4.775970    0.293960
      5          6           0       -6.805484    1.726468   -1.819288
      6          7           0       -3.139102   -0.291541    1.289248
      7          6           0       -3.487231   -1.614805    1.102534
      8          6           0       -2.577158   -2.558248    1.884515
      9          6           0       -1.927656   -1.564101    2.917929
     10          6           0       -2.247255   -0.222658    2.274521
     11          6           0       -2.353688   -1.715380    4.448236
     12          6           0       -1.567250   -3.403977    1.045008
     13          6           0       -1.464910   -4.867598    1.419046
     14          6           0       -0.130534   -5.201680    2.067609
     15          8           0        0.116909   -5.199892    3.297228
     16          8           0        0.646022   -5.823163    1.199185
     17          7           0       -2.901576    2.657391    1.410964
     18          6           0       -1.971940    2.319109    2.311537
     19          6           0       -1.255548    3.493096    2.779254
     20          6           0       -1.717998    4.626992    2.132432
     21          6           0       -2.776727    4.064808    1.188302
     22          6           0       -0.040432    3.404084    3.820235
     23          6           0       -1.285015    6.108700    2.396169
     24          8           0       -0.356141    6.329683    3.223798
     25          6           0       -1.895239    7.245404    1.669428
     26          7           0       -4.980907    3.060101   -0.818763
     27          6           0       -4.710447    4.325824   -0.597013
     28          6           0       -5.668754    5.263833   -1.300733
     29          6           0       -6.673448    4.361881   -2.094867
     30          6           0       -6.209113    2.941589   -1.513292
     31          6           0       -6.246764    6.502495   -0.544541
     32          6           0       -6.686807    4.373196   -3.651003
     33          6           0       -7.956927    3.790959   -4.235971
     34          7           0       -5.463048    0.092448   -0.568812
     35          6           0       -6.531366    0.365224   -1.454221
     36          6           0       -7.130811   -0.888949   -1.820520
     37          6           0       -6.411304   -1.890928   -1.124774
     38          6           0       -5.408992   -1.212058   -0.437399
     39          6           0       -8.436564   -1.082578   -2.577054
     40          6           0       -6.377421   -3.251610   -0.909109
     41          8           0       -6.946628   -4.206083   -1.364136
     42          6           0       -5.027193   -3.451368   -0.043218
     43          6           0       -4.004838   -3.942429   -1.067034
     44          8           0       -3.391991   -3.242433   -1.849980
     45          8           0       -3.938550   -5.320062   -0.934757
     46          6           0       -3.093084   -6.013214   -1.901385
     47          6           0        1.982701   -6.335227    1.593740
     48          6           0        3.152817   -5.557334    0.942262
     49          6           0        3.277469   -5.062888   -0.357193
     50          6           0        2.240086   -5.211692   -1.503428
     51          6           0        4.587958   -4.362719   -0.756435
     52          6           0        4.504463   -2.835374   -0.590845
     53          6           0        5.128608   -2.132127   -1.787294
     54          6           0        5.652169   -0.741262   -1.296902
     55          6           0        5.552142    0.194699   -2.564836
     56          6           0        7.077878   -0.842321   -0.628500
     57          6           0        7.361549    0.257407    0.405949
     58          6           0        8.221883    1.400119   -0.220431
     59          6           0        9.632931    1.511892    0.474796
     60          6           0        9.730075    2.598902    1.523938
     61          6           0       10.678165    1.661533   -0.664744
     62          6           0       12.118945    1.363201   -0.053561
     63          6           0       13.045954    2.445941   -0.637389
     64          6           0       14.079519    1.847385   -1.595266
     65          6           0       15.200151    2.872667   -1.816169
     66          6           0       13.437060    1.361031   -2.927777
     67          1           0       -1.070409    0.953353    3.647417
     68          1           0       -3.428596    5.839432    0.278659
     69          1           0       -7.693194    1.679056   -2.453442
     70          1           0       -3.218146   -3.225820    2.459619
     71          1           0       -0.849136   -1.621166    2.766384
     72          1           0       -2.146849   -0.716148    4.831293
     73          1           0       -1.688055   -2.345642    5.038507
     74          1           0       -3.377408   -2.033407    4.645141
     75          1           0       -0.615982   -2.903484    1.226971
     76          1           0       -1.604661   -3.286725   -0.037825
     77          1           0       -1.607001   -5.445083    0.505295
     78          1           0       -2.230171   -5.170509    2.133967
     79          1           0        0.233944    2.394578    4.129258
     80          1           0       -0.263330    3.981114    4.718327
     81          1           0        0.908910    3.730773    3.398092
     82          1           0       -2.966702    7.269293    1.865645
     83          1           0       -1.587962    7.265381    0.623744
     84          1           0       -1.568618    8.119296    2.231737
     85          1           0       -5.262264    5.789068   -2.165267
     86          1           0       -7.676423    4.378185   -1.667742
     87          1           0       -5.650990    6.601051    0.363943
     88          1           0       -7.325841    6.462077   -0.391611
     89          1           0       -6.114302    7.448870   -1.069076
     90          1           0       -5.779539    3.855608   -3.962265
     91          1           0       -6.531286    5.420157   -3.911159
     92          1           0       -8.149086    4.305655   -5.177719
     93          1           0       -8.849504    3.903782   -3.619463
     94          1           0       -7.771265    2.756993   -4.526845
     95          1           0       -8.804672   -2.108531   -2.567032
     96          1           0       -8.281540   -0.729801   -3.595847
     97          1           0       -9.230424   -0.462252   -2.160868
     98          1           0       -5.204305   -4.079413    0.830418
     99          1           0       -3.517171   -5.902674   -2.899535
    100          1           0       -2.947491   -7.059736   -1.635818
    101          1           0       -2.119215   -5.526419   -1.945155
    102          1           0        2.189663   -7.356787    1.277129
    103          1           0        2.118875   -6.383601    2.673980
    104          1           0        4.003366   -5.280996    1.565179
    105          1           0        1.257099   -5.423312   -1.080974
    106          1           0        2.648514   -5.966950   -2.174623
    107          1           0        2.227979   -4.199582   -1.907037
    108          1           0        4.976525   -4.650239   -1.733644
    109          1           0        5.454215   -4.591739   -0.135365
    110          1           0        5.023598   -2.525519    0.315666
    111          1           0        3.474109   -2.497371   -0.477276
    112          1           0        4.409950   -2.013579   -2.598047
    113          1           0        5.874721   -2.726731   -2.313319
    114          1           0        4.935342   -0.245325   -0.643056
    115          1           0        5.746491   -0.371689   -3.476258
    116          1           0        6.293901    0.992670   -2.545201
    117          1           0        4.585963    0.649550   -2.782446
    118          1           0        7.800169   -0.911690   -1.442085
    119          1           0        7.163432   -1.708168    0.027754
    120          1           0        7.702706   -0.181342    1.344433
    121          1           0        6.344922    0.535209    0.683467
    122          1           0        7.703216    2.343405   -0.049668
    123          1           0        8.351704    1.276770   -1.295457
    124          1           0        9.925950    0.573125    0.945605
    125          1           0       10.271438    3.421359    1.056452
    126          1           0       10.315144    2.204912    2.354159
    127          1           0        8.802382    2.970982    1.958046
    128          1           0       10.555622    2.616079   -1.176664
    129          1           0       10.624429    0.855427   -1.396013
    130          1           0       12.473605    0.396345   -0.409892
    131          1           0       12.201721    1.316831    1.032215
    132          1           0       13.487812    2.902357    0.248114
    133          1           0       12.444059    3.172685   -1.181588
    134          1           0       14.550024    1.016370   -1.068216
    135          1           0       14.898777    3.878665   -1.521632
    136          1           0       15.516677    3.088903   -2.836674
    137          1           0       16.084535    2.435132   -1.353513
    138          1           0       13.364527    0.273929   -2.904266
    139          1           0       14.021751    1.619265   -3.810768
    140          1           0       12.463821    1.833562   -3.058390
 ---------------------------------------------------------------------

 SCF Done:  E(RPBE1PBE) =  -3005.33733193     A.U. after   16 cycles

 Excitation energies and oscillator strengths:

 Excited State   1:      Singlet-A      1.8878 eV  656.78 nm  f=0.3490  <S**2>=0.000
     245 -> 248       -0.14499
     246 -> 247        0.69236
 This state for optimization and/or second-order correction.
 Total Energy, E(TD-HF/TD-DFT) =  -3005.26795814
 Copying the excited state density for this state as the 1-particle RhoCI density.

 Excited State   2:      Singlet-A      2.2310 eV  555.74 nm  f=0.1195  <S**2>=0.000
     245 -> 247        0.65875
     246 -> 248        0.22050
     246 -> 249        0.11290

 Excited State   3:      Singlet-A      3.0020 eV  413.01 nm  f=0.0007  <S**2>=0.000
     242 -> 247       -0.22092
     243 -> 247        0.64224
     243 -> 249        0.10886

 Excited State   4:      Singlet-A      3.1447 eV  394.27 nm  f=0.0013  <S**2>=0.000
     241 -> 247        0.10984
     242 -> 247        0.62857
     243 -> 247        0.22847
     246 -> 248       -0.18243

 Excited State   5:      Singlet-A      3.2293 eV  383.94 nm  f=0.0432  <S**2>=0.000
     240 -> 247        0.45911
     240 -> 248        0.16597
     240 -> 249       -0.13098
     241 -> 247       -0.33191
     246 -> 248       -0.31393

 The electronic state is 1-A.
 Alpha  occ. eigenvalues --  -46.92793 -19.26420 -19.25506 -19.20435 -19.20070
 Alpha  occ. eigenvalues --  -19.18836 -19.18507 -14.41722 -14.41576 -14.39970
 Alpha  occ. eigenvalues --  -14.38433 -10.36450 -10.36100 -10.33826 -10.30984
 Alpha  occ. eigenvalues --  -10.30231 -10.30156 -10.29696 -10.28971 -10.28647
 Alpha  occ. eigenvalues --  -10.28542 -10.28113 -10.27867 -10.26863 -10.26841
 Alpha  occ. eigenvalues --  -10.26361 -10.26058 -10.26023 -10.25953 -10.25528
 Alpha  occ. eigenvalues --  -10.25527 -10.25525 -10.25339 -10.25265 -10.25212
 Alpha  occ. eigenvalues --  -10.24574 -10.24556 -10.24543 -10.24515 -10.24490
 Alpha  occ. eigenvalues --  -10.24452 -10.24411 -10.24289 -10.24052 -10.23791
 Alpha  occ. eigenvalues --  -10.23789 -10.23683 -10.23354 -10.23165 -10.23125
 Alpha  occ. eigenvalues --  -10.22998 -10.22923 -10.22664 -10.22388 -10.22351
 Alpha  occ. eigenvalues --  -10.22213 -10.22204 -10.22069 -10.22023 -10.21852
 Alpha  occ. eigenvalues --  -10.21740 -10.21571 -10.21498 -10.21464 -10.21456
 Alpha  occ. eigenvalues --  -10.21066  -3.14815  -1.87638  -1.87192  -1.87042
 Alpha  occ. eigenvalues --   -1.11870  -1.10540  -1.05074  -1.03478  -1.03060
 Alpha  occ. eigenvalues --   -1.00557  -0.99163  -0.98381  -0.97907  -0.97211
 Alpha  occ. eigenvalues --   -0.86280  -0.84101  -0.83789  -0.83484  -0.83479
 Alpha  occ. eigenvalues --   -0.82227  -0.82169  -0.81361  -0.81159  -0.80597
 Alpha  occ. eigenvalues --   -0.80363  -0.79731  -0.78522  -0.78110  -0.77728
 Alpha  occ. eigenvalues --   -0.76827  -0.76250  -0.75482  -0.74831  -0.74667
 Alpha  occ. eigenvalues --   -0.73782  -0.72238  -0.71740  -0.71161  -0.69826
 Alpha  occ. eigenvalues --   -0.69567  -0.69429  -0.69369  -0.69022  -0.67806
 Alpha  occ. eigenvalues --   -0.67344  -0.66840  -0.66079  -0.64794  -0.64064
 Alpha  occ. eigenvalues --   -0.63259  -0.62102  -0.61910  -0.60659  -0.60210
 Alpha  occ. eigenvalues --   -0.59922  -0.59531  -0.59324  -0.59093  -0.58775
 Alpha  occ. eigenvalues --   -0.57767  -0.57453  -0.56515  -0.56482  -0.54376
 Alpha  occ. eigenvalues --   -0.54182  -0.53660  -0.53012  -0.52766  -0.52646
 Alpha  occ. eigenvalues --   -0.52149  -0.51949  -0.50893  -0.50217  -0.49752
 Alpha  occ. eigenvalues --   -0.49636  -0.48904  -0.48682  -0.48573  -0.48316
 Alpha  occ. eigenvalues --   -0.48160  -0.48006  -0.47907  -0.47232  -0.47134
 Alpha  occ. eigenvalues --   -0.47119  -0.46591  -0.46459  -0.46211  -0.46054
 Alpha  occ. eigenvalues --   -0.45720  -0.45480  -0.45408  -0.45190  -0.44868
 Alpha  occ. eigenvalues --   -0.44730  -0.44478  -0.44318  -0.44166  -0.43991
 Alpha  occ. eigenvalues --   -0.43872  -0.43819  -0.43613  -0.43418  -0.43014
 Alpha  occ. eigenvalues --   -0.42999  -0.42866  -0.42448  -0.42265  -0.42207
 Alpha  occ. eigenvalues --   -0.41658  -0.41580  -0.41270  -0.41207  -0.41111
 Alpha  occ. eigenvalues --   -0.40778  -0.40640  -0.40576  -0.40329  -0.40186
 Alpha  occ. eigenvalues --   -0.40029  -0.39974  -0.39928  -0.39545  -0.39378
 Alpha  occ. eigenvalues --   -0.39256  -0.39071  -0.38927  -0.38823  -0.38750
 Alpha  occ. eigenvalues --   -0.38534  -0.38324  -0.38245  -0.37894  -0.37744
 Alpha  occ. eigenvalues --   -0.37394  -0.37298  -0.37214  -0.37077  -0.36935
 Alpha  occ. eigenvalues --   -0.36804  -0.36708  -0.36507  -0.36406  -0.36143
 Alpha  occ. eigenvalues --   -0.35853  -0.35367  -0.35340  -0.35126  -0.34847
 Alpha  occ. eigenvalues --   -0.34412  -0.34216  -0.34086  -0.33825  -0.33291
 Alpha  occ. eigenvalues --   -0.33024  -0.33010  -0.32556  -0.32421  -0.32071
 Alpha  occ. eigenvalues --   -0.31659  -0.31522  -0.31477  -0.31395  -0.31257
 Alpha  occ. eigenvalues --   -0.31076  -0.30606  -0.29948  -0.29411  -0.29318
 Alpha  occ. eigenvalues --   -0.28708  -0.27771  -0.27222  -0.27144  -0.26767
 Alpha  occ. eigenvalues --   -0.26398  -0.25327  -0.24972  -0.24561  -0.20869
 Alpha  occ. eigenvalues --   -0.18960
 Alpha virt. eigenvalues --   -0.11088  -0.05478  -0.03938  -0.02540  -0.00928
 Alpha virt. eigenvalues --    0.00132   0.00612   0.01118   0.01370   0.02798
 Alpha virt. eigenvalues --    0.04547   0.05212   0.05293   0.05796   0.06160

 Mulliken charges:
               1
     1  Mg   0.974162
     2  C   -0.048783
     3  C   -0.103323
     4  C   -0.094717
     5  C   -0.044358
     6  N   -0.365682
     7  C    0.027014
     8  C   -0.092287
     9  C   -0.097028
    10  C    0.067938
    11  C    0.021849
    12  C    0.007880
    13  C    0.012572
    14  C    0.207507
    15  O   -0.310692
    16  O   -0.326830
    17  N   -0.493052
    18  C    0.183241
    19  C   -0.160821
    20  C   -0.071047
    21  C    0.137572
    22  C    0.061661
    23  C    0.053073
    24  O   -0.260911
    25  C   -0.007282
    26  N   -0.362903
    27  C    0.134141
    28  C   -0.103637
    29  C   -0.115061
    30  C    0.044843
    31  C    0.005760
    32  C   -0.006979
    33  C   -0.049684
    34  N   -0.476859
    35  C    0.066999
    36  C   -0.148230
    37  C    0.003327
    38  C    0.187143
    39  C    0.050832
    40  C    0.072682
    41  O   -0.199611
    42  C   -0.156275
    43  C    0.322838
    44  O   -0.243363
    45  O   -0.367427
    46  C    0.126764
    47  C    0.264650
    48  C   -0.163602
    49  C   -0.236146
    50  C    0.031267
    51  C   -0.002484
    52  C   -0.036068
    53  C   -0.015642
    54  C   -0.210654
    55  C   -0.036900
    56  C   -0.019123
    57  C   -0.025726
    58  C    0.023115
    59  C   -0.222239
    60  C    0.019010
    61  C   -0.065504
    62  C   -0.040446
    63  C   -0.028143
    64  C   -0.258254
    65  C   -0.005902
    66  C   -0.007563
    67  H    0.008727
    68  H   -0.006154
    69  H   -0.004944
    70  H    0.039459
    71  H    0.046461
    72  H    0.031702
    73  H    0.061002
    74  H    0.054972
    75  H    0.035490
    76  H    0.061088
    77  H    0.058475
    78  H    0.064016
    79  H    0.022216
    80  H    0.066431
    81  H    0.060557
    82  H    0.066788
    83  H    0.092855
    84  H    0.055106
    85  H    0.049012
    86  H    0.044844
    87  H    0.040481
    88  H    0.045271
    89  H    0.033413
    90  H    0.049844
    91  H    0.036106
    92  H    0.037679
    93  H    0.048724
    94  H    0.057457
    95  H    0.062681
    96  H    0.045846
    97  H    0.048745
    98  H    0.060803
    99  H    0.062395
   100  H    0.064468
   101  H    0.047810
   102  H    0.062400
   103  H    0.059186
   104  H    0.028360
   105  H    0.056914
   106  H    0.062828
   107  H    0.043209
   108  H    0.032752
   109  H    0.026893
   110  H    0.033759
   111  H    0.038716
   112  H    0.023326
   113  H    0.023576
   114  H    0.037075
   115  H    0.024029
   116  H    0.027633
   117  H    0.039229
   118  H    0.032658
   119  H    0.020571
   120  H    0.026201
   121  H    0.010907
   122  H    0.021484
   123  H    0.037297
   124  H    0.030913
   125  H    0.031305
   126  H    0.032197
   127  H    0.038807
   128  H    0.041329
   129  H    0.037815
   130  H    0.026349
   131  H    0.029985
   132  H    0.027648
   133  H    0.030654
   134  H    0.032718
   135  H    0.032822
   136  H    0.015751
   137  H    0.037925
   138  H    0.038144
   139  H    0.034267
   140  H    0.035944
 Sum of Mulliken charges =  -0.00000

 Dipole moment (field-independent basis, Debye):
    X=              0.0614    Y=              3.1727    Z=             -1.4737  Tot=              3.4988
 Quadrupole moment (field-independent basis, Debye-Ang):
   XX=           -388.4930   YY=           -390.1100   ZZ=           -405.9430
   XY=            -58.3959   XZ=             -4.0863   YZ=            -13.1017

 Normal termination of Gaussian 16 at Fri Apr 29 06:04:10 2022.
