 Gaussian 16, Revision A.03,
 Gaussian 16:  ES64L-G16RevA.03 25-Dec-2016

 --------------------------------
 #p wB97XD/Def2SVP td=(nstates=5)
 --------------------------------

 --------------------------------------------------
 step_1_chromophore_20 TDDFT with wB97XD functional
 --------------------------------------------------
 Symbolic Z-matrix:
 Charge =  0 Multiplicity = 1

                         Standard orientation:
 ---------------------------------------------------------------------
 Center     Atomic      Atomic             Coordinates (Angstroms)
 Number     Number       Type             X           Y           Z
 ---------------------------------------------------------------------
      1         12           0       -4.309429    1.408365    0.530118
      2          6           0       -4.538032   -2.031652    0.321677
      3          6           0       -1.743638    1.004865    2.789373
      4          6           0       -3.674864    4.775970    0.293960
      5          6           0       -6.805484    1.726468   -1.819288
      6          7           0       -3.139102   -0.291541    1.289248
      7          6           0       -3.487231   -1.614805    1.102534
      8          6           0       -2.577158   -2.558248    1.884515
      9          6           0       -1.927656   -1.564101    2.917929
     10          6           0       -2.247255   -0.222658    2.274521
     11          6           0       -2.353688   -1.715380    4.448236
     12          6           0       -1.567250   -3.403977    1.045008
     13          6           0       -1.464910   -4.867598    1.419046
     14          6           0       -0.130534   -5.201680    2.067609
     15          8           0        0.116909   -5.199892    3.297228
     16          8           0        0.646022   -5.823163    1.199185
     17          7           0       -2.901576    2.657391    1.410964
     18          6           0       -1.971940    2.319109    2.311537
     19          6           0       -1.255548    3.493096    2.779254
     20          6           0       -1.717998    4.626992    2.132432
     21          6           0       -2.776727    4.064808    1.188302
     22          6           0       -0.040432    3.404084    3.820235
     23          6           0       -1.285015    6.108700    2.396169
     24          8           0       -0.356141    6.329683    3.223798
     25          6           0       -1.895239    7.245404    1.669428
     26          7           0       -4.980907    3.060101   -0.818763
     27          6           0       -4.710447    4.325824   -0.597013
     28          6           0       -5.668754    5.263833   -1.300733
     29          6           0       -6.673448    4.361881   -2.094867
     30          6           0       -6.209113    2.941589   -1.513292
     31          6           0       -6.246764    6.502495   -0.544541
     32          6           0       -6.686807    4.373196   -3.651003
     33          6           0       -7.956927    3.790959   -4.235971
     34          7           0       -5.463048    0.092448   -0.568812
     35          6           0       -6.531366    0.365224   -1.454221
     36          6           0       -7.130811   -0.888949   -1.820520
     37          6           0       -6.411304   -1.890928   -1.124774
     38          6           0       -5.408992   -1.212058   -0.437399
     39          6           0       -8.436564   -1.082578   -2.577054
     40          6           0       -6.377421   -3.251610   -0.909109
     41          8           0       -6.946628   -4.206083   -1.364136
     42          6           0       -5.027193   -3.451368   -0.043218
     43          6           0       -4.004838   -3.942429   -1.067034
     44          8           0       -3.391991   -3.242433   -1.849980
     45          8           0       -3.938550   -5.320062   -0.934757
     46          6           0       -3.093084   -6.013214   -1.901385
     47          6           0        1.982701   -6.335227    1.593740
     48          6           0        3.152817   -5.557334    0.942262
     49          6           0        3.277469   -5.062888   -0.357193
     50          6           0        2.240086   -5.211692   -1.503428
     51          6           0        4.587958   -4.362719   -0.756435
     52          6           0        4.504463   -2.835374   -0.590845
     53          6           0        5.128608   -2.132127   -1.787294
     54          6           0        5.652169   -0.741262   -1.296902
     55          6           0        5.552142    0.194699   -2.564836
     56          6           0        7.077878   -0.842321   -0.628500
     57          6           0        7.361549    0.257407    0.405949
     58          6           0        8.221883    1.400119   -0.220431
     59          6           0        9.632931    1.511892    0.474796
     60          6           0        9.730075    2.598902    1.523938
     61          6           0       10.678165    1.661533   -0.664744
     62          6           0       12.118945    1.363201   -0.053561
     63          6           0       13.045954    2.445941   -0.637389
     64          6           0       14.079519    1.847385   -1.595266
     65          6           0       15.200151    2.872667   -1.816169
     66          6           0       13.437060    1.361031   -2.927777
     67          1           0       -1.070409    0.953353    3.647417
     68          1           0       -3.428596    5.839432    0.278659
     69          1           0       -7.693194    1.679056   -2.453442
     70          1           0       -3.218146   -3.225820    2.459619
     71          1           0       -0.849136   -1.621166    2.766384
     72          1           0       -2.146849   -0.716148    4.831293
     73          1           0       -1.688055   -2.345642    5.038507
     74          1           0       -3.377408   -2.033407    4.645141
     75          1           0       -0.615982   -2.903484    1.226971
     76          1           0       -1.604661   -3.286725   -0.037825
     77          1           0       -1.607001   -5.445083    0.505295
     78          1           0       -2.230171   -5.170509    2.133967
     79          1           0        0.233944    2.394578    4.129258
     80          1           0       -0.263330    3.981114    4.718327
     81          1           0        0.908910    3.730773    3.398092
     82          1           0       -2.966702    7.269293    1.865645
     83          1           0       -1.587962    7.265381    0.623744
     84          1           0       -1.568618    8.119296    2.231737
     85          1           0       -5.262264    5.789068   -2.165267
     86          1           0       -7.676423    4.378185   -1.667742
     87          1           0       -5.650990    6.601051    0.363943
     88          1           0       -7.325841    6.462077   -0.391611
     89          1           0       -6.114302    7.448870   -1.069076
     90          1           0       -5.779539    3.855608   -3.962265
     91          1           0       -6.531286    5.420157   -3.911159
     92          1           0       -8.149086    4.305655   -5.177719
     93          1           0       -8.849504    3.903782   -3.619463
     94          1           0       -7.771265    2.756993   -4.526845
     95          1           0       -8.804672   -2.108531   -2.567032
     96          1           0       -8.281540   -0.729801   -3.595847
     97          1           0       -9.230424   -0.462252   -2.160868
     98          1           0       -5.204305   -4.079413    0.830418
     99          1           0       -3.517171   -5.902674   -2.899535
    100          1           0       -2.947491   -7.059736   -1.635818
    101          1           0       -2.119215   -5.526419   -1.945155
    102          1           0        2.189663   -7.356787    1.277129
    103          1           0        2.118875   -6.383601    2.673980
    104          1           0        4.003366   -5.280996    1.565179
    105          1           0        1.257099   -5.423312   -1.080974
    106          1           0        2.648514   -5.966950   -2.174623
    107          1           0        2.227979   -4.199582   -1.907037
    108          1           0        4.976525   -4.650239   -1.733644
    109          1           0        5.454215   -4.591739   -0.135365
    110          1           0        5.023598   -2.525519    0.315666
    111          1           0        3.474109   -2.497371   -0.477276
    112          1           0        4.409950   -2.013579   -2.598047
    113          1           0        5.874721   -2.726731   -2.313319
    114          1           0        4.935342   -0.245325   -0.643056
    115          1           0        5.746491   -0.371689   -3.476258
    116          1           0        6.293901    0.992670   -2.545201
    117          1           0        4.585963    0.649550   -2.782446
    118          1           0        7.800169   -0.911690   -1.442085
    119          1           0        7.163432   -1.708168    0.027754
    120          1           0        7.702706   -0.181342    1.344433
    121          1           0        6.344922    0.535209    0.683467
    122          1           0        7.703216    2.343405   -0.049668
    123          1           0        8.351704    1.276770   -1.295457
    124          1           0        9.925950    0.573125    0.945605
    125          1           0       10.271438    3.421359    1.056452
    126          1           0       10.315144    2.204912    2.354159
    127          1           0        8.802382    2.970982    1.958046
    128          1           0       10.555622    2.616079   -1.176664
    129          1           0       10.624429    0.855427   -1.396013
    130          1           0       12.473605    0.396345   -0.409892
    131          1           0       12.201721    1.316831    1.032215
    132          1           0       13.487812    2.902357    0.248114
    133          1           0       12.444059    3.172685   -1.181588
    134          1           0       14.550024    1.016370   -1.068216
    135          1           0       14.898777    3.878665   -1.521632
    136          1           0       15.516677    3.088903   -2.836674
    137          1           0       16.084535    2.435132   -1.353513
    138          1           0       13.364527    0.273929   -2.904266
    139          1           0       14.021751    1.619265   -3.810768
    140          1           0       12.463821    1.833562   -3.058390
 ---------------------------------------------------------------------

 SCF Done:  E(RwB97XD) =  -3007.85180418     A.U. after   18 cycles

 Excitation energies and oscillator strengths:

 Excited State   1:      Singlet-A      1.8793 eV  659.72 nm  f=0.3635  <S**2>=0.000
     245 -> 248       -0.14160
     246 -> 247        0.68598
 This state for optimization and/or second-order correction.
 Total Energy, E(TD-HF/TD-DFT) =  -3007.78273953
 Copying the excited state density for this state as the 1-particle RhoCI density.

 Excited State   2:      Singlet-A      2.2276 eV  556.58 nm  f=0.1272  <S**2>=0.000
     245 -> 247        0.64407
     246 -> 248        0.24597
     246 -> 249        0.10669

 Excited State   3:      Singlet-A      3.5508 eV  349.17 nm  f=0.1253  <S**2>=0.000
     238 -> 247        0.18555
     238 -> 248        0.17410
     238 -> 249       -0.20767
     238 -> 250       -0.11293
     239 -> 247        0.35473
     239 -> 249       -0.12404
     241 -> 247       -0.29383
     242 -> 247       -0.11280
     246 -> 248       -0.29792

 Excited State   4:      Singlet-A      3.6003 eV  344.37 nm  f=0.2040  <S**2>=0.000
     238 -> 247        0.38230
     238 -> 248        0.20190
     238 -> 249       -0.24339
     238 -> 250       -0.10303
     239 -> 249       -0.10161
     241 -> 247        0.19372
     245 -> 247       -0.13009
     246 -> 248        0.34716

 Excited State   5:      Singlet-A      3.6655 eV  338.25 nm  f=0.1620  <S**2>=0.000
     238 -> 247        0.10228
     239 -> 247       -0.10029
     241 -> 247        0.20432
     242 -> 247        0.27384
     244 -> 247        0.40833
     245 -> 247        0.16301
     246 -> 248       -0.36189
     246 -> 249       -0.10417

 The electronic state is 1-A.
 Alpha  occ. eigenvalues --  -46.95752 -19.30964 -19.29883 -19.25340 -19.24902
 Alpha  occ. eigenvalues --  -19.23477 -19.22686 -14.46913 -14.46619 -14.45215
 Alpha  occ. eigenvalues --  -14.43033 -10.43047 -10.42856 -10.41097 -10.37361
 Alpha  occ. eigenvalues --  -10.37336 -10.36641 -10.36544 -10.35797 -10.35249
 Alpha  occ. eigenvalues --  -10.35029 -10.34353 -10.34084 -10.33799 -10.33386
 Alpha  occ. eigenvalues --  -10.32425 -10.32329 -10.32303 -10.32205 -10.32126
 Alpha  occ. eigenvalues --  -10.31848 -10.31701 -10.31360 -10.31260 -10.31124
 Alpha  occ. eigenvalues --  -10.31001 -10.30944 -10.30882 -10.30829 -10.30784
 Alpha  occ. eigenvalues --  -10.30779 -10.30739 -10.30684 -10.30573 -10.30536
 Alpha  occ. eigenvalues --  -10.30155 -10.29979 -10.29646 -10.29589 -10.29372
 Alpha  occ. eigenvalues --  -10.29224 -10.29090 -10.28990 -10.28778 -10.28740
 Alpha  occ. eigenvalues --  -10.28593 -10.28585 -10.28474 -10.28435 -10.28230
 Alpha  occ. eigenvalues --  -10.28199 -10.28032 -10.27994 -10.27840 -10.27508
 Alpha  occ. eigenvalues --  -10.27009  -3.21648  -1.95217  -1.94771  -1.94618
 Alpha  occ. eigenvalues --   -1.19224  -1.17735  -1.11973  -1.11436  -1.10209
 Alpha  occ. eigenvalues --   -1.07889  -1.06606  -1.05876  -1.05286  -1.04552
 Alpha  occ. eigenvalues --   -0.93521  -0.91779  -0.91414  -0.91159  -0.91042
 Alpha  occ. eigenvalues --   -0.89946  -0.89918  -0.88985  -0.88865  -0.88713
 Alpha  occ. eigenvalues --   -0.87750  -0.87370  -0.86260  -0.85725  -0.85555
 Alpha  occ. eigenvalues --   -0.84546  -0.83913  -0.83010  -0.82463  -0.82236
 Alpha  occ. eigenvalues --   -0.81458  -0.79732  -0.79409  -0.79082  -0.77322
 Alpha  occ. eigenvalues --   -0.77164  -0.77160  -0.77054  -0.76751  -0.75497
 Alpha  occ. eigenvalues --   -0.74911  -0.74313  -0.73654  -0.72453  -0.71549
 Alpha  occ. eigenvalues --   -0.70757  -0.69774  -0.69608  -0.68315  -0.67725
 Alpha  occ. eigenvalues --   -0.67407  -0.67203  -0.66795  -0.66567  -0.66097
 Alpha  occ. eigenvalues --   -0.65484  -0.65139  -0.64179  -0.63758  -0.62043
 Alpha  occ. eigenvalues --   -0.61505  -0.61095  -0.60509  -0.60274  -0.59908
 Alpha  occ. eigenvalues --   -0.59461  -0.59326  -0.58527  -0.57515  -0.57200
 Alpha  occ. eigenvalues --   -0.56868  -0.56282  -0.56079  -0.56054  -0.55891
 Alpha  occ. eigenvalues --   -0.55658  -0.55423  -0.55195  -0.54778  -0.54555
 Alpha  occ. eigenvalues --   -0.54466  -0.53960  -0.53907  -0.53506  -0.53464
 Alpha  occ. eigenvalues --   -0.53034  -0.52836  -0.52576  -0.52420  -0.52247
 Alpha  occ. eigenvalues --   -0.52065  -0.52041  -0.51828  -0.51504  -0.51329
 Alpha  occ. eigenvalues --   -0.51191  -0.51049  -0.50976  -0.50523  -0.50320
 Alpha  occ. eigenvalues --   -0.50278  -0.50130  -0.49706  -0.49543  -0.49454
 Alpha  occ. eigenvalues --   -0.49142  -0.48917  -0.48597  -0.48478  -0.48205
 Alpha  occ. eigenvalues --   -0.48025  -0.47899  -0.47827  -0.47625  -0.47322
 Alpha  occ. eigenvalues --   -0.47169  -0.47086  -0.47051  -0.46789  -0.46556
 Alpha  occ. eigenvalues --   -0.46440  -0.46305  -0.46227  -0.46007  -0.45828
 Alpha  occ. eigenvalues --   -0.45560  -0.45496  -0.45323  -0.45079  -0.44840
 Alpha  occ. eigenvalues --   -0.44763  -0.44451  -0.44248  -0.44200  -0.44104
 Alpha  occ. eigenvalues --   -0.43933  -0.43766  -0.43588  -0.43530  -0.43241
 Alpha  occ. eigenvalues --   -0.42686  -0.42414  -0.42313  -0.42103  -0.41823
 Alpha  occ. eigenvalues --   -0.41449  -0.41251  -0.41085  -0.40776  -0.40367
 Alpha  occ. eigenvalues --   -0.40159  -0.39892  -0.39639  -0.39504  -0.39143
 Alpha  occ. eigenvalues --   -0.38694  -0.38545  -0.38471  -0.38427  -0.38135
 Alpha  occ. eigenvalues --   -0.38082  -0.37604  -0.36672  -0.36299  -0.36247
 Alpha  occ. eigenvalues --   -0.35345  -0.34860  -0.34469  -0.34126  -0.34010
 Alpha  occ. eigenvalues --   -0.33080  -0.31642  -0.31272  -0.31175  -0.26056
 Alpha  occ. eigenvalues --   -0.23372
 Alpha virt. eigenvalues --   -0.06723   0.00148   0.02172   0.04061   0.04952
 Alpha virt. eigenvalues --    0.06944   0.07329   0.08020   0.08272   0.09358
 Alpha virt. eigenvalues --    0.10743   0.11964   0.12098   0.12521   0.12871

 Mulliken charges:
               1
     1  Mg   0.966805
     2  C   -0.042623
     3  C   -0.128229
     4  C   -0.109502
     5  C   -0.042405
     6  N   -0.332423
     7  C   -0.006178
     8  C   -0.069673
     9  C   -0.072815
    10  C    0.060835
    11  C    0.034775
    12  C    0.019621
    13  C    0.036959
    14  C    0.192416
    15  O   -0.307643
    16  O   -0.324504
    17  N   -0.466400
    18  C    0.185838
    19  C   -0.152614
    20  C   -0.065678
    21  C    0.142608
    22  C    0.071981
    23  C    0.052436
    24  O   -0.253772
    25  C    0.003592
    26  N   -0.331167
    27  C    0.128904
    28  C   -0.083590
    29  C   -0.090942
    30  C    0.027465
    31  C    0.020531
    32  C    0.009878
    33  C   -0.034498
    34  N   -0.438305
    35  C    0.046297
    36  C   -0.148624
    37  C    0.002584
    38  C    0.157295
    39  C    0.059530
    40  C    0.058339
    41  O   -0.195282
    42  C   -0.117763
    43  C    0.296014
    44  O   -0.238806
    45  O   -0.365256
    46  C    0.141568
    47  C    0.279113
    48  C   -0.173631
    49  C   -0.223313
    50  C    0.050577
    51  C    0.014369
    52  C   -0.020900
    53  C   -0.002071
    54  C   -0.177963
    55  C   -0.022746
    56  C   -0.007179
    57  C   -0.008454
    58  C    0.039281
    59  C   -0.189875
    60  C    0.027064
    61  C   -0.046683
    62  C   -0.028266
    63  C   -0.009541
    64  C   -0.225879
    65  C    0.003619
    66  C    0.003263
    67  H   -0.000954
    68  H   -0.019610
    69  H   -0.016895
    70  H    0.025167
    71  H    0.035948
    72  H    0.022340
    73  H    0.058097
    74  H    0.051768
    75  H    0.024479
    76  H    0.053583
    77  H    0.045730
    78  H    0.058881
    79  H    0.021010
    80  H    0.065017
    81  H    0.059122
    82  H    0.061988
    83  H    0.091058
    84  H    0.055131
    85  H    0.038310
    86  H    0.031719
    87  H    0.030397
    88  H    0.041707
    89  H    0.029115
    90  H    0.041852
    91  H    0.025778
    92  H    0.032393
    93  H    0.043201
    94  H    0.051586
    95  H    0.058501
    96  H    0.037857
    97  H    0.040892
    98  H    0.055399
    99  H    0.059377
   100  H    0.061644
   101  H    0.041390
   102  H    0.057661
   103  H    0.056453
   104  H    0.024684
   105  H    0.049350
   106  H    0.057604
   107  H    0.035084
   108  H    0.024920
   109  H    0.019635
   110  H    0.022773
   111  H    0.029470
   112  H    0.014489
   113  H    0.014304
   114  H    0.023587
   115  H    0.016513
   116  H    0.019180
   117  H    0.034154
   118  H    0.023031
   119  H    0.011922
   120  H    0.019397
   121  H    0.000744
   122  H    0.013410
   123  H    0.024537
   124  H    0.016811
   125  H    0.023533
   126  H    0.026749
   127  H    0.033791
   128  H    0.030931
   129  H    0.027490
   130  H    0.016596
   131  H    0.021925
   132  H    0.019945
   133  H    0.017457
   134  H    0.021481
   135  H    0.026810
   136  H    0.009846
   137  H    0.032926
   138  H    0.032844
   139  H    0.028881
   140  H    0.027740
 Sum of Mulliken charges =  -0.00000

 Dipole moment (field-independent basis, Debye):
    X=              0.8911    Y=              4.1431    Z=             -0.7932  Tot=              4.3114
 Quadrupole moment (field-independent basis, Debye-Ang):
   XX=           -395.4197   YY=           -386.4534   ZZ=           -405.1702
   XY=            -60.8786   XZ=             -6.9463   YZ=            -11.3609

 Normal termination of Gaussian 16 at Fri Apr 29 06:34:57 2022.
