 Gaussian 16, Revision A.03,
 Gaussian 16:  ES64L-G16RevA.03 25-Dec-2016

 --------------------
 #p ZINDO=(nstates=5)
 --------------------

 ---------------------------
 step_1_chromophore_20 ZINDO
 ---------------------------
 Symbolic Z-matrix:
 Charge =  0 Multiplicity = 1

                         Standard orientation:
 ---------------------------------------------------------------------
 Center     Atomic      Atomic             Coordinates (Angstroms)
 Number     Number       Type             X           Y           Z
 ---------------------------------------------------------------------
      1         12           0       -4.309429    1.408365    0.530118
      2          6           0       -4.538032   -2.031652    0.321677
      3          6           0       -1.743638    1.004865    2.789373
      4          6           0       -3.674864    4.775970    0.293960
      5          6           0       -6.805484    1.726468   -1.819288
      6          7           0       -3.139102   -0.291541    1.289248
      7          6           0       -3.487231   -1.614805    1.102534
      8          6           0       -2.577158   -2.558248    1.884515
      9          6           0       -1.927656   -1.564101    2.917929
     10          6           0       -2.247255   -0.222658    2.274521
     11          6           0       -2.353688   -1.715380    4.448236
     12          6           0       -1.567250   -3.403977    1.045008
     13          6           0       -1.464910   -4.867598    1.419046
     14          6           0       -0.130534   -5.201680    2.067609
     15          8           0        0.116909   -5.199892    3.297228
     16          8           0        0.646022   -5.823163    1.199185
     17          7           0       -2.901576    2.657391    1.410964
     18          6           0       -1.971940    2.319109    2.311537
     19          6           0       -1.255548    3.493096    2.779254
     20          6           0       -1.717998    4.626992    2.132432
     21          6           0       -2.776727    4.064808    1.188302
     22          6           0       -0.040432    3.404084    3.820235
     23          6           0       -1.285015    6.108700    2.396169
     24          8           0       -0.356141    6.329683    3.223798
     25          6           0       -1.895239    7.245404    1.669428
     26          7           0       -4.980907    3.060101   -0.818763
     27          6           0       -4.710447    4.325824   -0.597013
     28          6           0       -5.668754    5.263833   -1.300733
     29          6           0       -6.673448    4.361881   -2.094867
     30          6           0       -6.209113    2.941589   -1.513292
     31          6           0       -6.246764    6.502495   -0.544541
     32          6           0       -6.686807    4.373196   -3.651003
     33          6           0       -7.956927    3.790959   -4.235971
     34          7           0       -5.463048    0.092448   -0.568812
     35          6           0       -6.531366    0.365224   -1.454221
     36          6           0       -7.130811   -0.888949   -1.820520
     37          6           0       -6.411304   -1.890928   -1.124774
     38          6           0       -5.408992   -1.212058   -0.437399
     39          6           0       -8.436564   -1.082578   -2.577054
     40          6           0       -6.377421   -3.251610   -0.909109
     41          8           0       -6.946628   -4.206083   -1.364136
     42          6           0       -5.027193   -3.451368   -0.043218
     43          6           0       -4.004838   -3.942429   -1.067034
     44          8           0       -3.391991   -3.242433   -1.849980
     45          8           0       -3.938550   -5.320062   -0.934757
     46          6           0       -3.093084   -6.013214   -1.901385
     47          6           0        1.982701   -6.335227    1.593740
     48          6           0        3.152817   -5.557334    0.942262
     49          6           0        3.277469   -5.062888   -0.357193
     50          6           0        2.240086   -5.211692   -1.503428
     51          6           0        4.587958   -4.362719   -0.756435
     52          6           0        4.504463   -2.835374   -0.590845
     53          6           0        5.128608   -2.132127   -1.787294
     54          6           0        5.652169   -0.741262   -1.296902
     55          6           0        5.552142    0.194699   -2.564836
     56          6           0        7.077878   -0.842321   -0.628500
     57          6           0        7.361549    0.257407    0.405949
     58          6           0        8.221883    1.400119   -0.220431
     59          6           0        9.632931    1.511892    0.474796
     60          6           0        9.730075    2.598902    1.523938
     61          6           0       10.678165    1.661533   -0.664744
     62          6           0       12.118945    1.363201   -0.053561
     63          6           0       13.045954    2.445941   -0.637389
     64          6           0       14.079519    1.847385   -1.595266
     65          6           0       15.200151    2.872667   -1.816169
     66          6           0       13.437060    1.361031   -2.927777
     67          1           0       -1.070409    0.953353    3.647417
     68          1           0       -3.428596    5.839432    0.278659
     69          1           0       -7.693194    1.679056   -2.453442
     70          1           0       -3.218146   -3.225820    2.459619
     71          1           0       -0.849136   -1.621166    2.766384
     72          1           0       -2.146849   -0.716148    4.831293
     73          1           0       -1.688055   -2.345642    5.038507
     74          1           0       -3.377408   -2.033407    4.645141
     75          1           0       -0.615982   -2.903484    1.226971
     76          1           0       -1.604661   -3.286725   -0.037825
     77          1           0       -1.607001   -5.445083    0.505295
     78          1           0       -2.230171   -5.170509    2.133967
     79          1           0        0.233944    2.394578    4.129258
     80          1           0       -0.263330    3.981114    4.718327
     81          1           0        0.908910    3.730773    3.398092
     82          1           0       -2.966702    7.269293    1.865645
     83          1           0       -1.587962    7.265381    0.623744
     84          1           0       -1.568618    8.119296    2.231737
     85          1           0       -5.262264    5.789068   -2.165267
     86          1           0       -7.676423    4.378185   -1.667742
     87          1           0       -5.650990    6.601051    0.363943
     88          1           0       -7.325841    6.462077   -0.391611
     89          1           0       -6.114302    7.448870   -1.069076
     90          1           0       -5.779539    3.855608   -3.962265
     91          1           0       -6.531286    5.420157   -3.911159
     92          1           0       -8.149086    4.305655   -5.177719
     93          1           0       -8.849504    3.903782   -3.619463
     94          1           0       -7.771265    2.756993   -4.526845
     95          1           0       -8.804672   -2.108531   -2.567032
     96          1           0       -8.281540   -0.729801   -3.595847
     97          1           0       -9.230424   -0.462252   -2.160868
     98          1           0       -5.204305   -4.079413    0.830418
     99          1           0       -3.517171   -5.902674   -2.899535
    100          1           0       -2.947491   -7.059736   -1.635818
    101          1           0       -2.119215   -5.526419   -1.945155
    102          1           0        2.189663   -7.356787    1.277129
    103          1           0        2.118875   -6.383601    2.673980
    104          1           0        4.003366   -5.280996    1.565179
    105          1           0        1.257099   -5.423312   -1.080974
    106          1           0        2.648514   -5.966950   -2.174623
    107          1           0        2.227979   -4.199582   -1.907037
    108          1           0        4.976525   -4.650239   -1.733644
    109          1           0        5.454215   -4.591739   -0.135365
    110          1           0        5.023598   -2.525519    0.315666
    111          1           0        3.474109   -2.497371   -0.477276
    112          1           0        4.409950   -2.013579   -2.598047
    113          1           0        5.874721   -2.726731   -2.313319
    114          1           0        4.935342   -0.245325   -0.643056
    115          1           0        5.746491   -0.371689   -3.476258
    116          1           0        6.293901    0.992670   -2.545201
    117          1           0        4.585963    0.649550   -2.782446
    118          1           0        7.800169   -0.911690   -1.442085
    119          1           0        7.163432   -1.708168    0.027754
    120          1           0        7.702706   -0.181342    1.344433
    121          1           0        6.344922    0.535209    0.683467
    122          1           0        7.703216    2.343405   -0.049668
    123          1           0        8.351704    1.276770   -1.295457
    124          1           0        9.925950    0.573125    0.945605
    125          1           0       10.271438    3.421359    1.056452
    126          1           0       10.315144    2.204912    2.354159
    127          1           0        8.802382    2.970982    1.958046
    128          1           0       10.555622    2.616079   -1.176664
    129          1           0       10.624429    0.855427   -1.396013
    130          1           0       12.473605    0.396345   -0.409892
    131          1           0       12.201721    1.316831    1.032215
    132          1           0       13.487812    2.902357    0.248114
    133          1           0       12.444059    3.172685   -1.181588
    134          1           0       14.550024    1.016370   -1.068216
    135          1           0       14.898777    3.878665   -1.521632
    136          1           0       15.516677    3.088903   -2.836674
    137          1           0       16.084535    2.435132   -1.353513
    138          1           0       13.364527    0.273929   -2.904266
    139          1           0       14.021751    1.619265   -3.810768
    140          1           0       12.463821    1.833562   -3.058390
 ---------------------------------------------------------------------

 SCF Done:  E(RZINDO/S) =  -474.048077549     A.U. after   17 cycles

 Excitation energies and oscillator strengths:

 Excited State   1:      Singlet-A      1.5257 eV  812.63 nm  f=0.4519  <S**2>=0.000
     176 ->177         0.67868
 This state for optimization and/or second-order correction.
 Total Energy, E(CIS/TDA) =  -473.992008717
 Copying the excited state density for this state as the 1-particle RhoCI density.

 Excited State   2:      Singlet-A      1.9971 eV  620.82 nm  f=0.0726  <S**2>=0.000
     175 ->177         0.55624
     176 ->178         0.34212
     176 ->179        -0.16523

 Excited State   3:      Singlet-A      2.9706 eV  417.37 nm  f=0.0500  <S**2>=0.000
     167 ->177        -0.25106
     167 ->178         0.28361
     167 ->179         0.33316
     167 ->180        -0.19471
     167 ->184         0.13440
     168 ->177        -0.15221
     168 ->178         0.15827
     168 ->179         0.18206
     168 ->180        -0.10698
     176 ->178         0.12983

 Excited State   4:      Singlet-A      2.9934 eV  414.19 nm  f=0.8007  <S**2>=0.000
     175 ->177        -0.34815
     176 ->178         0.49024
     176 ->179        -0.23300

 Excited State   5:      Singlet-A      3.0636 eV  404.70 nm  f=0.1511  <S**2>=0.000
     171 ->177         0.18959
     171 ->179         0.24169
     171 ->180         0.33073
     171 ->185        -0.13697
     171 ->189         0.16411
     176 ->178         0.15336
     176 ->179         0.24927
     176 ->180         0.24515

 The electronic state is 1-A.
 Alpha  occ. eigenvalues --   -1.84669  -1.80739  -1.78858  -1.73372  -1.71819
 Alpha  occ. eigenvalues --   -1.70217  -1.65424  -1.61843  -1.58313  -1.58087
 Alpha  occ. eigenvalues --   -1.54860  -1.50221  -1.49751  -1.47995  -1.46936
 Alpha  occ. eigenvalues --   -1.42557  -1.41933  -1.38901  -1.37802  -1.37363
 Alpha  occ. eigenvalues --   -1.35236  -1.32627  -1.31109  -1.30292  -1.27815
 Alpha  occ. eigenvalues --   -1.26967  -1.26630  -1.23101  -1.21485  -1.18773
 Alpha  occ. eigenvalues --   -1.16725  -1.16253  -1.14633  -1.14359  -1.12616
 Alpha  occ. eigenvalues --   -1.11733  -1.10316  -1.09761  -1.04671  -1.03242
 Alpha  occ. eigenvalues --   -1.01679  -1.01289  -0.98491  -0.97974  -0.97048
 Alpha  occ. eigenvalues --   -0.96796  -0.95072  -0.94955  -0.92850  -0.92622
 Alpha  occ. eigenvalues --   -0.90497  -0.90257  -0.89147  -0.88334  -0.86906
 Alpha  occ. eigenvalues --   -0.86705  -0.85601  -0.83191  -0.81662  -0.80734
 Alpha  occ. eigenvalues --   -0.79804  -0.79202  -0.77579  -0.76707  -0.76531
 Alpha  occ. eigenvalues --   -0.76106  -0.75368  -0.75106  -0.74736  -0.72902
 Alpha  occ. eigenvalues --   -0.72264  -0.71912  -0.71388  -0.70694  -0.70567
 Alpha  occ. eigenvalues --   -0.70087  -0.69519  -0.68946  -0.68432  -0.67601
 Alpha  occ. eigenvalues --   -0.67506  -0.66717  -0.66561  -0.66296  -0.65678
 Alpha  occ. eigenvalues --   -0.65214  -0.64464  -0.64123  -0.63624  -0.63519
 Alpha  occ. eigenvalues --   -0.63165  -0.62875  -0.62552  -0.62318  -0.61644
 Alpha  occ. eigenvalues --   -0.61010  -0.60772  -0.60453  -0.60164  -0.59947
 Alpha  occ. eigenvalues --   -0.59826  -0.59365  -0.59100  -0.58289  -0.58164
 Alpha  occ. eigenvalues --   -0.57857  -0.57694  -0.57216  -0.57105  -0.55822
 Alpha  occ. eigenvalues --   -0.55762  -0.55646  -0.55457  -0.54913  -0.54465
 Alpha  occ. eigenvalues --   -0.54294  -0.54097  -0.53565  -0.53234  -0.53049
 Alpha  occ. eigenvalues --   -0.52836  -0.52554  -0.52068  -0.51850  -0.51615
 Alpha  occ. eigenvalues --   -0.51440  -0.51323  -0.50952  -0.50571  -0.50475
 Alpha  occ. eigenvalues --   -0.50206  -0.49804  -0.49337  -0.49173  -0.48936
 Alpha  occ. eigenvalues --   -0.48733  -0.48576  -0.48452  -0.48105  -0.47694
 Alpha  occ. eigenvalues --   -0.47240  -0.46886  -0.46822  -0.46668  -0.46385
 Alpha  occ. eigenvalues --   -0.46108  -0.46001  -0.45818  -0.45759  -0.45527
 Alpha  occ. eigenvalues --   -0.45151  -0.44672  -0.44480  -0.44395  -0.44167
 Alpha  occ. eigenvalues --   -0.43902  -0.43481  -0.42197  -0.41844  -0.41621
 Alpha  occ. eigenvalues --   -0.41068  -0.40696  -0.39533  -0.38762  -0.38414
 Alpha  occ. eigenvalues --   -0.38179  -0.37816  -0.37294  -0.35682  -0.34489
 Alpha  occ. eigenvalues --   -0.33285  -0.32446  -0.31453  -0.31088  -0.27099
 Alpha  occ. eigenvalues --   -0.22519
 Alpha virt. eigenvalues --   -0.08013  -0.02300  -0.01025   0.00814   0.01321
 Alpha virt. eigenvalues --    0.01500   0.02802   0.03407   0.04308   0.04425
 Alpha virt. eigenvalues --    0.04750   0.06819   0.06986   0.07251   0.07563

 Mulliken charges:
               1
     1  Mg   0.437723
     2  C   -0.033114
     3  C   -0.114728
     4  C   -0.108339
     5  C   -0.037836
     6  N   -0.279493
     7  C    0.084224
     8  C    0.001358
     9  C    0.002143
    10  C    0.205182
    11  C   -0.048566
    12  C   -0.019304
    13  C    0.011934
    14  C    0.473513
    15  O   -0.550641
    16  O   -0.249447
    17  N   -0.337517
    18  C    0.177064
    19  C    0.062155
    20  C   -0.029378
    21  C    0.135374
    22  C   -0.043054
    23  C    0.337829
    24  O   -0.519128
    25  C   -0.024429
    26  N   -0.258337
    27  C    0.209827
    28  C    0.000907
    29  C   -0.011703
    30  C    0.034120
    31  C   -0.052365
    32  C   -0.015352
    33  C   -0.050259
    34  N   -0.311561
    35  C    0.022523
    36  C    0.002954
    37  C   -0.070187
    38  C    0.124238
    39  C   -0.041339
    40  C    0.332184
    41  O   -0.539490
    42  C    0.037108
    43  C    0.496041
    44  O   -0.523320
    45  O   -0.272742
    46  C    0.074195
    47  C    0.106694
    48  C   -0.109408
    49  C   -0.009235
    50  C   -0.045490
    51  C   -0.024969
    52  C   -0.027033
    53  C   -0.034358
    54  C   -0.015766
    55  C   -0.066364
    56  C   -0.032460
    57  C   -0.042464
    58  C   -0.034870
    59  C   -0.013252
    60  C   -0.051608
    61  C   -0.040442
    62  C   -0.052157
    63  C   -0.035246
    64  C   -0.006792
    65  C   -0.065370
    66  C   -0.055490
    67  H    0.028953
    68  H    0.020960
    69  H    0.020683
    70  H    0.024163
    71  H    0.037793
    72  H    0.017343
    73  H    0.030265
    74  H    0.035458
    75  H    0.017547
    76  H    0.044380
    77  H    0.039713
    78  H    0.042961
    79  H    0.020985
    80  H    0.042649
    81  H    0.039265
    82  H    0.039412
    83  H    0.055822
    84  H    0.036722
    85  H    0.033776
    86  H    0.029210
    87  H    0.020764
    88  H    0.028613
    89  H    0.017082
    90  H    0.028602
    91  H    0.012463
    92  H    0.010329
    93  H    0.028388
    94  H    0.027445
    95  H    0.032897
    96  H    0.024298
    97  H    0.019390
    98  H    0.051068
    99  H    0.047075
   100  H    0.035980
   101  H    0.034289
   102  H    0.043660
   103  H    0.054230
   104  H    0.031075
   105  H    0.032041
   106  H    0.039920
   107  H    0.030190
   108  H    0.023463
   109  H    0.014401
   110  H    0.021580
   111  H    0.020242
   112  H    0.013687
   113  H    0.022230
   114  H    0.025198
   115  H    0.010481
   116  H    0.011008
   117  H    0.020512
   118  H    0.024968
   119  H    0.014635
   120  H    0.023131
   121  H    0.013985
   122  H    0.015435
   123  H    0.027356
   124  H    0.019188
   125  H    0.019200
   126  H    0.014438
   127  H    0.021992
   128  H    0.030738
   129  H    0.014847
   130  H    0.015703
   131  H    0.024112
   132  H    0.012772
   133  H    0.023376
   134  H    0.019286
   135  H    0.021216
   136  H    0.010409
   137  H    0.019816
   138  H    0.018325
   139  H    0.017763
   140  H    0.021759
 Sum of Mulliken charges =  -0.00000

 Dipole moment (field-independent basis, Debye):
    X=              2.2523    Y=              7.1949    Z=              1.0637  Tot=              7.6138
 N-N= 4.409887778460D+03 E-N= 0.000000000000D+00  KE=-9.493983002014D+03
 Leave Link  601 at Fri Apr 29 06:47:13 2022, MaxMem=  6710886400 cpu:               0.9 elap:               0.1
 (Enter /sw/apps/gaussian-16.0/g16/l9999.exe)
 1\1\GINC-BP1-COMPUTE082\SP\RZINDO CIS\STO-3G\C55H74Mg1N4O6\OF15641\29-
 Apr-2022\0\\#p ZINDO=(nstates=5)\\step_1_chromophore_20 ZINDO\\0,1\Mg,
 0,7.142,57.546,41.517\C,0,6.289,54.207,41.287\C,0,10.288,56.721,40.389
 \C,0,7.812,60.897,41.169\C,0,3.941,58.304,42.532\N,0,8.1,55.732,40.725
 \C,0,7.55,54.468,40.808\C,0,8.519,53.393,40.323\C,0,9.885,54.174,40.37
 \C,0,9.397,55.613,40.452\C,0,10.941,53.738,41.484\C,0,8.181,52.719,38.
 955\C,0,8.311,51.211,38.915\C,0,9.481,50.759,38.055\O,0,10.648,50.529,

 Normal termination of Gaussian 16 at Fri Apr 29 06:47:13 2022.
