 Gaussian 16, Revision A.03,
 Gaussian 16:  ES64L-G16RevA.03 25-Dec-2016

 ------------------------------
 #p blyp/Def2SVP td=(nstates=5)
 ------------------------------

 --------------------------------------------------
 step_601_chromophore_21 TDDFT with blyp functional
 --------------------------------------------------
 Symbolic Z-matrix:
 Charge =  0 Multiplicity = 1

                         Standard orientation:
 ---------------------------------------------------------------------
 Center     Atomic      Atomic             Coordinates (Angstroms)
 Number     Number       Type             X           Y           Z
 ---------------------------------------------------------------------
      1         12           0        5.328600    1.191537   -0.050637
      2          6           0        5.059476   -2.378124   -0.111942
      3          6           0        2.004336    1.388817   -0.773421
      4          6           0        5.776199    4.378313    0.315922
      5          6           0        8.841743    0.714150   -0.003666
      6          7           0        3.770114   -0.284066   -0.295959
      7          6           0        3.771757   -1.674569   -0.179533
      8          6           0        2.384646   -2.289577    0.000881
      9          6           0        1.520711   -1.102944   -0.605099
     10          6           0        2.494602    0.069908   -0.634490
     11          6           0        1.045981   -1.443400   -2.121703
     12          6           0        2.198871   -2.537702    1.463625
     13          6           0        1.060177   -3.533960    1.814704
     14          6           0        0.015496   -3.898165    0.691252
     15          8           0        0.212431   -4.753887   -0.168984
     16          8           0       -1.163799   -3.263412    0.971639
     17          7           0        3.968054    2.753718   -0.205643
     18          6           0        2.665642    2.651545   -0.573635
     19          6           0        2.138779    4.026030   -0.549603
     20          6           0        3.193277    4.921589   -0.217363
     21          6           0        4.347071    4.071160   -0.002155
     22          6           0        0.697560    4.353231   -1.059439
     23          6           0        3.181865    6.441098   -0.101241
     24          8           0        4.142639    7.114633    0.211553
     25          6           0        1.932143    7.232289   -0.437977
     26          7           0        7.054770    2.350237    0.313715
     27          6           0        6.983126    3.647714    0.436704
     28          6           0        8.342300    4.342169    0.636795
     29          6           0        9.271498    3.095768    0.797971
     30          6           0        8.350206    1.982060    0.394412
     31          6           0        8.732701    5.229665   -0.641087
     32          6           0        9.793805    2.826885    2.216161
     33          6           0       11.372171    2.436598    2.342930
     34          7           0        6.781390   -0.418804   -0.325064
     35          6           0        8.109957   -0.500509   -0.337616
     36          6           0        8.588714   -1.839665   -0.478232
     37          6           0        7.407306   -2.575839   -0.321836
     38          6           0        6.359338   -1.728998   -0.205392
     39          6           0       10.014599   -2.244724   -0.673562
     40          6           0        6.964039   -3.917979   -0.129032
     41          8           0        7.548874   -4.979375   -0.111541
     42          6           0        5.344801   -3.891700   -0.140635
     43          6           0        4.872289   -4.505086   -1.472202
     44          8           0        5.099168   -4.148404   -2.654660
     45          8           0        3.954642   -5.487964   -1.173299
     46          6           0        3.200901   -6.033377   -2.287442
     47          6           0       -2.206475   -3.731076   -0.006823
     48          6           0       -3.450908   -2.793995    0.089911
     49          6           0       -4.805103   -3.064810    0.067648
     50          6           0       -5.139098   -4.458422   -0.177698
     51          6           0       -5.802789   -1.949654   -0.016158
     52          6           0       -6.122716   -1.287376    1.315359
     53          6           0       -7.276808   -1.743273    2.095406
     54          6           0       -8.570716   -0.899847    2.056516
     55          6           0       -9.292228   -1.070302    3.426331
     56          6           0       -9.469332   -1.234000    0.842665
     57          6           0      -10.424318   -0.151987    0.458312
     58          6           0      -11.952132   -0.585107    0.688529
     59          6           0      -12.756266    0.595980    1.057705
     60          6           0      -12.766120    0.752012    2.571375
     61          6           0      -14.234291    0.472906    0.551655
     62          6           0      -14.637082    1.826219   -0.057287
     63          6           0      -14.692612    1.882723   -1.569544
     64          6           0      -15.555353    3.043752   -2.005157
     65          6           0      -17.101740    2.768076   -1.875419
     66          6           0      -15.270612    3.590216   -3.420640
     67          1           0        0.928700    1.540016   -0.886336
     68          1           0        5.967211    5.453412    0.316498
     69          1           0        9.917234    0.626133    0.163073
     70          1           0        2.425892   -3.288853   -0.432829
     71          1           0        0.699044   -1.000476    0.104322
     72          1           0        1.358841   -0.703957   -2.858714
     73          1           0       -0.043205   -1.485529   -2.121309
     74          1           0        1.318293   -2.462335   -2.396163
     75          1           0        1.808913   -1.659023    1.978655
     76          1           0        3.129711   -2.881836    1.912801
     77          1           0        0.720492   -3.291577    2.821661
     78          1           0        1.596970   -4.471567    1.960869
     79          1           0        0.733288    4.867526   -2.020565
     80          1           0        0.124212    5.018013   -0.413467
     81          1           0        0.130854    3.430385   -1.177322
     82          1           0        1.488436    6.797495   -1.334452
     83          1           0        2.203476    8.264151   -0.659356
     84          1           0        1.172879    7.276106    0.342689
     85          1           0        8.562876    4.969500    1.500477
     86          1           0       10.083038    3.121239    0.070270
     87          1           0        8.393116    6.230523   -0.377043
     88          1           0        8.254672    4.915404   -1.569322
     89          1           0        9.798633    5.338626   -0.842969
     90          1           0        9.220893    1.995057    2.627768
     91          1           0        9.620035    3.615728    2.948274
     92          1           0       11.764680    2.364606    1.328412
     93          1           0       11.585397    1.514732    2.883298
     94          1           0       11.940814    3.193112    2.882508
     95          1           0       10.567325   -1.318194   -0.828730
     96          1           0       10.135998   -2.830107   -1.585082
     97          1           0       10.496614   -2.814557    0.120462
     98          1           0        4.819390   -4.374139    0.683869
     99          1           0        3.692620   -6.992486   -2.448981
    100          1           0        3.176437   -5.365953   -3.148698
    101          1           0        2.196731   -6.339432   -1.994380
    102          1           0       -2.539436   -4.700381    0.362902
    103          1           0       -1.875927   -3.744221   -1.045568
    104          1           0       -3.266484   -1.745127    0.322863
    105          1           0       -4.496395   -4.914783   -0.929484
    106          1           0       -6.075570   -4.475902   -0.734342
    107          1           0       -5.120670   -4.989821    0.773441
    108          1           0       -6.605884   -2.461726   -0.546059
    109          1           0       -5.195511   -1.325078   -0.671195
    110          1           0       -6.024957   -0.209967    1.188513
    111          1           0       -5.286667   -1.479763    1.987644
    112          1           0       -6.854547   -1.747392    3.100051
    113          1           0       -7.398020   -2.769687    1.749131
    114          1           0       -8.298879    0.150060    1.952350
    115          1           0       -9.790655   -0.139417    3.697453
    116          1           0       -8.613126   -1.378423    4.220969
    117          1           0      -10.091339   -1.788766    3.239728
    118          1           0       -9.862228   -2.251127    0.856061
    119          1           0       -8.732310   -1.271942    0.040979
    120          1           0      -10.173733    0.271939   -0.514115
    121          1           0      -10.208811    0.665067    1.146835
    122          1           0      -11.762678   -1.192807    1.573871
    123          1           0      -12.349955   -1.152831   -0.152444
    124          1           0      -12.311358    1.498288    0.638246
    125          1           0      -13.234519   -0.106542    3.053466
    126          1           0      -13.385826    1.578610    2.915467
    127          1           0      -11.763874    0.904520    2.971181
    128          1           0      -14.958315    0.227281    1.328894
    129          1           0      -14.334322   -0.320532   -0.188563
    130          1           0      -13.959327    2.628978    0.234278
    131          1           0      -15.593752    2.069299    0.405728
    132          1           0      -15.226212    0.999763   -1.920449
    133          1           0      -13.703378    1.945372   -2.022391
    134          1           0      -15.241810    3.806803   -1.292830
    135          1           0      -17.282939    1.775176   -1.462020
    136          1           0      -17.732470    2.845427   -2.761328
    137          1           0      -17.408254    3.477393   -1.107424
    138          1           0      -14.655003    2.867034   -3.956237
    139          1           0      -14.707766    4.523464   -3.389963
    140          1           0      -16.251038    3.673020   -3.889620
 ---------------------------------------------------------------------

 SCF Done:  E(RB-LYP) =  -3007.34116696     A.U. after   21 cycles

 Excitation energies and oscillator strengths:

 Excited State   1:      Singlet-A      1.8146 eV  683.27 nm  f=0.3064  <S**2>=0.000
     245 -> 248       -0.20170
     246 -> 247        0.68496
     246 <- 247       -0.14904
 This state for optimization and/or second-order correction.
 Total Energy, E(TD-HF/TD-DFT) =  -3007.27448254
 Copying the excited state density for this state as the 1-particle RhoCI density.

 Excited State   2:      Singlet-A      1.8352 eV  675.59 nm  f=0.0383  <S**2>=0.000
     244 -> 247        0.51995
     245 -> 247       -0.45216
     246 -> 248       -0.10947

 Excited State   3:      Singlet-A      1.9133 eV  648.03 nm  f=0.0098  <S**2>=0.000
     243 -> 247        0.62138
     244 -> 247        0.27408
     245 -> 247        0.17992

 Excited State   4:      Singlet-A      1.9485 eV  636.30 nm  f=0.0609  <S**2>=0.000
     243 -> 247       -0.32001
     244 -> 247        0.38937
     245 -> 247        0.45925
     246 -> 248        0.16446

 Excited State   5:      Singlet-A      2.1951 eV  564.83 nm  f=0.0000  <S**2>=0.000
     242 -> 247        0.70709

 The electronic state is 1-A.
 Alpha  occ. eigenvalues --  -46.27512 -18.84036 -18.81641 -18.78491 -18.76098
 Alpha  occ. eigenvalues --  -18.75570 -18.75481 -14.03827 -14.03100 -14.01068
 Alpha  occ. eigenvalues --  -14.00210 -10.05587 -10.03892  -9.99945  -9.99264
 Alpha  occ. eigenvalues --   -9.99232  -9.97184  -9.97001  -9.96613  -9.96534
 Alpha  occ. eigenvalues --   -9.96524  -9.96078  -9.95864  -9.95113  -9.95057
 Alpha  occ. eigenvalues --   -9.94485  -9.94375  -9.94332  -9.94181  -9.94096
 Alpha  occ. eigenvalues --   -9.94016  -9.93785  -9.93552  -9.93361  -9.93346
 Alpha  occ. eigenvalues --   -9.93281  -9.93065  -9.93063  -9.92988  -9.92868
 Alpha  occ. eigenvalues --   -9.92667  -9.92649  -9.92549  -9.92410  -9.92356
 Alpha  occ. eigenvalues --   -9.92346  -9.92250  -9.92229  -9.92082  -9.91926
 Alpha  occ. eigenvalues --   -9.91536  -9.91533  -9.91509  -9.91406  -9.91302
 Alpha  occ. eigenvalues --   -9.91282  -9.91006  -9.90999  -9.90976  -9.90952
 Alpha  occ. eigenvalues --   -9.90859  -9.90803  -9.90749  -9.90711  -9.90519
 Alpha  occ. eigenvalues --   -9.90376  -2.92050  -1.72492  -1.71922  -1.71764
 Alpha  occ. eigenvalues --   -0.98781  -0.96679  -0.92017  -0.91522  -0.91044
 Alpha  occ. eigenvalues --   -0.88086  -0.87776  -0.86535  -0.85771  -0.84868
 Alpha  occ. eigenvalues --   -0.75110  -0.74798  -0.73964  -0.73585  -0.72859
 Alpha  occ. eigenvalues --   -0.72369  -0.71703  -0.70668  -0.70255  -0.69507
 Alpha  occ. eigenvalues --   -0.69395  -0.69307  -0.68383  -0.66941  -0.66789
 Alpha  occ. eigenvalues --   -0.66377  -0.65616  -0.65165  -0.64641  -0.64403
 Alpha  occ. eigenvalues --   -0.63895  -0.62285  -0.62173  -0.61866  -0.61349
 Alpha  occ. eigenvalues --   -0.60041  -0.59847  -0.59823  -0.59630  -0.59592
 Alpha  occ. eigenvalues --   -0.58048  -0.57432  -0.56308  -0.55402  -0.54981
 Alpha  occ. eigenvalues --   -0.54710  -0.54015  -0.52743  -0.52352  -0.51754
 Alpha  occ. eigenvalues --   -0.51509  -0.51012  -0.50505  -0.50403  -0.50132
 Alpha  occ. eigenvalues --   -0.49812  -0.49374  -0.48873  -0.47815  -0.46881
 Alpha  occ. eigenvalues --   -0.46798  -0.45917  -0.45482  -0.44947  -0.44362
 Alpha  occ. eigenvalues --   -0.43787  -0.43418  -0.43018  -0.42721  -0.42647
 Alpha  occ. eigenvalues --   -0.42186  -0.41907  -0.41556  -0.41483  -0.41135
 Alpha  occ. eigenvalues --   -0.41032  -0.40765  -0.40629  -0.40602  -0.40144
 Alpha  occ. eigenvalues --   -0.39810  -0.39767  -0.39708  -0.39503  -0.39224
 Alpha  occ. eigenvalues --   -0.39107  -0.38866  -0.38746  -0.38592  -0.38398
 Alpha  occ. eigenvalues --   -0.38079  -0.37963  -0.37906  -0.37430  -0.37109
 Alpha  occ. eigenvalues --   -0.37001  -0.36804  -0.36558  -0.36520  -0.36456
 Alpha  occ. eigenvalues --   -0.36221  -0.36008  -0.35945  -0.35683  -0.35556
 Alpha  occ. eigenvalues --   -0.35290  -0.35175  -0.35059  -0.34847  -0.34728
 Alpha  occ. eigenvalues --   -0.34419  -0.34225  -0.34173  -0.34097  -0.34002
 Alpha  occ. eigenvalues --   -0.33825  -0.33520  -0.33470  -0.33372  -0.33251
 Alpha  occ. eigenvalues --   -0.32926  -0.32816  -0.32766  -0.32510  -0.32147
 Alpha  occ. eigenvalues --   -0.32107  -0.31933  -0.31853  -0.31719  -0.31547
 Alpha  occ. eigenvalues --   -0.31289  -0.31131  -0.30889  -0.30815  -0.30803
 Alpha  occ. eigenvalues --   -0.30405  -0.30387  -0.30363  -0.30108  -0.29933
 Alpha  occ. eigenvalues --   -0.29846  -0.29675  -0.29565  -0.29188  -0.28876
 Alpha  occ. eigenvalues --   -0.28808  -0.28761  -0.28642  -0.28336  -0.28077
 Alpha  occ. eigenvalues --   -0.27938  -0.27787  -0.27500  -0.26909  -0.26734
 Alpha  occ. eigenvalues --   -0.26524  -0.26329  -0.26098  -0.25722  -0.25707
 Alpha  occ. eigenvalues --   -0.25587  -0.25105  -0.24068  -0.23834  -0.23633
 Alpha  occ. eigenvalues --   -0.23501  -0.23269  -0.21872  -0.21227  -0.20710
 Alpha  occ. eigenvalues --   -0.20078  -0.19738  -0.18656  -0.18453  -0.16696
 Alpha  occ. eigenvalues --   -0.15957
 Alpha virt. eigenvalues --   -0.11672  -0.06547  -0.06056  -0.04556  -0.04227
 Alpha virt. eigenvalues --   -0.03546  -0.02808  -0.02408  -0.00847  -0.00105
 Alpha virt. eigenvalues --    0.00551   0.01346   0.02364   0.02739   0.02904

 Mulliken charges:
               1
     1  Mg   0.693698
     2  C   -0.048055
     3  C   -0.049743
     4  C   -0.012861
     5  C   -0.053393
     6  N   -0.231322
     7  C   -0.058411
     8  C    0.014951
     9  C    0.004368
    10  C    0.093257
    11  C    0.111661
    12  C    0.085080
    13  C    0.142159
    14  C    0.100205
    15  O   -0.199375
    16  O   -0.267168
    17  N   -0.307767
    18  C    0.088182
    19  C   -0.134795
    20  C    0.071356
    21  C    0.059402
    22  C    0.136173
    23  C   -0.075054
    24  O   -0.148400
    25  C    0.115238
    26  N   -0.173228
    27  C    0.029616
    28  C    0.018483
    29  C    0.038528
    30  C   -0.032736
    31  C    0.085984
    32  C    0.096976
    33  C    0.039976
    34  N   -0.215596
    35  C    0.080993
    36  C   -0.157758
    37  C    0.111714
    38  C    0.088531
    39  C    0.170040
    40  C   -0.055784
    41  O   -0.117129
    42  C    0.045310
    43  C    0.148663
    44  O   -0.209118
    45  O   -0.271401
    46  C    0.206805
    47  C    0.313980
    48  C   -0.111229
    49  C   -0.264594
    50  C    0.152769
    51  C    0.188799
    52  C    0.094128
    53  C    0.136907
    54  C   -0.069788
    55  C    0.110947
    56  C    0.099943
    57  C    0.059953
    58  C    0.145380
    59  C   -0.065647
    60  C    0.103234
    61  C    0.145720
    62  C    0.022613
    63  C    0.138825
    64  C   -0.135388
    65  C    0.097274
    66  C    0.137364
    67  H   -0.063182
    68  H   -0.048187
    69  H   -0.066309
    70  H   -0.016875
    71  H   -0.013639
    72  H    0.009557
    73  H   -0.013102
    74  H    0.007725
    75  H   -0.020770
    76  H   -0.009520
    77  H   -0.006998
    78  H   -0.009697
    79  H    0.018457
    80  H   -0.002870
    81  H   -0.018909
    82  H   -0.014972
    83  H   -0.009230
    84  H    0.014633
    85  H   -0.020535
    86  H   -0.023901
    87  H    0.005906
    88  H    0.005490
    89  H   -0.008017
    90  H   -0.013270
    91  H   -0.021165
    92  H   -0.006295
    93  H   -0.000894
    94  H   -0.005481
    95  H   -0.022266
    96  H    0.007344
    97  H    0.008790
    98  H   -0.018935
    99  H    0.007224
   100  H    0.030831
   101  H    0.017268
   102  H    0.002645
   103  H    0.030409
   104  H   -0.046969
   105  H   -0.002525
   106  H   -0.029201
   107  H    0.020615
   108  H   -0.028781
   109  H   -0.021590
   110  H   -0.046284
   111  H   -0.041060
   112  H   -0.044592
   113  H   -0.041442
   114  H   -0.044598
   115  H   -0.012555
   116  H   -0.015132
   117  H   -0.012373
   118  H   -0.031767
   119  H   -0.054452
   120  H   -0.031497
   121  H   -0.042731
   122  H   -0.041179
   123  H   -0.026056
   124  H   -0.025339
   125  H   -0.019217
   126  H   -0.031808
   127  H   -0.020214
   128  H   -0.041674
   129  H   -0.046143
   130  H   -0.029253
   131  H   -0.041535
   132  H   -0.044076
   133  H   -0.037974
   134  H   -0.040685
   135  H   -0.022231
   136  H   -0.005181
   137  H   -0.010093
   138  H   -0.026086
   139  H   -0.013080
   140  H   -0.021952
 Sum of Mulliken charges =  -0.00000

 Dipole moment (field-independent basis, Debye):
    X=             -5.3488    Y=              1.8948    Z=              1.9493  Tot=              6.0000
 Quadrupole moment (field-independent basis, Debye-Ang):
   XX=           -392.2704   YY=           -437.9447   ZZ=           -406.8460
   XY=             33.5111   XZ=             15.7861   YZ=             -6.3881

 Normal termination of Gaussian 16 at Thu May  5 05:01:32 2022.
