 Gaussian 16, Revision A.03,
 Gaussian 16:  ES64L-G16RevA.03 25-Dec-2016

 -----------------------------------
 #p cam-b3lyp/Def2SVP td=(nstates=5)
 -----------------------------------

 -------------------------------------------------------
 step_601_chromophore_21 TDDFT with cam-b3lyp functional
 -------------------------------------------------------
 Symbolic Z-matrix:
 Charge =  0 Multiplicity = 1

                         Standard orientation:
 ---------------------------------------------------------------------
 Center     Atomic      Atomic             Coordinates (Angstroms)
 Number     Number       Type             X           Y           Z
 ---------------------------------------------------------------------
      1         12           0        5.328600    1.191537   -0.050637
      2          6           0        5.059476   -2.378124   -0.111942
      3          6           0        2.004336    1.388817   -0.773421
      4          6           0        5.776199    4.378313    0.315922
      5          6           0        8.841743    0.714150   -0.003666
      6          7           0        3.770114   -0.284066   -0.295959
      7          6           0        3.771757   -1.674569   -0.179533
      8          6           0        2.384646   -2.289577    0.000881
      9          6           0        1.520711   -1.102944   -0.605099
     10          6           0        2.494602    0.069908   -0.634490
     11          6           0        1.045981   -1.443400   -2.121703
     12          6           0        2.198871   -2.537702    1.463625
     13          6           0        1.060177   -3.533960    1.814704
     14          6           0        0.015496   -3.898165    0.691252
     15          8           0        0.212431   -4.753887   -0.168984
     16          8           0       -1.163799   -3.263412    0.971639
     17          7           0        3.968054    2.753718   -0.205643
     18          6           0        2.665642    2.651545   -0.573635
     19          6           0        2.138779    4.026030   -0.549603
     20          6           0        3.193277    4.921589   -0.217363
     21          6           0        4.347071    4.071160   -0.002155
     22          6           0        0.697560    4.353231   -1.059439
     23          6           0        3.181865    6.441098   -0.101241
     24          8           0        4.142639    7.114633    0.211553
     25          6           0        1.932143    7.232289   -0.437977
     26          7           0        7.054770    2.350237    0.313715
     27          6           0        6.983126    3.647714    0.436704
     28          6           0        8.342300    4.342169    0.636795
     29          6           0        9.271498    3.095768    0.797971
     30          6           0        8.350206    1.982060    0.394412
     31          6           0        8.732701    5.229665   -0.641087
     32          6           0        9.793805    2.826885    2.216161
     33          6           0       11.372171    2.436598    2.342930
     34          7           0        6.781390   -0.418804   -0.325064
     35          6           0        8.109957   -0.500509   -0.337616
     36          6           0        8.588714   -1.839665   -0.478232
     37          6           0        7.407306   -2.575839   -0.321836
     38          6           0        6.359338   -1.728998   -0.205392
     39          6           0       10.014599   -2.244724   -0.673562
     40          6           0        6.964039   -3.917979   -0.129032
     41          8           0        7.548874   -4.979375   -0.111541
     42          6           0        5.344801   -3.891700   -0.140635
     43          6           0        4.872289   -4.505086   -1.472202
     44          8           0        5.099168   -4.148404   -2.654660
     45          8           0        3.954642   -5.487964   -1.173299
     46          6           0        3.200901   -6.033377   -2.287442
     47          6           0       -2.206475   -3.731076   -0.006823
     48          6           0       -3.450908   -2.793995    0.089911
     49          6           0       -4.805103   -3.064810    0.067648
     50          6           0       -5.139098   -4.458422   -0.177698
     51          6           0       -5.802789   -1.949654   -0.016158
     52          6           0       -6.122716   -1.287376    1.315359
     53          6           0       -7.276808   -1.743273    2.095406
     54          6           0       -8.570716   -0.899847    2.056516
     55          6           0       -9.292228   -1.070302    3.426331
     56          6           0       -9.469332   -1.234000    0.842665
     57          6           0      -10.424318   -0.151987    0.458312
     58          6           0      -11.952132   -0.585107    0.688529
     59          6           0      -12.756266    0.595980    1.057705
     60          6           0      -12.766120    0.752012    2.571375
     61          6           0      -14.234291    0.472906    0.551655
     62          6           0      -14.637082    1.826219   -0.057287
     63          6           0      -14.692612    1.882723   -1.569544
     64          6           0      -15.555353    3.043752   -2.005157
     65          6           0      -17.101740    2.768076   -1.875419
     66          6           0      -15.270612    3.590216   -3.420640
     67          1           0        0.928700    1.540016   -0.886336
     68          1           0        5.967211    5.453412    0.316498
     69          1           0        9.917234    0.626133    0.163073
     70          1           0        2.425892   -3.288853   -0.432829
     71          1           0        0.699044   -1.000476    0.104322
     72          1           0        1.358841   -0.703957   -2.858714
     73          1           0       -0.043205   -1.485529   -2.121309
     74          1           0        1.318293   -2.462335   -2.396163
     75          1           0        1.808913   -1.659023    1.978655
     76          1           0        3.129711   -2.881836    1.912801
     77          1           0        0.720492   -3.291577    2.821661
     78          1           0        1.596970   -4.471567    1.960869
     79          1           0        0.733288    4.867526   -2.020565
     80          1           0        0.124212    5.018013   -0.413467
     81          1           0        0.130854    3.430385   -1.177322
     82          1           0        1.488436    6.797495   -1.334452
     83          1           0        2.203476    8.264151   -0.659356
     84          1           0        1.172879    7.276106    0.342689
     85          1           0        8.562876    4.969500    1.500477
     86          1           0       10.083038    3.121239    0.070270
     87          1           0        8.393116    6.230523   -0.377043
     88          1           0        8.254672    4.915404   -1.569322
     89          1           0        9.798633    5.338626   -0.842969
     90          1           0        9.220893    1.995057    2.627768
     91          1           0        9.620035    3.615728    2.948274
     92          1           0       11.764680    2.364606    1.328412
     93          1           0       11.585397    1.514732    2.883298
     94          1           0       11.940814    3.193112    2.882508
     95          1           0       10.567325   -1.318194   -0.828730
     96          1           0       10.135998   -2.830107   -1.585082
     97          1           0       10.496614   -2.814557    0.120462
     98          1           0        4.819390   -4.374139    0.683869
     99          1           0        3.692620   -6.992486   -2.448981
    100          1           0        3.176437   -5.365953   -3.148698
    101          1           0        2.196731   -6.339432   -1.994380
    102          1           0       -2.539436   -4.700381    0.362902
    103          1           0       -1.875927   -3.744221   -1.045568
    104          1           0       -3.266484   -1.745127    0.322863
    105          1           0       -4.496395   -4.914783   -0.929484
    106          1           0       -6.075570   -4.475902   -0.734342
    107          1           0       -5.120670   -4.989821    0.773441
    108          1           0       -6.605884   -2.461726   -0.546059
    109          1           0       -5.195511   -1.325078   -0.671195
    110          1           0       -6.024957   -0.209967    1.188513
    111          1           0       -5.286667   -1.479763    1.987644
    112          1           0       -6.854547   -1.747392    3.100051
    113          1           0       -7.398020   -2.769687    1.749131
    114          1           0       -8.298879    0.150060    1.952350
    115          1           0       -9.790655   -0.139417    3.697453
    116          1           0       -8.613126   -1.378423    4.220969
    117          1           0      -10.091339   -1.788766    3.239728
    118          1           0       -9.862228   -2.251127    0.856061
    119          1           0       -8.732310   -1.271942    0.040979
    120          1           0      -10.173733    0.271939   -0.514115
    121          1           0      -10.208811    0.665067    1.146835
    122          1           0      -11.762678   -1.192807    1.573871
    123          1           0      -12.349955   -1.152831   -0.152444
    124          1           0      -12.311358    1.498288    0.638246
    125          1           0      -13.234519   -0.106542    3.053466
    126          1           0      -13.385826    1.578610    2.915467
    127          1           0      -11.763874    0.904520    2.971181
    128          1           0      -14.958315    0.227281    1.328894
    129          1           0      -14.334322   -0.320532   -0.188563
    130          1           0      -13.959327    2.628978    0.234278
    131          1           0      -15.593752    2.069299    0.405728
    132          1           0      -15.226212    0.999763   -1.920449
    133          1           0      -13.703378    1.945372   -2.022391
    134          1           0      -15.241810    3.806803   -1.292830
    135          1           0      -17.282939    1.775176   -1.462020
    136          1           0      -17.732470    2.845427   -2.761328
    137          1           0      -17.408254    3.477393   -1.107424
    138          1           0      -14.655003    2.867034   -3.956237
    139          1           0      -14.707766    4.523464   -3.389963
    140          1           0      -16.251038    3.673020   -3.889620
 ---------------------------------------------------------------------

 SCF Done:  E(RCAM-B3LYP) =  -3007.12852504     A.U. after   17 cycles

 Excitation energies and oscillator strengths:

 Excited State   1:      Singlet-A      1.6957 eV  731.16 nm  f=0.3892  <S**2>=0.000
     245 -> 248        0.18625
     246 -> 247        0.68469
     245 <- 248        0.10983
 This state for optimization and/or second-order correction.
 Total Energy, E(TD-HF/TD-DFT) =  -3007.06620883
 Copying the excited state density for this state as the 1-particle RhoCI density.

 Excited State   2:      Singlet-A      2.0779 eV  596.67 nm  f=0.1722  <S**2>=0.000
     245 -> 247        0.66546
     246 -> 248       -0.23008

 Excited State   3:      Singlet-A      3.2293 eV  383.93 nm  f=0.0029  <S**2>=0.000
     242 -> 247       -0.14189
     244 -> 247        0.67977

 Excited State   4:      Singlet-A      3.4550 eV  358.86 nm  f=0.0029  <S**2>=0.000
     240 -> 247        0.15469
     241 -> 247        0.32612
     241 -> 249       -0.21711
     241 -> 250        0.17459
     242 -> 247        0.49203

 Excited State   5:      Singlet-A      3.4900 eV  355.25 nm  f=0.0215  <S**2>=0.000
     240 -> 247       -0.16398
     241 -> 247        0.48229
     242 -> 247       -0.33721
     246 -> 248       -0.28665

 The electronic state is 1-A.
 Alpha  occ. eigenvalues --  -46.89039 -19.26933 -19.24503 -19.21454 -19.19140
 Alpha  occ. eigenvalues --  -19.18955 -19.18586 -14.42782 -14.41956 -14.39595
 Alpha  occ. eigenvalues --  -14.38485 -10.40956 -10.39426 -10.35268 -10.34531
 Alpha  occ. eigenvalues --  -10.33429 -10.31754 -10.31600 -10.31147 -10.31120
 Alpha  occ. eigenvalues --  -10.30392 -10.30357 -10.30350 -10.29316 -10.29157
 Alpha  occ. eigenvalues --  -10.29151 -10.28748 -10.28554 -10.28379 -10.28316
 Alpha  occ. eigenvalues --  -10.28035 -10.27764 -10.27551 -10.27486 -10.27442
 Alpha  occ. eigenvalues --  -10.27392 -10.27272 -10.27200 -10.27063 -10.26779
 Alpha  occ. eigenvalues --  -10.26767 -10.26751 -10.26440 -10.26152 -10.26060
 Alpha  occ. eigenvalues --  -10.26006 -10.25999 -10.25976 -10.25886 -10.25722
 Alpha  occ. eigenvalues --  -10.25673 -10.25245 -10.25151 -10.25072 -10.24979
 Alpha  occ. eigenvalues --  -10.24944 -10.24684 -10.24647 -10.24620 -10.24563
 Alpha  occ. eigenvalues --  -10.24488 -10.24472 -10.24399 -10.24331 -10.24283
 Alpha  occ. eigenvalues --  -10.24115  -3.17480  -1.92401  -1.91935  -1.91780
 Alpha  occ. eigenvalues --   -1.17216  -1.15093  -1.10610  -1.09882  -1.08883
 Alpha  occ. eigenvalues --   -1.05858  -1.05631  -1.04111  -1.03436  -1.02494
 Alpha  occ. eigenvalues --   -0.92098  -0.91870  -0.90848  -0.90392  -0.89633
 Alpha  occ. eigenvalues --   -0.89006  -0.88351  -0.87291  -0.86829  -0.86290
 Alpha  occ. eigenvalues --   -0.85773  -0.85646  -0.84677  -0.83047  -0.82891
 Alpha  occ. eigenvalues --   -0.82465  -0.81503  -0.81152  -0.80640  -0.80402
 Alpha  occ. eigenvalues --   -0.79620  -0.78061  -0.77767  -0.77354  -0.76780
 Alpha  occ. eigenvalues --   -0.75397  -0.75176  -0.75145  -0.74907  -0.74888
 Alpha  occ. eigenvalues --   -0.73074  -0.72412  -0.71190  -0.70174  -0.69584
 Alpha  occ. eigenvalues --   -0.69362  -0.68630  -0.67278  -0.66744  -0.65866
 Alpha  occ. eigenvalues --   -0.65712  -0.65228  -0.64591  -0.64413  -0.63996
 Alpha  occ. eigenvalues --   -0.63744  -0.63328  -0.62812  -0.61495  -0.60581
 Alpha  occ. eigenvalues --   -0.60479  -0.59459  -0.58877  -0.58399  -0.57691
 Alpha  occ. eigenvalues --   -0.57226  -0.56860  -0.56350  -0.55773  -0.55697
 Alpha  occ. eigenvalues --   -0.55206  -0.55034  -0.54678  -0.54382  -0.54074
 Alpha  occ. eigenvalues --   -0.53834  -0.53639  -0.53592  -0.53253  -0.52760
 Alpha  occ. eigenvalues --   -0.52400  -0.52348  -0.52288  -0.52227  -0.52046
 Alpha  occ. eigenvalues --   -0.51871  -0.51435  -0.51098  -0.50981  -0.50854
 Alpha  occ. eigenvalues --   -0.50708  -0.50436  -0.50218  -0.49913  -0.49551
 Alpha  occ. eigenvalues --   -0.49324  -0.49044  -0.48997  -0.48842  -0.48711
 Alpha  occ. eigenvalues --   -0.48522  -0.48480  -0.48287  -0.48084  -0.47576
 Alpha  occ. eigenvalues --   -0.47474  -0.47220  -0.47099  -0.46923  -0.46788
 Alpha  occ. eigenvalues --   -0.46210  -0.46050  -0.45957  -0.45847  -0.45812
 Alpha  occ. eigenvalues --   -0.45531  -0.45479  -0.45184  -0.45040  -0.44939
 Alpha  occ. eigenvalues --   -0.44766  -0.44538  -0.44390  -0.44187  -0.43810
 Alpha  occ. eigenvalues --   -0.43785  -0.43674  -0.43451  -0.43391  -0.42989
 Alpha  occ. eigenvalues --   -0.42807  -0.42721  -0.42379  -0.42140  -0.42120
 Alpha  occ. eigenvalues --   -0.42012  -0.41765  -0.41615  -0.41394  -0.41146
 Alpha  occ. eigenvalues --   -0.41096  -0.40938  -0.40832  -0.40803  -0.40229
 Alpha  occ. eigenvalues --   -0.39997  -0.39760  -0.39631  -0.39290  -0.39136
 Alpha  occ. eigenvalues --   -0.38857  -0.38800  -0.38368  -0.38156  -0.37686
 Alpha  occ. eigenvalues --   -0.37462  -0.37249  -0.37056  -0.36422  -0.36231
 Alpha  occ. eigenvalues --   -0.36211  -0.35685  -0.35281  -0.35152  -0.34921
 Alpha  occ. eigenvalues --   -0.33994  -0.33695  -0.32861  -0.31108  -0.30906
 Alpha  occ. eigenvalues --   -0.30394  -0.30034  -0.29355  -0.29216  -0.23309
 Alpha  occ. eigenvalues --   -0.21398
 Alpha virt. eigenvalues --   -0.08999  -0.01273   0.00513   0.02429   0.03109
 Alpha virt. eigenvalues --    0.03535   0.03880   0.04956   0.05382   0.06162
 Alpha virt. eigenvalues --    0.07808   0.08312   0.08899   0.09122   0.09204

 Mulliken charges:
               1
     1  Mg   0.826790
     2  C   -0.069279
     3  C   -0.059848
     4  C   -0.029752
     5  C   -0.054109
     6  N   -0.299507
     7  C   -0.018883
     8  C   -0.039881
     9  C   -0.052967
    10  C    0.104548
    11  C    0.062041
    12  C    0.039718
    13  C    0.082869
    14  C    0.167199
    15  O   -0.240677
    16  O   -0.328722
    17  N   -0.395587
    18  C    0.097963
    19  C   -0.138401
    20  C   -0.005497
    21  C    0.087919
    22  C    0.083037
    23  C    0.006303
    24  O   -0.187834
    25  C    0.037442
    26  N   -0.247697
    27  C    0.043349
    28  C   -0.032904
    29  C   -0.021291
    30  C   -0.016008
    31  C    0.032432
    32  C    0.039705
    33  C   -0.017583
    34  N   -0.300205
    35  C    0.083969
    36  C   -0.155986
    37  C    0.033715
    38  C    0.117416
    39  C    0.123400
    40  C    0.036171
    41  O   -0.156691
    42  C   -0.022362
    43  C    0.237984
    44  O   -0.247814
    45  O   -0.335017
    46  C    0.166103
    47  C    0.281574
    48  C   -0.130547
    49  C   -0.267539
    50  C    0.077034
    51  C    0.119108
    52  C    0.034744
    53  C    0.081003
    54  C   -0.123712
    55  C    0.053129
    56  C    0.039630
    57  C    0.013238
    58  C    0.088477
    59  C   -0.125217
    60  C    0.050213
    61  C    0.088321
    62  C   -0.031990
    63  C    0.083745
    64  C   -0.192103
    65  C    0.034454
    66  C    0.078846
    67  H   -0.029595
    68  H   -0.010348
    69  H   -0.033472
    70  H    0.016657
    71  H    0.020428
    72  H    0.034973
    73  H    0.008719
    74  H    0.030533
    75  H    0.008838
    76  H    0.020746
    77  H    0.027651
    78  H    0.022238
    79  H    0.043371
    80  H    0.023287
    81  H    0.008552
    82  H    0.011337
    83  H    0.026011
    84  H    0.042664
    85  H    0.015320
    86  H    0.011653
    87  H    0.028351
    88  H    0.030363
    89  H    0.016708
    90  H    0.017494
    91  H    0.007507
    92  H    0.013426
    93  H    0.022589
    94  H    0.017802
    95  H    0.001267
    96  H    0.033742
    97  H    0.034328
    98  H    0.024901
    99  H    0.030133
   100  H    0.055759
   101  H    0.039737
   102  H    0.031165
   103  H    0.057194
   104  H   -0.015050
   105  H    0.023210
   106  H   -0.002499
   107  H    0.045732
   108  H   -0.001008
   109  H    0.012475
   110  H   -0.015146
   111  H   -0.008919
   112  H   -0.012506
   113  H   -0.014361
   114  H   -0.012328
   115  H    0.008916
   116  H    0.010963
   117  H    0.009125
   118  H   -0.002036
   119  H   -0.024067
   120  H   -0.002393
   121  H   -0.015287
   122  H   -0.013847
   123  H    0.004099
   124  H    0.004637
   125  H    0.004947
   126  H   -0.005750
   127  H    0.000349
   128  H   -0.010667
   129  H   -0.015774
   130  H   -0.002508
   131  H   -0.011690
   132  H   -0.015999
   133  H   -0.008731
   134  H   -0.008843
   135  H    0.001283
   136  H    0.018922
   137  H    0.013519
   138  H   -0.001750
   139  H    0.010901
   140  H    0.002076
 Sum of Mulliken charges =  -0.00000

 Dipole moment (field-independent basis, Debye):
    X=             -5.8410    Y=              2.5235    Z=              2.0242  Tot=              6.6770
 Quadrupole moment (field-independent basis, Debye-Ang):
   XX=           -394.6101   YY=           -434.4589   ZZ=           -406.9132
   XY=             35.7296   XZ=             17.1746   YZ=             -7.2479

 Normal termination of Gaussian 16 at Thu May  5 04:07:05 2022.
