 Gaussian 16, Revision A.03,
 Gaussian 16:  ES64L-G16RevA.03 25-Dec-2016

 ---------------------------------
 #p PBE1PBE/Def2SVP td=(nstates=5)
 ---------------------------------

 -----------------------------------------------------
 step_601_chromophore_21 TDDFT with PBE1PBE functional
 -----------------------------------------------------
 Symbolic Z-matrix:
 Charge =  0 Multiplicity = 1

                         Standard orientation:
 ---------------------------------------------------------------------
 Center     Atomic      Atomic             Coordinates (Angstroms)
 Number     Number       Type             X           Y           Z
 ---------------------------------------------------------------------
      1         12           0        5.328600    1.191537   -0.050637
      2          6           0        5.059476   -2.378124   -0.111942
      3          6           0        2.004336    1.388817   -0.773421
      4          6           0        5.776199    4.378313    0.315922
      5          6           0        8.841743    0.714150   -0.003666
      6          7           0        3.770114   -0.284066   -0.295959
      7          6           0        3.771757   -1.674569   -0.179533
      8          6           0        2.384646   -2.289577    0.000881
      9          6           0        1.520711   -1.102944   -0.605099
     10          6           0        2.494602    0.069908   -0.634490
     11          6           0        1.045981   -1.443400   -2.121703
     12          6           0        2.198871   -2.537702    1.463625
     13          6           0        1.060177   -3.533960    1.814704
     14          6           0        0.015496   -3.898165    0.691252
     15          8           0        0.212431   -4.753887   -0.168984
     16          8           0       -1.163799   -3.263412    0.971639
     17          7           0        3.968054    2.753718   -0.205643
     18          6           0        2.665642    2.651545   -0.573635
     19          6           0        2.138779    4.026030   -0.549603
     20          6           0        3.193277    4.921589   -0.217363
     21          6           0        4.347071    4.071160   -0.002155
     22          6           0        0.697560    4.353231   -1.059439
     23          6           0        3.181865    6.441098   -0.101241
     24          8           0        4.142639    7.114633    0.211553
     25          6           0        1.932143    7.232289   -0.437977
     26          7           0        7.054770    2.350237    0.313715
     27          6           0        6.983126    3.647714    0.436704
     28          6           0        8.342300    4.342169    0.636795
     29          6           0        9.271498    3.095768    0.797971
     30          6           0        8.350206    1.982060    0.394412
     31          6           0        8.732701    5.229665   -0.641087
     32          6           0        9.793805    2.826885    2.216161
     33          6           0       11.372171    2.436598    2.342930
     34          7           0        6.781390   -0.418804   -0.325064
     35          6           0        8.109957   -0.500509   -0.337616
     36          6           0        8.588714   -1.839665   -0.478232
     37          6           0        7.407306   -2.575839   -0.321836
     38          6           0        6.359338   -1.728998   -0.205392
     39          6           0       10.014599   -2.244724   -0.673562
     40          6           0        6.964039   -3.917979   -0.129032
     41          8           0        7.548874   -4.979375   -0.111541
     42          6           0        5.344801   -3.891700   -0.140635
     43          6           0        4.872289   -4.505086   -1.472202
     44          8           0        5.099168   -4.148404   -2.654660
     45          8           0        3.954642   -5.487964   -1.173299
     46          6           0        3.200901   -6.033377   -2.287442
     47          6           0       -2.206475   -3.731076   -0.006823
     48          6           0       -3.450908   -2.793995    0.089911
     49          6           0       -4.805103   -3.064810    0.067648
     50          6           0       -5.139098   -4.458422   -0.177698
     51          6           0       -5.802789   -1.949654   -0.016158
     52          6           0       -6.122716   -1.287376    1.315359
     53          6           0       -7.276808   -1.743273    2.095406
     54          6           0       -8.570716   -0.899847    2.056516
     55          6           0       -9.292228   -1.070302    3.426331
     56          6           0       -9.469332   -1.234000    0.842665
     57          6           0      -10.424318   -0.151987    0.458312
     58          6           0      -11.952132   -0.585107    0.688529
     59          6           0      -12.756266    0.595980    1.057705
     60          6           0      -12.766120    0.752012    2.571375
     61          6           0      -14.234291    0.472906    0.551655
     62          6           0      -14.637082    1.826219   -0.057287
     63          6           0      -14.692612    1.882723   -1.569544
     64          6           0      -15.555353    3.043752   -2.005157
     65          6           0      -17.101740    2.768076   -1.875419
     66          6           0      -15.270612    3.590216   -3.420640
     67          1           0        0.928700    1.540016   -0.886336
     68          1           0        5.967211    5.453412    0.316498
     69          1           0        9.917234    0.626133    0.163073
     70          1           0        2.425892   -3.288853   -0.432829
     71          1           0        0.699044   -1.000476    0.104322
     72          1           0        1.358841   -0.703957   -2.858714
     73          1           0       -0.043205   -1.485529   -2.121309
     74          1           0        1.318293   -2.462335   -2.396163
     75          1           0        1.808913   -1.659023    1.978655
     76          1           0        3.129711   -2.881836    1.912801
     77          1           0        0.720492   -3.291577    2.821661
     78          1           0        1.596970   -4.471567    1.960869
     79          1           0        0.733288    4.867526   -2.020565
     80          1           0        0.124212    5.018013   -0.413467
     81          1           0        0.130854    3.430385   -1.177322
     82          1           0        1.488436    6.797495   -1.334452
     83          1           0        2.203476    8.264151   -0.659356
     84          1           0        1.172879    7.276106    0.342689
     85          1           0        8.562876    4.969500    1.500477
     86          1           0       10.083038    3.121239    0.070270
     87          1           0        8.393116    6.230523   -0.377043
     88          1           0        8.254672    4.915404   -1.569322
     89          1           0        9.798633    5.338626   -0.842969
     90          1           0        9.220893    1.995057    2.627768
     91          1           0        9.620035    3.615728    2.948274
     92          1           0       11.764680    2.364606    1.328412
     93          1           0       11.585397    1.514732    2.883298
     94          1           0       11.940814    3.193112    2.882508
     95          1           0       10.567325   -1.318194   -0.828730
     96          1           0       10.135998   -2.830107   -1.585082
     97          1           0       10.496614   -2.814557    0.120462
     98          1           0        4.819390   -4.374139    0.683869
     99          1           0        3.692620   -6.992486   -2.448981
    100          1           0        3.176437   -5.365953   -3.148698
    101          1           0        2.196731   -6.339432   -1.994380
    102          1           0       -2.539436   -4.700381    0.362902
    103          1           0       -1.875927   -3.744221   -1.045568
    104          1           0       -3.266484   -1.745127    0.322863
    105          1           0       -4.496395   -4.914783   -0.929484
    106          1           0       -6.075570   -4.475902   -0.734342
    107          1           0       -5.120670   -4.989821    0.773441
    108          1           0       -6.605884   -2.461726   -0.546059
    109          1           0       -5.195511   -1.325078   -0.671195
    110          1           0       -6.024957   -0.209967    1.188513
    111          1           0       -5.286667   -1.479763    1.987644
    112          1           0       -6.854547   -1.747392    3.100051
    113          1           0       -7.398020   -2.769687    1.749131
    114          1           0       -8.298879    0.150060    1.952350
    115          1           0       -9.790655   -0.139417    3.697453
    116          1           0       -8.613126   -1.378423    4.220969
    117          1           0      -10.091339   -1.788766    3.239728
    118          1           0       -9.862228   -2.251127    0.856061
    119          1           0       -8.732310   -1.271942    0.040979
    120          1           0      -10.173733    0.271939   -0.514115
    121          1           0      -10.208811    0.665067    1.146835
    122          1           0      -11.762678   -1.192807    1.573871
    123          1           0      -12.349955   -1.152831   -0.152444
    124          1           0      -12.311358    1.498288    0.638246
    125          1           0      -13.234519   -0.106542    3.053466
    126          1           0      -13.385826    1.578610    2.915467
    127          1           0      -11.763874    0.904520    2.971181
    128          1           0      -14.958315    0.227281    1.328894
    129          1           0      -14.334322   -0.320532   -0.188563
    130          1           0      -13.959327    2.628978    0.234278
    131          1           0      -15.593752    2.069299    0.405728
    132          1           0      -15.226212    0.999763   -1.920449
    133          1           0      -13.703378    1.945372   -2.022391
    134          1           0      -15.241810    3.806803   -1.292830
    135          1           0      -17.282939    1.775176   -1.462020
    136          1           0      -17.732470    2.845427   -2.761328
    137          1           0      -17.408254    3.477393   -1.107424
    138          1           0      -14.655003    2.867034   -3.956237
    139          1           0      -14.707766    4.523464   -3.389963
    140          1           0      -16.251038    3.673020   -3.889620
 ---------------------------------------------------------------------

 SCF Done:  E(RPBE1PBE) =  -3005.32003432     A.U. after   16 cycles

 Excitation energies and oscillator strengths:

 Excited State   1:      Singlet-A      1.8577 eV  667.40 nm  f=0.3747  <S**2>=0.000
     245 -> 248        0.18230
     246 -> 247        0.69110
     246 <- 247       -0.10751
 This state for optimization and/or second-order correction.
 Total Energy, E(TD-HF/TD-DFT) =  -3005.25176404
 Copying the excited state density for this state as the 1-particle RhoCI density.

 Excited State   2:      Singlet-A      2.0962 eV  591.47 nm  f=0.1562  <S**2>=0.000
     245 -> 247        0.67277
     246 -> 248       -0.21207

 Excited State   3:      Singlet-A      2.9044 eV  426.89 nm  f=0.0025  <S**2>=0.000
     242 -> 247        0.33623
     243 -> 247        0.59032

 Excited State   4:      Singlet-A      2.9441 eV  421.13 nm  f=0.0017  <S**2>=0.000
     242 -> 247        0.58520
     243 -> 247       -0.36545

 Excited State   5:      Singlet-A      3.0815 eV  402.35 nm  f=0.0002  <S**2>=0.000
     240 -> 247        0.33519
     241 -> 247        0.58802
     241 -> 249        0.11681

 The electronic state is 1-A.
 Alpha  occ. eigenvalues --  -46.92443 -19.27650 -19.25212 -19.21783 -19.19431
 Alpha  occ. eigenvalues --  -19.19058 -19.18887 -14.42292 -14.41393 -14.39217
 Alpha  occ. eigenvalues --  -14.38206 -10.38062 -10.36510 -10.32309 -10.31741
 Alpha  occ. eigenvalues --  -10.30868 -10.29607 -10.29251 -10.28776 -10.28741
 Alpha  occ. eigenvalues --  -10.28150 -10.27950 -10.27670 -10.26962 -10.26960
 Alpha  occ. eigenvalues --  -10.26904 -10.26646 -10.26235 -10.26166 -10.26140
 Alpha  occ. eigenvalues --  -10.25871 -10.25326 -10.25139 -10.25103 -10.25073
 Alpha  occ. eigenvalues --  -10.25051 -10.25043 -10.24797 -10.24726 -10.24458
 Alpha  occ. eigenvalues --  -10.24438 -10.24431 -10.23904 -10.23717 -10.23701
 Alpha  occ. eigenvalues --  -10.23602 -10.23565 -10.23487 -10.23262 -10.23168
 Alpha  occ. eigenvalues --  -10.22924 -10.22907 -10.22745 -10.22690 -10.22524
 Alpha  occ. eigenvalues --  -10.22478 -10.22231 -10.22195 -10.22064 -10.22057
 Alpha  occ. eigenvalues --  -10.22014 -10.21977 -10.21936 -10.21856 -10.21839
 Alpha  occ. eigenvalues --  -10.21491  -3.14467  -1.87330  -1.86841  -1.86689
 Alpha  occ. eigenvalues --   -1.12052  -1.09913  -1.05256  -1.04706  -1.03787
 Alpha  occ. eigenvalues --   -1.00496  -1.00459  -0.98865  -0.98054  -0.97108
 Alpha  occ. eigenvalues --   -0.86278  -0.86237  -0.84948  -0.84657  -0.83749
 Alpha  occ. eigenvalues --   -0.83325  -0.82472  -0.81600  -0.81140  -0.80464
 Alpha  occ. eigenvalues --   -0.80155  -0.79819  -0.78913  -0.77282  -0.77176
 Alpha  occ. eigenvalues --   -0.76677  -0.75756  -0.75369  -0.74751  -0.74593
 Alpha  occ. eigenvalues --   -0.73964  -0.72306  -0.72039  -0.71526  -0.71086
 Alpha  occ. eigenvalues --   -0.69747  -0.69282  -0.69251  -0.69239  -0.69057
 Alpha  occ. eigenvalues --   -0.67420  -0.66860  -0.65559  -0.64524  -0.63920
 Alpha  occ. eigenvalues --   -0.63652  -0.63097  -0.61688  -0.60989  -0.60309
 Alpha  occ. eigenvalues --   -0.60157  -0.59442  -0.58964  -0.58673  -0.58598
 Alpha  occ. eigenvalues --   -0.58289  -0.57493  -0.56983  -0.56096  -0.55066
 Alpha  occ. eigenvalues --   -0.54972  -0.54035  -0.53335  -0.53020  -0.52377
 Alpha  occ. eigenvalues --   -0.51620  -0.51279  -0.50912  -0.50397  -0.50186
 Alpha  occ. eigenvalues --   -0.49780  -0.49450  -0.49287  -0.48875  -0.48549
 Alpha  occ. eigenvalues --   -0.48289  -0.48206  -0.48094  -0.47780  -0.47283
 Alpha  occ. eigenvalues --   -0.47073  -0.46890  -0.46792  -0.46693  -0.46643
 Alpha  occ. eigenvalues --   -0.46258  -0.45956  -0.45603  -0.45523  -0.45480
 Alpha  occ. eigenvalues --   -0.45343  -0.45038  -0.44740  -0.44519  -0.44115
 Alpha  occ. eigenvalues --   -0.43940  -0.43590  -0.43500  -0.43373  -0.43319
 Alpha  occ. eigenvalues --   -0.43136  -0.43084  -0.42932  -0.42713  -0.42261
 Alpha  occ. eigenvalues --   -0.42192  -0.41873  -0.41695  -0.41587  -0.41414
 Alpha  occ. eigenvalues --   -0.40916  -0.40770  -0.40650  -0.40594  -0.40436
 Alpha  occ. eigenvalues --   -0.40239  -0.40137  -0.39950  -0.39737  -0.39601
 Alpha  occ. eigenvalues --   -0.39548  -0.39347  -0.39207  -0.39006  -0.38598
 Alpha  occ. eigenvalues --   -0.38525  -0.38357  -0.38258  -0.38176  -0.37727
 Alpha  occ. eigenvalues --   -0.37631  -0.37574  -0.37235  -0.36978  -0.36856
 Alpha  occ. eigenvalues --   -0.36789  -0.36650  -0.36361  -0.36254  -0.36091
 Alpha  occ. eigenvalues --   -0.35828  -0.35765  -0.35588  -0.35519  -0.34992
 Alpha  occ. eigenvalues --   -0.34889  -0.34619  -0.34569  -0.34114  -0.34048
 Alpha  occ. eigenvalues --   -0.33787  -0.33562  -0.33296  -0.32997  -0.32687
 Alpha  occ. eigenvalues --   -0.32345  -0.32293  -0.31876  -0.31324  -0.31201
 Alpha  occ. eigenvalues --   -0.31062  -0.30553  -0.30244  -0.30207  -0.30029
 Alpha  occ. eigenvalues --   -0.28978  -0.28624  -0.28387  -0.26540  -0.25822
 Alpha  occ. eigenvalues --   -0.25681  -0.25283  -0.24910  -0.24681  -0.20300
 Alpha  occ. eigenvalues --   -0.18961
 Alpha virt. eigenvalues --   -0.11352  -0.04831  -0.03734  -0.01967  -0.01061
 Alpha virt. eigenvalues --   -0.00659  -0.00045   0.00413   0.01706   0.02557
 Alpha virt. eigenvalues --    0.03424   0.04317   0.05271   0.05695   0.05888

 Mulliken charges:
               1
     1  Mg   0.979349
     2  C   -0.070478
     3  C   -0.054454
     4  C   -0.024925
     5  C   -0.045648
     6  N   -0.400244
     7  C    0.049430
     8  C   -0.121277
     9  C   -0.131229
    10  C    0.130588
    11  C    0.009665
    12  C   -0.003462
    13  C    0.013522
    14  C    0.223381
    15  O   -0.271692
    16  O   -0.355082
    17  N   -0.508931
    18  C    0.131402
    19  C   -0.164289
    20  C   -0.070196
    21  C    0.129017
    22  C    0.023445
    23  C    0.062086
    24  O   -0.226012
    25  C   -0.035988
    26  N   -0.356938
    27  C    0.070265
    28  C   -0.107526
    29  C   -0.100347
    30  C    0.018556
    31  C   -0.021926
    32  C   -0.011793
    33  C   -0.089302
    34  N   -0.418218
    35  C    0.108679
    36  C   -0.168427
    37  C   -0.021429
    38  C    0.163562
    39  C    0.073143
    40  C    0.128490
    41  O   -0.201627
    42  C   -0.130561
    43  C    0.323668
    44  O   -0.281278
    45  O   -0.365952
    46  C    0.111986
    47  C    0.234649
    48  C   -0.137622
    49  C   -0.300027
    50  C    0.010472
    51  C    0.045509
    52  C   -0.024859
    53  C    0.023637
    54  C   -0.211054
    55  C   -0.007785
    56  C   -0.023578
    57  C   -0.039850
    58  C    0.027857
    59  C   -0.217465
    60  C   -0.011857
    61  C    0.038455
    62  C   -0.096210
    63  C    0.025435
    64  C   -0.280717
    65  C   -0.027420
    66  C    0.017820
    67  H    0.003525
    68  H    0.022483
    69  H   -0.000207
    70  H    0.061242
    71  H    0.055279
    72  H    0.061296
    73  H    0.036813
    74  H    0.056548
    75  H    0.041921
    76  H    0.054637
    77  H    0.058439
    78  H    0.056242
    79  H    0.069947
    80  H    0.050841
    81  H    0.036484
    82  H    0.038739
    83  H    0.053328
    84  H    0.068430
    85  H    0.050029
    86  H    0.047760
    87  H    0.055567
    88  H    0.057691
    89  H    0.043977
    90  H    0.050692
    91  H    0.039153
    92  H    0.039527
    93  H    0.049695
    94  H    0.045665
    95  H    0.029259
    96  H    0.061926
    97  H    0.061388
    98  H    0.061117
    99  H    0.053281
   100  H    0.076271
   101  H    0.061957
   102  H    0.058573
   103  H    0.082951
   104  H    0.015783
   105  H    0.050633
   106  H    0.024946
   107  H    0.072932
   108  H    0.029839
   109  H    0.045672
   110  H    0.016760
   111  H    0.024601
   112  H    0.019765
   113  H    0.020690
   114  H    0.025726
   115  H    0.037822
   116  H    0.038072
   117  H    0.036766
   118  H    0.029246
   119  H    0.016277
   120  H    0.029500
   121  H    0.017526
   122  H    0.023724
   123  H    0.035804
   124  H    0.042045
   125  H    0.032544
   126  H    0.023825
   127  H    0.031621
   128  H    0.021172
   129  H    0.015985
   130  H    0.029824
   131  H    0.021494
   132  H    0.018190
   133  H    0.024093
   134  H    0.030131
   135  H    0.028411
   136  H    0.044975
   137  H    0.040971
   138  H    0.026084
   139  H    0.038248
   140  H    0.029446
 Sum of Mulliken charges =  -0.00000

 Dipole moment (field-independent basis, Debye):
    X=             -5.6248    Y=              2.3256    Z=              2.0409  Tot=              6.4197
 Quadrupole moment (field-independent basis, Debye-Ang):
   XX=           -387.5609   YY=           -431.9213   ZZ=           -404.4780
   XY=             35.8763   XZ=             17.2820   YZ=             -7.0081

 Normal termination of Gaussian 16 at Thu May  5 04:23:16 2022.
