 Gaussian 16, Revision A.03,
 Gaussian 16:  ES64L-G16RevA.03 25-Dec-2016

 --------------------------------
 #p wB97XD/Def2SVP td=(nstates=5)
 --------------------------------

 ----------------------------------------------------
 step_601_chromophore_21 TDDFT with wB97XD functional
 ----------------------------------------------------
 Symbolic Z-matrix:
 Charge =  0 Multiplicity = 1

                         Standard orientation:
 ---------------------------------------------------------------------
 Center     Atomic      Atomic             Coordinates (Angstroms)
 Number     Number       Type             X           Y           Z
 ---------------------------------------------------------------------
      1         12           0        5.328600    1.191537   -0.050637
      2          6           0        5.059476   -2.378124   -0.111942
      3          6           0        2.004336    1.388817   -0.773421
      4          6           0        5.776199    4.378313    0.315922
      5          6           0        8.841743    0.714150   -0.003666
      6          7           0        3.770114   -0.284066   -0.295959
      7          6           0        3.771757   -1.674569   -0.179533
      8          6           0        2.384646   -2.289577    0.000881
      9          6           0        1.520711   -1.102944   -0.605099
     10          6           0        2.494602    0.069908   -0.634490
     11          6           0        1.045981   -1.443400   -2.121703
     12          6           0        2.198871   -2.537702    1.463625
     13          6           0        1.060177   -3.533960    1.814704
     14          6           0        0.015496   -3.898165    0.691252
     15          8           0        0.212431   -4.753887   -0.168984
     16          8           0       -1.163799   -3.263412    0.971639
     17          7           0        3.968054    2.753718   -0.205643
     18          6           0        2.665642    2.651545   -0.573635
     19          6           0        2.138779    4.026030   -0.549603
     20          6           0        3.193277    4.921589   -0.217363
     21          6           0        4.347071    4.071160   -0.002155
     22          6           0        0.697560    4.353231   -1.059439
     23          6           0        3.181865    6.441098   -0.101241
     24          8           0        4.142639    7.114633    0.211553
     25          6           0        1.932143    7.232289   -0.437977
     26          7           0        7.054770    2.350237    0.313715
     27          6           0        6.983126    3.647714    0.436704
     28          6           0        8.342300    4.342169    0.636795
     29          6           0        9.271498    3.095768    0.797971
     30          6           0        8.350206    1.982060    0.394412
     31          6           0        8.732701    5.229665   -0.641087
     32          6           0        9.793805    2.826885    2.216161
     33          6           0       11.372171    2.436598    2.342930
     34          7           0        6.781390   -0.418804   -0.325064
     35          6           0        8.109957   -0.500509   -0.337616
     36          6           0        8.588714   -1.839665   -0.478232
     37          6           0        7.407306   -2.575839   -0.321836
     38          6           0        6.359338   -1.728998   -0.205392
     39          6           0       10.014599   -2.244724   -0.673562
     40          6           0        6.964039   -3.917979   -0.129032
     41          8           0        7.548874   -4.979375   -0.111541
     42          6           0        5.344801   -3.891700   -0.140635
     43          6           0        4.872289   -4.505086   -1.472202
     44          8           0        5.099168   -4.148404   -2.654660
     45          8           0        3.954642   -5.487964   -1.173299
     46          6           0        3.200901   -6.033377   -2.287442
     47          6           0       -2.206475   -3.731076   -0.006823
     48          6           0       -3.450908   -2.793995    0.089911
     49          6           0       -4.805103   -3.064810    0.067648
     50          6           0       -5.139098   -4.458422   -0.177698
     51          6           0       -5.802789   -1.949654   -0.016158
     52          6           0       -6.122716   -1.287376    1.315359
     53          6           0       -7.276808   -1.743273    2.095406
     54          6           0       -8.570716   -0.899847    2.056516
     55          6           0       -9.292228   -1.070302    3.426331
     56          6           0       -9.469332   -1.234000    0.842665
     57          6           0      -10.424318   -0.151987    0.458312
     58          6           0      -11.952132   -0.585107    0.688529
     59          6           0      -12.756266    0.595980    1.057705
     60          6           0      -12.766120    0.752012    2.571375
     61          6           0      -14.234291    0.472906    0.551655
     62          6           0      -14.637082    1.826219   -0.057287
     63          6           0      -14.692612    1.882723   -1.569544
     64          6           0      -15.555353    3.043752   -2.005157
     65          6           0      -17.101740    2.768076   -1.875419
     66          6           0      -15.270612    3.590216   -3.420640
     67          1           0        0.928700    1.540016   -0.886336
     68          1           0        5.967211    5.453412    0.316498
     69          1           0        9.917234    0.626133    0.163073
     70          1           0        2.425892   -3.288853   -0.432829
     71          1           0        0.699044   -1.000476    0.104322
     72          1           0        1.358841   -0.703957   -2.858714
     73          1           0       -0.043205   -1.485529   -2.121309
     74          1           0        1.318293   -2.462335   -2.396163
     75          1           0        1.808913   -1.659023    1.978655
     76          1           0        3.129711   -2.881836    1.912801
     77          1           0        0.720492   -3.291577    2.821661
     78          1           0        1.596970   -4.471567    1.960869
     79          1           0        0.733288    4.867526   -2.020565
     80          1           0        0.124212    5.018013   -0.413467
     81          1           0        0.130854    3.430385   -1.177322
     82          1           0        1.488436    6.797495   -1.334452
     83          1           0        2.203476    8.264151   -0.659356
     84          1           0        1.172879    7.276106    0.342689
     85          1           0        8.562876    4.969500    1.500477
     86          1           0       10.083038    3.121239    0.070270
     87          1           0        8.393116    6.230523   -0.377043
     88          1           0        8.254672    4.915404   -1.569322
     89          1           0        9.798633    5.338626   -0.842969
     90          1           0        9.220893    1.995057    2.627768
     91          1           0        9.620035    3.615728    2.948274
     92          1           0       11.764680    2.364606    1.328412
     93          1           0       11.585397    1.514732    2.883298
     94          1           0       11.940814    3.193112    2.882508
     95          1           0       10.567325   -1.318194   -0.828730
     96          1           0       10.135998   -2.830107   -1.585082
     97          1           0       10.496614   -2.814557    0.120462
     98          1           0        4.819390   -4.374139    0.683869
     99          1           0        3.692620   -6.992486   -2.448981
    100          1           0        3.176437   -5.365953   -3.148698
    101          1           0        2.196731   -6.339432   -1.994380
    102          1           0       -2.539436   -4.700381    0.362902
    103          1           0       -1.875927   -3.744221   -1.045568
    104          1           0       -3.266484   -1.745127    0.322863
    105          1           0       -4.496395   -4.914783   -0.929484
    106          1           0       -6.075570   -4.475902   -0.734342
    107          1           0       -5.120670   -4.989821    0.773441
    108          1           0       -6.605884   -2.461726   -0.546059
    109          1           0       -5.195511   -1.325078   -0.671195
    110          1           0       -6.024957   -0.209967    1.188513
    111          1           0       -5.286667   -1.479763    1.987644
    112          1           0       -6.854547   -1.747392    3.100051
    113          1           0       -7.398020   -2.769687    1.749131
    114          1           0       -8.298879    0.150060    1.952350
    115          1           0       -9.790655   -0.139417    3.697453
    116          1           0       -8.613126   -1.378423    4.220969
    117          1           0      -10.091339   -1.788766    3.239728
    118          1           0       -9.862228   -2.251127    0.856061
    119          1           0       -8.732310   -1.271942    0.040979
    120          1           0      -10.173733    0.271939   -0.514115
    121          1           0      -10.208811    0.665067    1.146835
    122          1           0      -11.762678   -1.192807    1.573871
    123          1           0      -12.349955   -1.152831   -0.152444
    124          1           0      -12.311358    1.498288    0.638246
    125          1           0      -13.234519   -0.106542    3.053466
    126          1           0      -13.385826    1.578610    2.915467
    127          1           0      -11.763874    0.904520    2.971181
    128          1           0      -14.958315    0.227281    1.328894
    129          1           0      -14.334322   -0.320532   -0.188563
    130          1           0      -13.959327    2.628978    0.234278
    131          1           0      -15.593752    2.069299    0.405728
    132          1           0      -15.226212    0.999763   -1.920449
    133          1           0      -13.703378    1.945372   -2.022391
    134          1           0      -15.241810    3.806803   -1.292830
    135          1           0      -17.282939    1.775176   -1.462020
    136          1           0      -17.732470    2.845427   -2.761328
    137          1           0      -17.408254    3.477393   -1.107424
    138          1           0      -14.655003    2.867034   -3.956237
    139          1           0      -14.707766    4.523464   -3.389963
    140          1           0      -16.251038    3.673020   -3.889620
 ---------------------------------------------------------------------

 SCF Done:  E(RwB97XD) =  -3007.82821883     A.U. after   17 cycles

 Excitation energies and oscillator strengths:

 Excited State   1:      Singlet-A      1.6354 eV  758.14 nm  f=0.3873  <S**2>=0.000
     245 -> 248       -0.19182
     246 -> 247        0.68245
     245 <- 248       -0.11930
 This state for optimization and/or second-order correction.
 Total Energy, E(TD-HF/TD-DFT) =  -3007.76812035
 Copying the excited state density for this state as the 1-particle RhoCI density.

 Excited State   2:      Singlet-A      2.0208 eV  613.54 nm  f=0.1676  <S**2>=0.000
     245 -> 247        0.66299
     246 -> 248        0.23385
     246 <- 248        0.10285

 Excited State   3:      Singlet-A      3.2551 eV  380.90 nm  f=0.0025  <S**2>=0.000
     242 -> 247       -0.16939
     244 -> 247        0.66493

 Excited State   4:      Singlet-A      3.4983 eV  354.41 nm  f=0.0058  <S**2>=0.000
     239 -> 247        0.16477
     241 -> 249        0.16478
     241 -> 250       -0.13042
     242 -> 247        0.57387
     242 -> 249        0.12501
     242 -> 250       -0.11092
     244 -> 247        0.14045
     246 -> 248       -0.13880

 Excited State   5:      Singlet-A      3.5167 eV  352.56 nm  f=0.0428  <S**2>=0.000
     239 -> 247       -0.11050
     241 -> 247        0.54972
     241 -> 249        0.11452
     241 -> 250       -0.10185
     242 -> 249        0.15643
     242 -> 250       -0.11971
     246 -> 248        0.30601

 The electronic state is 1-A.
 Alpha  occ. eigenvalues --  -46.95369 -19.32173 -19.29732 -19.26392 -19.24105
 Alpha  occ. eigenvalues --  -19.23985 -19.23634 -14.47392 -14.46533 -14.44198
 Alpha  occ. eigenvalues --  -14.43079 -10.44802 -10.43296 -10.39248 -10.38535
 Alpha  occ. eigenvalues --  -10.37357 -10.35804 -10.35648 -10.35254 -10.35151
 Alpha  occ. eigenvalues --  -10.34423 -10.34347 -10.34116 -10.33520 -10.33218
 Alpha  occ. eigenvalues --  -10.33140 -10.32902 -10.32604 -10.32377 -10.32374
 Alpha  occ. eigenvalues --  -10.32104 -10.31680 -10.31676 -10.31565 -10.31412
 Alpha  occ. eigenvalues --  -10.31369 -10.31349 -10.31241 -10.31054 -10.30891
 Alpha  occ. eigenvalues --  -10.30804 -10.30711 -10.30298 -10.30108 -10.30000
 Alpha  occ. eigenvalues --  -10.29958 -10.29941 -10.29834 -10.29713 -10.29600
 Alpha  occ. eigenvalues --  -10.29529 -10.29184 -10.29081 -10.29044 -10.28907
 Alpha  occ. eigenvalues --  -10.28866 -10.28614 -10.28576 -10.28476 -10.28428
 Alpha  occ. eigenvalues --  -10.28396 -10.28327 -10.28317 -10.28284 -10.28227
 Alpha  occ. eigenvalues --  -10.27920  -3.21258  -1.94869  -1.94381  -1.94226
 Alpha  occ. eigenvalues --   -1.19398  -1.17273  -1.12838  -1.12118  -1.11089
 Alpha  occ. eigenvalues --   -1.07870  -1.07817  -1.06140  -1.05458  -1.04553
 Alpha  occ. eigenvalues --   -0.93909  -0.93836  -0.92619  -0.92250  -0.91414
 Alpha  occ. eigenvalues --   -0.90876  -0.90133  -0.89237  -0.88759  -0.88252
 Alpha  occ. eigenvalues --   -0.87705  -0.87479  -0.86556  -0.84934  -0.84793
 Alpha  occ. eigenvalues --   -0.84335  -0.83384  -0.83059  -0.82538  -0.82269
 Alpha  occ. eigenvalues --   -0.81580  -0.80027  -0.79664  -0.79200  -0.78680
 Alpha  occ. eigenvalues --   -0.77348  -0.76985  -0.76948  -0.76834  -0.76735
 Alpha  occ. eigenvalues --   -0.75006  -0.74395  -0.73138  -0.72116  -0.71483
 Alpha  occ. eigenvalues --   -0.71268  -0.70620  -0.69293  -0.68624  -0.67810
 Alpha  occ. eigenvalues --   -0.67660  -0.67087  -0.66431  -0.66377  -0.66006
 Alpha  occ. eigenvalues --   -0.65736  -0.65159  -0.64638  -0.63489  -0.62528
 Alpha  occ. eigenvalues --   -0.62459  -0.61463  -0.60806  -0.60400  -0.59701
 Alpha  occ. eigenvalues --   -0.59131  -0.58764  -0.58318  -0.57776  -0.57605
 Alpha  occ. eigenvalues --   -0.57183  -0.56914  -0.56648  -0.56281  -0.55966
 Alpha  occ. eigenvalues --   -0.55715  -0.55574  -0.55501  -0.55160  -0.54663
 Alpha  occ. eigenvalues --   -0.54373  -0.54250  -0.54191  -0.54101  -0.53972
 Alpha  occ. eigenvalues --   -0.53812  -0.53381  -0.52964  -0.52865  -0.52811
 Alpha  occ. eigenvalues --   -0.52620  -0.52366  -0.52098  -0.51860  -0.51477
 Alpha  occ. eigenvalues --   -0.51206  -0.50993  -0.50933  -0.50783  -0.50643
 Alpha  occ. eigenvalues --   -0.50429  -0.50376  -0.50202  -0.49997  -0.49474
 Alpha  occ. eigenvalues --   -0.49406  -0.49120  -0.49035  -0.48815  -0.48706
 Alpha  occ. eigenvalues --   -0.48117  -0.47995  -0.47844  -0.47757  -0.47690
 Alpha  occ. eigenvalues --   -0.47398  -0.47377  -0.47111  -0.46930  -0.46800
 Alpha  occ. eigenvalues --   -0.46706  -0.46462  -0.46345  -0.46137  -0.45762
 Alpha  occ. eigenvalues --   -0.45697  -0.45542  -0.45372  -0.45308  -0.44861
 Alpha  occ. eigenvalues --   -0.44738  -0.44663  -0.44297  -0.44090  -0.44002
 Alpha  occ. eigenvalues --   -0.43952  -0.43666  -0.43475  -0.43289  -0.43085
 Alpha  occ. eigenvalues --   -0.42953  -0.42895  -0.42695  -0.42650  -0.42085
 Alpha  occ. eigenvalues --   -0.41892  -0.41644  -0.41515  -0.41151  -0.41021
 Alpha  occ. eigenvalues --   -0.40751  -0.40660  -0.40297  -0.40047  -0.39611
 Alpha  occ. eigenvalues --   -0.39325  -0.39164  -0.38902  -0.38402  -0.38248
 Alpha  occ. eigenvalues --   -0.38082  -0.37526  -0.37243  -0.37155  -0.36912
 Alpha  occ. eigenvalues --   -0.35831  -0.35632  -0.35119  -0.33161  -0.33020
 Alpha  occ. eigenvalues --   -0.32452  -0.32181  -0.31419  -0.31390  -0.25215
 Alpha  occ. eigenvalues --   -0.23202
 Alpha virt. eigenvalues --   -0.07363   0.00633   0.02559   0.04554   0.05723
 Alpha virt. eigenvalues --    0.05990   0.06297   0.07177   0.08018   0.08840
 Alpha virt. eigenvalues --    0.10145   0.11091   0.12059   0.12430   0.12587

 Mulliken charges:
               1
     1  Mg   0.967513
     2  C   -0.078001
     3  C   -0.070239
     4  C   -0.039066
     5  C   -0.060596
     6  N   -0.370118
     7  C    0.020452
     8  C   -0.081231
     9  C   -0.107345
    10  C    0.122203
    11  C    0.018683
    12  C    0.003016
    13  C    0.028860
    14  C    0.211937
    15  O   -0.269382
    16  O   -0.355217
    17  N   -0.477496
    18  C    0.120220
    19  C   -0.155635
    20  C   -0.056640
    21  C    0.116391
    22  C    0.036875
    23  C    0.056529
    24  O   -0.219673
    25  C   -0.023922
    26  N   -0.323158
    27  C    0.060019
    28  C   -0.084923
    29  C   -0.071690
    30  C    0.008097
    31  C   -0.013246
    32  C   -0.004863
    33  C   -0.071006
    34  N   -0.382424
    35  C    0.098786
    36  C   -0.168481
    37  C   -0.014114
    38  C    0.147903
    39  C    0.085343
    40  C    0.110194
    41  O   -0.193461
    42  C   -0.089656
    43  C    0.301570
    44  O   -0.276487
    45  O   -0.364999
    46  C    0.125481
    47  C    0.251936
    48  C   -0.148850
    49  C   -0.286236
    50  C    0.022364
    51  C    0.066976
    52  C   -0.011089
    53  C    0.040900
    54  C   -0.180225
    55  C    0.005777
    56  C   -0.004648
    57  C   -0.025293
    58  C    0.050365
    59  C   -0.183301
    60  C    0.004799
    61  C    0.048921
    62  C   -0.076564
    63  C    0.040633
    64  C   -0.250475
    65  C   -0.016148
    66  C    0.031068
    67  H   -0.004163
    68  H    0.015779
    69  H   -0.008699
    70  H    0.037456
    71  H    0.046016
    72  H    0.056188
    73  H    0.030645
    74  H    0.051967
    75  H    0.033278
    76  H    0.045345
    77  H    0.054755
    78  H    0.049291
    79  H    0.064913
    80  H    0.045553
    81  H    0.032553
    82  H    0.031314
    83  H    0.052330
    84  H    0.065347
    85  H    0.042753
    86  H    0.035907
    87  H    0.049669
    88  H    0.052052
    89  H    0.039102
    90  H    0.041629
    91  H    0.032036
    92  H    0.031904
    93  H    0.044383
    94  H    0.039920
    95  H    0.021831
    96  H    0.056973
    97  H    0.057098
    98  H    0.055394
    99  H    0.048833
   100  H    0.072512
   101  H    0.060125
   102  H    0.052241
   103  H    0.078330
   104  H    0.010701
   105  H    0.044906
   106  H    0.019619
   107  H    0.068366
   108  H    0.019479
   109  H    0.038456
   110  H    0.010499
   111  H    0.014964
   112  H    0.012034
   113  H    0.009058
   114  H    0.012912
   115  H    0.029810
   116  H    0.033346
   117  H    0.028766
   118  H    0.021124
   119  H    0.001505
   120  H    0.023703
   121  H    0.002674
   122  H    0.004802
   123  H    0.029287
   124  H    0.027134
   125  H    0.025375
   126  H    0.017668
   127  H    0.019828
   128  H    0.014519
   129  H    0.006660
   130  H    0.018586
   131  H    0.012584
   132  H    0.006351
   133  H    0.016447
   134  H    0.016554
   135  H    0.021356
   136  H    0.039948
   137  H    0.035111
   138  H    0.019575
   139  H    0.033364
   140  H    0.022453
 Sum of Mulliken charges =  -0.00000

 Dipole moment (field-independent basis, Debye):
    X=             -5.9250    Y=              2.6108    Z=              2.0270  Tot=              6.7846
 Quadrupole moment (field-independent basis, Debye-Ang):
   XX=           -389.9757   YY=           -430.2215   ZZ=           -404.0936
   XY=             36.1693   XZ=             17.5107   YZ=             -7.3798

 Normal termination of Gaussian 16 at Thu May  5 04:49:42 2022.
