 Gaussian 16, Revision A.03,
 Gaussian 16:  ES64L-G16RevA.03 25-Dec-2016

 --------------------
 #p ZINDO=(nstates=5)
 --------------------

 -----------------------------
 step_601_chromophore_21 ZINDO
 -----------------------------
 Symbolic Z-matrix:
 Charge =  0 Multiplicity = 1

                         Standard orientation:
 ---------------------------------------------------------------------
 Center     Atomic      Atomic             Coordinates (Angstroms)
 Number     Number       Type             X           Y           Z
 ---------------------------------------------------------------------
      1         12           0        5.328600    1.191537   -0.050637
      2          6           0        5.059476   -2.378124   -0.111942
      3          6           0        2.004336    1.388817   -0.773421
      4          6           0        5.776199    4.378313    0.315922
      5          6           0        8.841743    0.714150   -0.003666
      6          7           0        3.770114   -0.284066   -0.295959
      7          6           0        3.771757   -1.674569   -0.179533
      8          6           0        2.384646   -2.289577    0.000881
      9          6           0        1.520711   -1.102944   -0.605099
     10          6           0        2.494602    0.069908   -0.634490
     11          6           0        1.045981   -1.443400   -2.121703
     12          6           0        2.198871   -2.537702    1.463625
     13          6           0        1.060177   -3.533960    1.814704
     14          6           0        0.015496   -3.898165    0.691252
     15          8           0        0.212431   -4.753887   -0.168984
     16          8           0       -1.163799   -3.263412    0.971639
     17          7           0        3.968054    2.753718   -0.205643
     18          6           0        2.665642    2.651545   -0.573635
     19          6           0        2.138779    4.026030   -0.549603
     20          6           0        3.193277    4.921589   -0.217363
     21          6           0        4.347071    4.071160   -0.002155
     22          6           0        0.697560    4.353231   -1.059439
     23          6           0        3.181865    6.441098   -0.101241
     24          8           0        4.142639    7.114633    0.211553
     25          6           0        1.932143    7.232289   -0.437977
     26          7           0        7.054770    2.350237    0.313715
     27          6           0        6.983126    3.647714    0.436704
     28          6           0        8.342300    4.342169    0.636795
     29          6           0        9.271498    3.095768    0.797971
     30          6           0        8.350206    1.982060    0.394412
     31          6           0        8.732701    5.229665   -0.641087
     32          6           0        9.793805    2.826885    2.216161
     33          6           0       11.372171    2.436598    2.342930
     34          7           0        6.781390   -0.418804   -0.325064
     35          6           0        8.109957   -0.500509   -0.337616
     36          6           0        8.588714   -1.839665   -0.478232
     37          6           0        7.407306   -2.575839   -0.321836
     38          6           0        6.359338   -1.728998   -0.205392
     39          6           0       10.014599   -2.244724   -0.673562
     40          6           0        6.964039   -3.917979   -0.129032
     41          8           0        7.548874   -4.979375   -0.111541
     42          6           0        5.344801   -3.891700   -0.140635
     43          6           0        4.872289   -4.505086   -1.472202
     44          8           0        5.099168   -4.148404   -2.654660
     45          8           0        3.954642   -5.487964   -1.173299
     46          6           0        3.200901   -6.033377   -2.287442
     47          6           0       -2.206475   -3.731076   -0.006823
     48          6           0       -3.450908   -2.793995    0.089911
     49          6           0       -4.805103   -3.064810    0.067648
     50          6           0       -5.139098   -4.458422   -0.177698
     51          6           0       -5.802789   -1.949654   -0.016158
     52          6           0       -6.122716   -1.287376    1.315359
     53          6           0       -7.276808   -1.743273    2.095406
     54          6           0       -8.570716   -0.899847    2.056516
     55          6           0       -9.292228   -1.070302    3.426331
     56          6           0       -9.469332   -1.234000    0.842665
     57          6           0      -10.424318   -0.151987    0.458312
     58          6           0      -11.952132   -0.585107    0.688529
     59          6           0      -12.756266    0.595980    1.057705
     60          6           0      -12.766120    0.752012    2.571375
     61          6           0      -14.234291    0.472906    0.551655
     62          6           0      -14.637082    1.826219   -0.057287
     63          6           0      -14.692612    1.882723   -1.569544
     64          6           0      -15.555353    3.043752   -2.005157
     65          6           0      -17.101740    2.768076   -1.875419
     66          6           0      -15.270612    3.590216   -3.420640
     67          1           0        0.928700    1.540016   -0.886336
     68          1           0        5.967211    5.453412    0.316498
     69          1           0        9.917234    0.626133    0.163073
     70          1           0        2.425892   -3.288853   -0.432829
     71          1           0        0.699044   -1.000476    0.104322
     72          1           0        1.358841   -0.703957   -2.858714
     73          1           0       -0.043205   -1.485529   -2.121309
     74          1           0        1.318293   -2.462335   -2.396163
     75          1           0        1.808913   -1.659023    1.978655
     76          1           0        3.129711   -2.881836    1.912801
     77          1           0        0.720492   -3.291577    2.821661
     78          1           0        1.596970   -4.471567    1.960869
     79          1           0        0.733288    4.867526   -2.020565
     80          1           0        0.124212    5.018013   -0.413467
     81          1           0        0.130854    3.430385   -1.177322
     82          1           0        1.488436    6.797495   -1.334452
     83          1           0        2.203476    8.264151   -0.659356
     84          1           0        1.172879    7.276106    0.342689
     85          1           0        8.562876    4.969500    1.500477
     86          1           0       10.083038    3.121239    0.070270
     87          1           0        8.393116    6.230523   -0.377043
     88          1           0        8.254672    4.915404   -1.569322
     89          1           0        9.798633    5.338626   -0.842969
     90          1           0        9.220893    1.995057    2.627768
     91          1           0        9.620035    3.615728    2.948274
     92          1           0       11.764680    2.364606    1.328412
     93          1           0       11.585397    1.514732    2.883298
     94          1           0       11.940814    3.193112    2.882508
     95          1           0       10.567325   -1.318194   -0.828730
     96          1           0       10.135998   -2.830107   -1.585082
     97          1           0       10.496614   -2.814557    0.120462
     98          1           0        4.819390   -4.374139    0.683869
     99          1           0        3.692620   -6.992486   -2.448981
    100          1           0        3.176437   -5.365953   -3.148698
    101          1           0        2.196731   -6.339432   -1.994380
    102          1           0       -2.539436   -4.700381    0.362902
    103          1           0       -1.875927   -3.744221   -1.045568
    104          1           0       -3.266484   -1.745127    0.322863
    105          1           0       -4.496395   -4.914783   -0.929484
    106          1           0       -6.075570   -4.475902   -0.734342
    107          1           0       -5.120670   -4.989821    0.773441
    108          1           0       -6.605884   -2.461726   -0.546059
    109          1           0       -5.195511   -1.325078   -0.671195
    110          1           0       -6.024957   -0.209967    1.188513
    111          1           0       -5.286667   -1.479763    1.987644
    112          1           0       -6.854547   -1.747392    3.100051
    113          1           0       -7.398020   -2.769687    1.749131
    114          1           0       -8.298879    0.150060    1.952350
    115          1           0       -9.790655   -0.139417    3.697453
    116          1           0       -8.613126   -1.378423    4.220969
    117          1           0      -10.091339   -1.788766    3.239728
    118          1           0       -9.862228   -2.251127    0.856061
    119          1           0       -8.732310   -1.271942    0.040979
    120          1           0      -10.173733    0.271939   -0.514115
    121          1           0      -10.208811    0.665067    1.146835
    122          1           0      -11.762678   -1.192807    1.573871
    123          1           0      -12.349955   -1.152831   -0.152444
    124          1           0      -12.311358    1.498288    0.638246
    125          1           0      -13.234519   -0.106542    3.053466
    126          1           0      -13.385826    1.578610    2.915467
    127          1           0      -11.763874    0.904520    2.971181
    128          1           0      -14.958315    0.227281    1.328894
    129          1           0      -14.334322   -0.320532   -0.188563
    130          1           0      -13.959327    2.628978    0.234278
    131          1           0      -15.593752    2.069299    0.405728
    132          1           0      -15.226212    0.999763   -1.920449
    133          1           0      -13.703378    1.945372   -2.022391
    134          1           0      -15.241810    3.806803   -1.292830
    135          1           0      -17.282939    1.775176   -1.462020
    136          1           0      -17.732470    2.845427   -2.761328
    137          1           0      -17.408254    3.477393   -1.107424
    138          1           0      -14.655003    2.867034   -3.956237
    139          1           0      -14.707766    4.523464   -3.389963
    140          1           0      -16.251038    3.673020   -3.889620
 ---------------------------------------------------------------------

 SCF Done:  E(RZINDO/S) =  -474.215342111     A.U. after   20 cycles

 Excitation energies and oscillator strengths:

 Excited State   1:      Singlet-A      1.2029 eV 1030.74 nm  f=0.6096  <S**2>=0.000
     175 ->178         0.19470
     176 ->177         0.66053
 This state for optimization and/or second-order correction.
 Total Energy, E(CIS/TDA) =  -474.171137705
 Copying the excited state density for this state as the 1-particle RhoCI density.

 Excited State   2:      Singlet-A      1.8106 eV  684.77 nm  f=0.1189  <S**2>=0.000
     175 ->177         0.59082
     176 ->178        -0.35495

 Excited State   3:      Singlet-A      2.9537 eV  419.76 nm  f=0.0875  <S**2>=0.000
     169 ->177         0.25860
     169 ->178        -0.16204
     169 ->179        -0.25866
     169 ->181         0.21752
     169 ->182        -0.12525
     169 ->186        -0.15281
     170 ->177        -0.14058
     170 ->179         0.12702
     170 ->181        -0.10956
     172 ->177        -0.21662
     176 ->178         0.20046
     176 ->179         0.14159

 Excited State   4:      Singlet-A      2.9861 eV  415.20 nm  f=0.6146  <S**2>=0.000
     169 ->177        -0.17559
     169 ->179         0.15042
     169 ->181        -0.13603
     172 ->177        -0.21678
     175 ->177         0.24872
     176 ->178         0.47005
     176 ->179         0.13300

 Excited State   5:      Singlet-A      3.0048 eV  412.62 nm  f=0.0148  <S**2>=0.000
     168 ->177         0.27512
     168 ->179         0.37316
     168 ->181         0.36479
     168 ->183        -0.10950
     168 ->186         0.20289
     168 ->187        -0.16124

 The electronic state is 1-A.
 Alpha  occ. eigenvalues --   -1.85339  -1.82193  -1.79790  -1.73335  -1.70843
 Alpha  occ. eigenvalues --   -1.70709  -1.68569  -1.64061  -1.59285  -1.58738
 Alpha  occ. eigenvalues --   -1.58685  -1.53327  -1.49941  -1.46425  -1.45637
 Alpha  occ. eigenvalues --   -1.43874  -1.41213  -1.41106  -1.38198  -1.36168
 Alpha  occ. eigenvalues --   -1.34599  -1.33817  -1.32623  -1.31534  -1.28485
 Alpha  occ. eigenvalues --   -1.27516  -1.23758  -1.20935  -1.19570  -1.17653
 Alpha  occ. eigenvalues --   -1.17185  -1.15536  -1.14984  -1.14759  -1.14078
 Alpha  occ. eigenvalues --   -1.12939  -1.12586  -1.10394  -1.03998  -1.03720
 Alpha  occ. eigenvalues --   -1.01400  -1.00875  -1.00363  -0.97348  -0.97033
 Alpha  occ. eigenvalues --   -0.95846  -0.95124  -0.93866  -0.93313  -0.92509
 Alpha  occ. eigenvalues --   -0.90603  -0.90101  -0.89109  -0.88235  -0.87654
 Alpha  occ. eigenvalues --   -0.86302  -0.83964  -0.83063  -0.82022  -0.81014
 Alpha  occ. eigenvalues --   -0.79332  -0.79039  -0.77467  -0.77244  -0.76192
 Alpha  occ. eigenvalues --   -0.75394  -0.74872  -0.74248  -0.73880  -0.73672
 Alpha  occ. eigenvalues --   -0.72696  -0.72095  -0.72006  -0.71331  -0.70847
 Alpha  occ. eigenvalues --   -0.70746  -0.70344  -0.69170  -0.68591  -0.67897
 Alpha  occ. eigenvalues --   -0.67280  -0.66980  -0.66690  -0.66102  -0.65757
 Alpha  occ. eigenvalues --   -0.65277  -0.64956  -0.64638  -0.64451  -0.63781
 Alpha  occ. eigenvalues --   -0.63129  -0.62465  -0.62345  -0.62026  -0.61498
 Alpha  occ. eigenvalues --   -0.61047  -0.60597  -0.60327  -0.59970  -0.59924
 Alpha  occ. eigenvalues --   -0.59773  -0.59067  -0.58967  -0.58926  -0.58541
 Alpha  occ. eigenvalues --   -0.58042  -0.57998  -0.57695  -0.57163  -0.56992
 Alpha  occ. eigenvalues --   -0.56793  -0.55161  -0.54937  -0.54824  -0.54554
 Alpha  occ. eigenvalues --   -0.54174  -0.53878  -0.53386  -0.52759  -0.52683
 Alpha  occ. eigenvalues --   -0.52561  -0.51873  -0.51595  -0.51443  -0.51348
 Alpha  occ. eigenvalues --   -0.51267  -0.50684  -0.50355  -0.50246  -0.50088
 Alpha  occ. eigenvalues --   -0.49916  -0.49526  -0.49134  -0.49069  -0.48972
 Alpha  occ. eigenvalues --   -0.48889  -0.48396  -0.48251  -0.48098  -0.47757
 Alpha  occ. eigenvalues --   -0.47256  -0.47079  -0.46792  -0.46481  -0.46357
 Alpha  occ. eigenvalues --   -0.46260  -0.46118  -0.45913  -0.45748  -0.45391
 Alpha  occ. eigenvalues --   -0.45341  -0.45189  -0.44905  -0.44853  -0.44504
 Alpha  occ. eigenvalues --   -0.44118  -0.43359  -0.43219  -0.43071  -0.42790
 Alpha  occ. eigenvalues --   -0.42325  -0.41057  -0.40519  -0.39705  -0.38263
 Alpha  occ. eigenvalues --   -0.37691  -0.37539  -0.35263  -0.34839  -0.34376
 Alpha  occ. eigenvalues --   -0.33180  -0.32202  -0.31667  -0.31105  -0.25945
 Alpha  occ. eigenvalues --   -0.21817
 Alpha virt. eigenvalues --   -0.08867  -0.01814  -0.00256   0.00800   0.01424
 Alpha virt. eigenvalues --    0.02504   0.02738   0.03387   0.04238   0.04502
 Alpha virt. eigenvalues --    0.05995   0.06602   0.07032   0.07469   0.07913

 Mulliken charges:
               1
     1  Mg   0.426538
     2  C   -0.067003
     3  C   -0.086462
     4  C   -0.081168
     5  C   -0.087305
     6  N   -0.281500
     7  C    0.121882
     8  C    0.006590
     9  C    0.008454
    10  C    0.140726
    11  C   -0.053889
    12  C   -0.014439
    13  C   -0.014159
    14  C    0.472838
    15  O   -0.513906
    16  O   -0.259312
    17  N   -0.317485
    18  C    0.103076
    19  C   -0.003591
    20  C   -0.033756
    21  C    0.121781
    22  C   -0.047956
    23  C    0.331452
    24  O   -0.513965
    25  C   -0.032219
    26  N   -0.246908
    27  C    0.155581
    28  C   -0.000098
    29  C    0.006631
    30  C    0.132162
    31  C   -0.056318
    32  C   -0.030771
    33  C   -0.066752
    34  N   -0.336241
    35  C    0.123153
    36  C    0.030452
    37  C   -0.025411
    38  C    0.109945
    39  C   -0.034302
    40  C    0.332697
    41  O   -0.511607
    42  C    0.053889
    43  C    0.481638
    44  O   -0.530562
    45  O   -0.267707
    46  C    0.072280
    47  C    0.104398
    48  C   -0.130772
    49  C   -0.000964
    50  C   -0.042248
    51  C   -0.021460
    52  C   -0.021364
    53  C   -0.028187
    54  C   -0.009106
    55  C   -0.063093
    56  C   -0.030615
    57  C   -0.043543
    58  C   -0.036759
    59  C   -0.001662
    60  C   -0.052976
    61  C   -0.042007
    62  C   -0.035928
    63  C   -0.024704
    64  C   -0.016732
    65  C   -0.060506
    66  C   -0.063871
    67  H    0.023420
    68  H    0.031733
    69  H    0.018988
    70  H    0.051542
    71  H    0.039271
    72  H    0.035105
    73  H    0.014137
    74  H    0.032740
    75  H    0.021123
    76  H    0.030390
    77  H    0.040580
    78  H    0.027415
    79  H    0.030199
    80  H    0.025564
    81  H    0.022193
    82  H    0.026340
    83  H    0.034842
    84  H    0.041085
    85  H    0.042431
    86  H    0.032790
    87  H    0.019373
    88  H    0.029507
    89  H    0.020617
    90  H    0.020599
    91  H    0.022266
    92  H    0.020039
    93  H    0.024665
    94  H    0.019541
    95  H    0.016019
    96  H    0.036272
    97  H    0.039058
    98  H    0.055756
    99  H    0.035936
   100  H    0.058187
   101  H    0.035509
   102  H    0.048877
   103  H    0.065244
   104  H    0.016295
   105  H    0.024253
   106  H    0.013757
   107  H    0.040615
   108  H    0.031181
   109  H    0.031917
   110  H    0.014421
   111  H    0.010459
   112  H    0.014658
   113  H    0.021810
   114  H    0.021055
   115  H    0.015734
   116  H    0.025861
   117  H    0.019101
   118  H    0.025187
   119  H   -0.001224
   120  H    0.021013
   121  H    0.014533
   122  H    0.023428
   123  H    0.028005
   124  H    0.024923
   125  H    0.016765
   126  H    0.008819
   127  H    0.015984
   128  H    0.019047
   129  H    0.017219
   130  H    0.016748
   131  H    0.013995
   132  H    0.014520
   133  H    0.021586
   134  H    0.015074
   135  H    0.013976
   136  H    0.029156
   137  H    0.015221
   138  H    0.015619
   139  H    0.020585
   140  H    0.024479
 Sum of Mulliken charges =  -0.00000

 Dipole moment (field-independent basis, Debye):
    X=             -6.9461    Y=              2.7686    Z=              3.5940  Tot=              8.2964
 N-N= 4.248931322166D+03 E-N= 0.000000000000D+00  KE=-9.172049962207D+03
 Leave Link  601 at Thu May  5 05:01:40 2022, MaxMem=  6710886400 cpu:               1.0 elap:               0.1
 (Enter /sw/apps/gaussian-16.0/g16/l9999.exe)
 1\1\GINC-BP1-COMPUTE123\SP\RZINDO CIS\STO-3G\C55H74Mg1N4O6\OF15641\05-
 May-2022\0\\#p ZINDO=(nstates=5)\\step_601_chromophore_21 ZINDO\\0,1\M
 g,0,15.88,52.077,25.375\C,0,17.904,51.162,28.183\C,0,13.238,52.47,27.4
 91\C,0,14.337,53.117,22.724\C,0,18.553,50.934,23.345\N,0,15.658,51.934
 ,27.519\C,0,16.574,51.674,28.539\C,0,16.1,52.096,29.929\C,0,14.537,52.
 114,29.649\C,0,14.446,52.102,28.127\C,0,13.824,50.778,30.239\C,0,16.71
 6,53.427,30.22\C,0,16.715,53.83,31.72\C,0,15.792,53.02,32.709\O,0,16.1

 Normal termination of Gaussian 16 at Thu May  5 05:01:40 2022.
