 Gaussian 16, Revision A.03,
 Gaussian 16:  ES64L-G16RevA.03 25-Dec-2016

 ------------------------------
 #p blyp/Def2SVP td=(nstates=5)
 ------------------------------

 --------------------------------------------------
 step_601_chromophore_10 TDDFT with blyp functional
 --------------------------------------------------
 Symbolic Z-matrix:
 Charge =  0 Multiplicity = 1

                         Standard orientation:
 ---------------------------------------------------------------------
 Center     Atomic      Atomic             Coordinates (Angstroms)
 Number     Number       Type             X           Y           Z
 ---------------------------------------------------------------------
      1         12           0        5.696614    0.486363   -0.134113
      2          6           0        3.245741   -1.915865   -0.256629
      3          6           0        3.532991    2.751410   -1.497276
      4          6           0        8.152343    2.692966    0.035056
      5          6           0        8.025320   -2.089192    0.943047
      6          7           0        3.720160    0.307443   -0.997877
      7          6           0        2.814398   -0.706706   -0.810329
      8          6           0        1.426507   -0.235163   -1.264236
      9          6           0        1.690719    1.157912   -1.936339
     10          6           0        3.121838    1.495765   -1.503102
     11          6           0        1.653421    1.084694   -3.507996
     12          6           0        0.563885   -0.131838   -0.014959
     13          6           0       -0.931075   -0.519338   -0.211342
     14          6           0       -1.414692   -1.719443    0.646756
     15          8           0       -0.677025   -2.579976    1.181087
     16          8           0       -2.824916   -1.654755    0.862931
     17          7           0        5.821872    2.388724   -0.624475
     18          6           0        4.748238    3.205626   -1.031228
     19          6           0        5.184211    4.626381   -1.021712
     20          6           0        6.558584    4.574405   -0.569733
     21          6           0        6.899644    3.206487   -0.370994
     22          6           0        4.359117    5.850090   -1.581538
     23          6           0        7.504461    5.774673   -0.218123
     24          8           0        8.679144    5.623089    0.155657
     25          6           0        6.827401    7.071319   -0.181547
     26          7           0        7.829216    0.242935    0.372283
     27          6           0        8.534728    1.372696    0.403806
     28          6           0       10.016739    1.100135    0.872944
     29          6           0        9.935696   -0.377649    1.282134
     30          6           0        8.538148   -0.780392    0.884369
     31          6           0       11.114718    1.443730   -0.174546
     32          6           0       10.285328   -0.673943    2.706656
     33          6           0        9.514113   -0.048221    3.868989
     34          7           0        5.628793   -1.588976    0.271653
     35          6           0        6.613528   -2.495886    0.679131
     36          6           0        6.023644   -3.785434    0.861347
     37          6           0        4.716391   -3.624515    0.516328
     38          6           0        4.527058   -2.241970    0.159029
     39          6           0        6.795965   -5.037760    1.316206
     40          6           0        3.426704   -4.280947    0.360531
     41          8           0        3.091439   -5.433372    0.598574
     42          6           0        2.435263   -3.134952   -0.164632
     43          6           0        1.946974   -3.395187   -1.566618
     44          8           0        2.667885   -3.781762   -2.511055
     45          8           0        0.575354   -3.435787   -1.651873
     46          6           0       -0.237987   -3.731244   -2.918857
     47          6           0       -3.419983   -2.679410    1.759667
     48          6           0       -4.965987   -2.584648    1.561529
     49          6           0       -5.686128   -3.273093    0.636678
     50          6           0       -5.070147   -4.265287   -0.358399
     51          6           0       -7.200526   -3.052495    0.488061
     52          6           0       -7.711773   -1.692032    0.040717
     53          6           0       -8.093109   -1.479109   -1.434144
     54          6           0       -9.543549   -0.924795   -1.527793
     55          6           0      -10.263101   -1.348481   -2.846803
     56          6           0       -9.619706    0.595030   -1.254706
     57          6           0      -10.598706    0.996752   -0.060176
     58          6           0       -9.919693    1.386582    1.232332
     59          6           0      -10.500403    2.761588    1.735262
     60          6           0       -9.541646    3.482196    2.665088
     61          6           0      -11.870822    2.507253    2.472141
     62          6           0      -13.025842    3.240367    1.794387
     63          6           0      -14.269321    2.282782    1.563905
     64          6           0      -14.603491    2.099080    0.087168
     65          6           0      -16.149687    2.344057   -0.244093
     66          6           0      -14.133536    0.706078   -0.571032
     67          1           0        2.738858    3.451220   -1.767445
     68          1           0        9.052810    3.309671    0.017038
     69          1           0        8.650761   -2.831829    1.442810
     70          1           0        0.986145   -0.915157   -1.992421
     71          1           0        0.898706    1.864917   -1.689763
     72          1           0        2.558714    1.499710   -3.952376
     73          1           0        0.813833    1.716543   -3.794631
     74          1           0        1.412120    0.153047   -4.019346
     75          1           0        0.545370    0.874201    0.404699
     76          1           0        1.037173   -0.749497    0.748897
     77          1           0       -1.064308   -0.833163   -1.245849
     78          1           0       -1.534562    0.376860   -0.063103
     79          1           0        3.362643    5.632816   -1.964454
     80          1           0        5.003665    6.416406   -2.254289
     81          1           0        4.160702    6.519165   -0.743809
     82          1           0        7.582424    7.797876    0.117055
     83          1           0        6.020404    7.079754    0.551292
     84          1           0        6.616083    7.282684   -1.230454
     85          1           0       10.120784    1.774331    1.722189
     86          1           0       10.657914   -1.008698    0.762660
     87          1           0       10.693309    2.107328   -0.929060
     88          1           0       11.508900    0.514327   -0.585592
     89          1           0       11.880517    2.068758    0.284525
     90          1           0       11.300235   -0.283730    2.784517
     91          1           0       10.418142   -1.741018    2.881115
     92          1           0       10.131481    0.693498    4.374491
     93          1           0        9.161112   -0.765842    4.609802
     94          1           0        8.604620    0.503336    3.632778
     95          1           0        6.207874   -5.911289    1.593978
     96          1           0        7.371266   -4.805809    2.213097
     97          1           0        7.440867   -5.405171    0.517441
     98          1           0        1.575564   -3.257720    0.494497
     99          1           0       -0.848313   -4.631240   -2.843360
    100          1           0        0.468846   -3.828820   -3.743821
    101          1           0       -0.923372   -2.958157   -3.265982
    102          1           0       -3.248366   -2.512336    2.823848
    103          1           0       -3.096307   -3.714450    1.650217
    104          1           0       -5.381395   -1.798789    2.192806
    105          1           0       -5.466223   -3.925415   -1.315194
    106          1           0       -5.438310   -5.278864   -0.199116
    107          1           0       -3.980533   -4.236031   -0.355771
    108          1           0       -7.697515   -3.351490    1.411348
    109          1           0       -7.547607   -3.802649   -0.221413
    110          1           0       -6.906080   -0.966863    0.151364
    111          1           0       -8.477978   -1.323260    0.722107
    112          1           0       -7.898376   -2.363270   -2.041645
    113          1           0       -7.474653   -0.695493   -1.869674
    114          1           0      -10.136303   -1.402636   -0.747620
    115          1           0      -11.264451   -0.963377   -3.043193
    116          1           0      -10.550242   -2.379983   -2.640189
    117          1           0       -9.669301   -1.392967   -3.759959
    118          1           0       -9.839670    1.080536   -2.205466
    119          1           0       -8.649939    1.043906   -1.043046
    120          1           0      -11.222727    0.116750    0.093894
    121          1           0      -11.249733    1.776102   -0.455482
    122          1           0       -8.859346    1.453631    0.988140
    123          1           0      -10.003554    0.674272    2.052291
    124          1           0      -10.520424    3.382136    0.839157
    125          1           0       -9.302979    4.412965    2.149794
    126          1           0       -8.734370    2.790010    2.901639
    127          1           0       -9.951328    3.776331    3.630988
    128          1           0      -11.889253    2.895396    3.490804
    129          1           0      -12.144244    1.455336    2.556309
    130          1           0      -12.833526    3.640219    0.799346
    131          1           0      -13.339464    4.056313    2.444645
    132          1           0      -15.129861    2.700974    2.086627
    133          1           0      -14.120692    1.291320    1.991515
    134          1           0      -14.102310    2.878936   -0.487544
    135          1           0      -16.546276    1.747524   -1.065187
    136          1           0      -16.345502    3.373249   -0.546070
    137          1           0      -16.746365    2.063494    0.623847
    138          1           0      -14.984772    0.268601   -1.092449
    139          1           0      -13.808367    0.005270    0.197417
    140          1           0      -13.285091    0.818185   -1.246795
 ---------------------------------------------------------------------

 SCF Done:  E(RB-LYP) =  -3007.36379384     A.U. after   21 cycles

 Excitation energies and oscillator strengths:

 Excited State   1:      Singlet-A      1.7923 eV  691.77 nm  f=0.0494  <S**2>=0.000
     244 -> 247        0.52114
     245 -> 247        0.39457
     246 -> 247       -0.25131
 This state for optimization and/or second-order correction.
 Total Energy, E(TD-HF/TD-DFT) =  -3007.29792926
 Copying the excited state density for this state as the 1-particle RhoCI density.

 Excited State   2:      Singlet-A      1.8345 eV  675.85 nm  f=0.2978  <S**2>=0.000
     244 -> 247        0.22983
     245 -> 247        0.11866
     245 -> 248       -0.16621
     246 -> 247        0.64374
     246 <- 247       -0.14378

 Excited State   3:      Singlet-A      2.0113 eV  616.45 nm  f=0.0515  <S**2>=0.000
     243 -> 247        0.34776
     244 -> 247       -0.37117
     245 -> 247        0.44544
     246 -> 248        0.17059

 Excited State   4:      Singlet-A      2.0869 eV  594.11 nm  f=0.0239  <S**2>=0.000
     243 -> 247        0.61285
     244 -> 247        0.17056
     245 -> 247       -0.26510
     246 -> 248       -0.13281

 Excited State   5:      Singlet-A      2.4515 eV  505.75 nm  f=0.0008  <S**2>=0.000
     240 -> 247       -0.14719
     241 -> 247        0.11528
     242 -> 247        0.66850

 The electronic state is 1-A.
 Alpha  occ. eigenvalues --  -46.26152 -18.82135 -18.81465 -18.77741 -18.75949
 Alpha  occ. eigenvalues --  -18.75232 -18.75191 -14.02883 -14.02608 -14.01103
 Alpha  occ. eigenvalues --  -14.00277 -10.04998 -10.03339 -10.00073  -9.98934
 Alpha  occ. eigenvalues --   -9.98480  -9.97725  -9.96517  -9.95892  -9.95847
 Alpha  occ. eigenvalues --   -9.95691  -9.95680  -9.95590  -9.95502  -9.94588
 Alpha  occ. eigenvalues --   -9.94390  -9.93941  -9.93922  -9.93765  -9.93623
 Alpha  occ. eigenvalues --   -9.93595  -9.93239  -9.93101  -9.93019  -9.93014
 Alpha  occ. eigenvalues --   -9.92868  -9.92801  -9.92613  -9.92585  -9.92527
 Alpha  occ. eigenvalues --   -9.92345  -9.92341  -9.92241  -9.92227  -9.92193
 Alpha  occ. eigenvalues --   -9.92131  -9.92061  -9.92059  -9.91990  -9.91893
 Alpha  occ. eigenvalues --   -9.91885  -9.91847  -9.91541  -9.91514  -9.91450
 Alpha  occ. eigenvalues --   -9.91225  -9.91157  -9.91128  -9.91065  -9.90985
 Alpha  occ. eigenvalues --   -9.90958  -9.90957  -9.90922  -9.90867  -9.90376
 Alpha  occ. eigenvalues --   -9.90308  -2.90927  -1.71349  -1.70811  -1.70645
 Alpha  occ. eigenvalues --   -0.95488  -0.95214  -0.90748  -0.90405  -0.88718
 Alpha  occ. eigenvalues --   -0.87058  -0.86877  -0.86289  -0.84801  -0.83873
 Alpha  occ. eigenvalues --   -0.75337  -0.73505  -0.72844  -0.72817  -0.72589
 Alpha  occ. eigenvalues --   -0.72099  -0.71549  -0.70536  -0.70377  -0.69970
 Alpha  occ. eigenvalues --   -0.69747  -0.68642  -0.67753  -0.66877  -0.66560
 Alpha  occ. eigenvalues --   -0.66189  -0.65960  -0.65319  -0.64803  -0.64445
 Alpha  occ. eigenvalues --   -0.64006  -0.62555  -0.62347  -0.61816  -0.60700
 Alpha  occ. eigenvalues --   -0.60627  -0.60032  -0.59574  -0.59491  -0.58950
 Alpha  occ. eigenvalues --   -0.58209  -0.57525  -0.56452  -0.55600  -0.55247
 Alpha  occ. eigenvalues --   -0.53559  -0.53376  -0.52321  -0.52109  -0.51443
 Alpha  occ. eigenvalues --   -0.51187  -0.50644  -0.50457  -0.50217  -0.50067
 Alpha  occ. eigenvalues --   -0.49794  -0.49484  -0.48865  -0.48103  -0.46527
 Alpha  occ. eigenvalues --   -0.46158  -0.45992  -0.45572  -0.45012  -0.43884
 Alpha  occ. eigenvalues --   -0.43468  -0.43219  -0.42804  -0.42512  -0.42163
 Alpha  occ. eigenvalues --   -0.41755  -0.41499  -0.41156  -0.40913  -0.40757
 Alpha  occ. eigenvalues --   -0.40605  -0.40463  -0.40373  -0.40134  -0.39676
 Alpha  occ. eigenvalues --   -0.39452  -0.39282  -0.39105  -0.39054  -0.38899
 Alpha  occ. eigenvalues --   -0.38438  -0.38158  -0.38120  -0.37905  -0.37807
 Alpha  occ. eigenvalues --   -0.37799  -0.37491  -0.37437  -0.37028  -0.36875
 Alpha  occ. eigenvalues --   -0.36753  -0.36628  -0.36475  -0.36283  -0.36182
 Alpha  occ. eigenvalues --   -0.36031  -0.35921  -0.35799  -0.35730  -0.35371
 Alpha  occ. eigenvalues --   -0.35235  -0.35157  -0.35080  -0.34936  -0.34608
 Alpha  occ. eigenvalues --   -0.34513  -0.34269  -0.34120  -0.33910  -0.33831
 Alpha  occ. eigenvalues --   -0.33522  -0.33505  -0.33421  -0.33201  -0.33076
 Alpha  occ. eigenvalues --   -0.32877  -0.32589  -0.32291  -0.32047  -0.31993
 Alpha  occ. eigenvalues --   -0.31721  -0.31553  -0.31452  -0.31271  -0.31162
 Alpha  occ. eigenvalues --   -0.31087  -0.30906  -0.30793  -0.30530  -0.30335
 Alpha  occ. eigenvalues --   -0.30298  -0.30121  -0.29924  -0.29783  -0.29644
 Alpha  occ. eigenvalues --   -0.29634  -0.29237  -0.29119  -0.29060  -0.28708
 Alpha  occ. eigenvalues --   -0.28368  -0.28001  -0.27991  -0.27742  -0.27606
 Alpha  occ. eigenvalues --   -0.27506  -0.27367  -0.27004  -0.26702  -0.26537
 Alpha  occ. eigenvalues --   -0.26413  -0.26163  -0.26031  -0.25317  -0.24997
 Alpha  occ. eigenvalues --   -0.24763  -0.24680  -0.24087  -0.23606  -0.23326
 Alpha  occ. eigenvalues --   -0.22881  -0.22625  -0.21909  -0.20886  -0.20574
 Alpha  occ. eigenvalues --   -0.20539  -0.20267  -0.18898  -0.18075  -0.16890
 Alpha  occ. eigenvalues --   -0.15671
 Alpha virt. eigenvalues --   -0.11391  -0.06446  -0.05551  -0.04216  -0.04050
 Alpha virt. eigenvalues --   -0.02791  -0.02429  -0.01573  -0.01047   0.00196
 Alpha virt. eigenvalues --    0.01395   0.01797   0.02170   0.02378   0.02519

 Mulliken charges:
               1
     1  Mg   0.694379
     2  C    0.037114
     3  C   -0.087229
     4  C   -0.040272
     5  C   -0.062171
     6  N   -0.260870
     7  C   -0.094116
     8  C    0.051891
     9  C   -0.023386
    10  C    0.095570
    11  C    0.103106
    12  C    0.127470
    13  C    0.124485
    14  C    0.130449
    15  O   -0.195927
    16  O   -0.299467
    17  N   -0.362975
    18  C    0.178752
    19  C   -0.157382
    20  C    0.000812
    21  C    0.144735
    22  C    0.182446
    23  C   -0.073245
    24  O   -0.170801
    25  C    0.163775
    26  N   -0.163028
    27  C   -0.034092
    28  C   -0.006063
    29  C    0.096065
    30  C    0.014830
    31  C    0.143974
    32  C    0.060068
    33  C    0.066626
    34  N   -0.191314
    35  C    0.062241
    36  C   -0.183958
    37  C    0.116485
    38  C    0.051613
    39  C    0.161307
    40  C   -0.038479
    41  O   -0.118562
    42  C    0.044475
    43  C    0.096389
    44  O   -0.203219
    45  O   -0.291600
    46  C    0.201357
    47  C    0.293093
    48  C   -0.111383
    49  C   -0.131885
    50  C    0.141883
    51  C    0.151340
    52  C    0.072808
    53  C    0.112626
    54  C   -0.078614
    55  C    0.096291
    56  C    0.096926
    57  C    0.045630
    58  C    0.103208
    59  C   -0.101758
    60  C    0.130057
    61  C    0.136454
    62  C    0.061836
    63  C    0.106591
    64  C   -0.106961
    65  C    0.071951
    66  C    0.082942
    67  H   -0.063056
    68  H   -0.042167
    69  H   -0.060060
    70  H   -0.020344
    71  H   -0.031266
    72  H    0.000660
    73  H   -0.025375
    74  H   -0.003261
    75  H   -0.028322
    76  H   -0.004032
    77  H    0.001375
    78  H   -0.000617
    79  H   -0.009331
    80  H    0.010571
    81  H   -0.011782
    82  H   -0.019695
    83  H    0.031420
    84  H    0.002085
    85  H   -0.017922
    86  H   -0.034389
    87  H   -0.003653
    88  H   -0.004503
    89  H   -0.010025
    90  H   -0.029971
    91  H   -0.023365
    92  H   -0.012053
    93  H   -0.009884
    94  H   -0.009788
    95  H   -0.002873
    96  H   -0.003257
    97  H    0.005602
    98  H    0.019447
    99  H    0.031697
   100  H    0.020734
   101  H    0.012384
   102  H   -0.012553
   103  H    0.001569
   104  H   -0.030944
   105  H   -0.004005
   106  H    0.007263
   107  H    0.002645
   108  H   -0.020490
   109  H   -0.051982
   110  H   -0.029555
   111  H   -0.020697
   112  H   -0.039592
   113  H   -0.036442
   114  H   -0.032984
   115  H   -0.019479
   116  H   -0.033705
   117  H   -0.011665
   118  H   -0.042925
   119  H   -0.045752
   120  H   -0.021871
   121  H   -0.012463
   122  H   -0.039483
   123  H   -0.024031
   124  H   -0.032053
   125  H   -0.016636
   126  H   -0.020001
   127  H   -0.029479
   128  H   -0.031769
   129  H   -0.029194
   130  H   -0.023039
   131  H   -0.034447
   132  H   -0.039160
   133  H   -0.033729
   134  H   -0.030111
   135  H   -0.022925
   136  H   -0.012310
   137  H   -0.012246
   138  H   -0.020811
   139  H   -0.015012
   140  H    0.001792
 Sum of Mulliken charges =  -0.00000

 Dipole moment (field-independent basis, Debye):
    X=             -4.1296    Y=              4.6087    Z=             -0.1622  Tot=              6.1903
 Quadrupole moment (field-independent basis, Debye-Ang):
   XX=           -386.6873   YY=           -422.1907   ZZ=           -399.6103
   XY=              2.9032   XZ=             14.2553   YZ=             -4.7018

 Normal termination of Gaussian 16 at Thu May  5 04:35:55 2022.
