 Gaussian 16, Revision A.03,
 Gaussian 16:  ES64L-G16RevA.03 25-Dec-2016

 -----------------------------------
 #p cam-b3lyp/Def2SVP td=(nstates=5)
 -----------------------------------

 -------------------------------------------------------
 step_601_chromophore_10 TDDFT with cam-b3lyp functional
 -------------------------------------------------------
 Symbolic Z-matrix:
 Charge =  0 Multiplicity = 1

                         Standard orientation:
 ---------------------------------------------------------------------
 Center     Atomic      Atomic             Coordinates (Angstroms)
 Number     Number       Type             X           Y           Z
 ---------------------------------------------------------------------
      1         12           0        5.696614    0.486363   -0.134113
      2          6           0        3.245741   -1.915865   -0.256629
      3          6           0        3.532991    2.751410   -1.497276
      4          6           0        8.152343    2.692966    0.035056
      5          6           0        8.025320   -2.089192    0.943047
      6          7           0        3.720160    0.307443   -0.997877
      7          6           0        2.814398   -0.706706   -0.810329
      8          6           0        1.426507   -0.235163   -1.264236
      9          6           0        1.690719    1.157912   -1.936339
     10          6           0        3.121838    1.495765   -1.503102
     11          6           0        1.653421    1.084694   -3.507996
     12          6           0        0.563885   -0.131838   -0.014959
     13          6           0       -0.931075   -0.519338   -0.211342
     14          6           0       -1.414692   -1.719443    0.646756
     15          8           0       -0.677025   -2.579976    1.181087
     16          8           0       -2.824916   -1.654755    0.862931
     17          7           0        5.821872    2.388724   -0.624475
     18          6           0        4.748238    3.205626   -1.031228
     19          6           0        5.184211    4.626381   -1.021712
     20          6           0        6.558584    4.574405   -0.569733
     21          6           0        6.899644    3.206487   -0.370994
     22          6           0        4.359117    5.850090   -1.581538
     23          6           0        7.504461    5.774673   -0.218123
     24          8           0        8.679144    5.623089    0.155657
     25          6           0        6.827401    7.071319   -0.181547
     26          7           0        7.829216    0.242935    0.372283
     27          6           0        8.534728    1.372696    0.403806
     28          6           0       10.016739    1.100135    0.872944
     29          6           0        9.935696   -0.377649    1.282134
     30          6           0        8.538148   -0.780392    0.884369
     31          6           0       11.114718    1.443730   -0.174546
     32          6           0       10.285328   -0.673943    2.706656
     33          6           0        9.514113   -0.048221    3.868989
     34          7           0        5.628793   -1.588976    0.271653
     35          6           0        6.613528   -2.495886    0.679131
     36          6           0        6.023644   -3.785434    0.861347
     37          6           0        4.716391   -3.624515    0.516328
     38          6           0        4.527058   -2.241970    0.159029
     39          6           0        6.795965   -5.037760    1.316206
     40          6           0        3.426704   -4.280947    0.360531
     41          8           0        3.091439   -5.433372    0.598574
     42          6           0        2.435263   -3.134952   -0.164632
     43          6           0        1.946974   -3.395187   -1.566618
     44          8           0        2.667885   -3.781762   -2.511055
     45          8           0        0.575354   -3.435787   -1.651873
     46          6           0       -0.237987   -3.731244   -2.918857
     47          6           0       -3.419983   -2.679410    1.759667
     48          6           0       -4.965987   -2.584648    1.561529
     49          6           0       -5.686128   -3.273093    0.636678
     50          6           0       -5.070147   -4.265287   -0.358399
     51          6           0       -7.200526   -3.052495    0.488061
     52          6           0       -7.711773   -1.692032    0.040717
     53          6           0       -8.093109   -1.479109   -1.434144
     54          6           0       -9.543549   -0.924795   -1.527793
     55          6           0      -10.263101   -1.348481   -2.846803
     56          6           0       -9.619706    0.595030   -1.254706
     57          6           0      -10.598706    0.996752   -0.060176
     58          6           0       -9.919693    1.386582    1.232332
     59          6           0      -10.500403    2.761588    1.735262
     60          6           0       -9.541646    3.482196    2.665088
     61          6           0      -11.870822    2.507253    2.472141
     62          6           0      -13.025842    3.240367    1.794387
     63          6           0      -14.269321    2.282782    1.563905
     64          6           0      -14.603491    2.099080    0.087168
     65          6           0      -16.149687    2.344057   -0.244093
     66          6           0      -14.133536    0.706078   -0.571032
     67          1           0        2.738858    3.451220   -1.767445
     68          1           0        9.052810    3.309671    0.017038
     69          1           0        8.650761   -2.831829    1.442810
     70          1           0        0.986145   -0.915157   -1.992421
     71          1           0        0.898706    1.864917   -1.689763
     72          1           0        2.558714    1.499710   -3.952376
     73          1           0        0.813833    1.716543   -3.794631
     74          1           0        1.412120    0.153047   -4.019346
     75          1           0        0.545370    0.874201    0.404699
     76          1           0        1.037173   -0.749497    0.748897
     77          1           0       -1.064308   -0.833163   -1.245849
     78          1           0       -1.534562    0.376860   -0.063103
     79          1           0        3.362643    5.632816   -1.964454
     80          1           0        5.003665    6.416406   -2.254289
     81          1           0        4.160702    6.519165   -0.743809
     82          1           0        7.582424    7.797876    0.117055
     83          1           0        6.020404    7.079754    0.551292
     84          1           0        6.616083    7.282684   -1.230454
     85          1           0       10.120784    1.774331    1.722189
     86          1           0       10.657914   -1.008698    0.762660
     87          1           0       10.693309    2.107328   -0.929060
     88          1           0       11.508900    0.514327   -0.585592
     89          1           0       11.880517    2.068758    0.284525
     90          1           0       11.300235   -0.283730    2.784517
     91          1           0       10.418142   -1.741018    2.881115
     92          1           0       10.131481    0.693498    4.374491
     93          1           0        9.161112   -0.765842    4.609802
     94          1           0        8.604620    0.503336    3.632778
     95          1           0        6.207874   -5.911289    1.593978
     96          1           0        7.371266   -4.805809    2.213097
     97          1           0        7.440867   -5.405171    0.517441
     98          1           0        1.575564   -3.257720    0.494497
     99          1           0       -0.848313   -4.631240   -2.843360
    100          1           0        0.468846   -3.828820   -3.743821
    101          1           0       -0.923372   -2.958157   -3.265982
    102          1           0       -3.248366   -2.512336    2.823848
    103          1           0       -3.096307   -3.714450    1.650217
    104          1           0       -5.381395   -1.798789    2.192806
    105          1           0       -5.466223   -3.925415   -1.315194
    106          1           0       -5.438310   -5.278864   -0.199116
    107          1           0       -3.980533   -4.236031   -0.355771
    108          1           0       -7.697515   -3.351490    1.411348
    109          1           0       -7.547607   -3.802649   -0.221413
    110          1           0       -6.906080   -0.966863    0.151364
    111          1           0       -8.477978   -1.323260    0.722107
    112          1           0       -7.898376   -2.363270   -2.041645
    113          1           0       -7.474653   -0.695493   -1.869674
    114          1           0      -10.136303   -1.402636   -0.747620
    115          1           0      -11.264451   -0.963377   -3.043193
    116          1           0      -10.550242   -2.379983   -2.640189
    117          1           0       -9.669301   -1.392967   -3.759959
    118          1           0       -9.839670    1.080536   -2.205466
    119          1           0       -8.649939    1.043906   -1.043046
    120          1           0      -11.222727    0.116750    0.093894
    121          1           0      -11.249733    1.776102   -0.455482
    122          1           0       -8.859346    1.453631    0.988140
    123          1           0      -10.003554    0.674272    2.052291
    124          1           0      -10.520424    3.382136    0.839157
    125          1           0       -9.302979    4.412965    2.149794
    126          1           0       -8.734370    2.790010    2.901639
    127          1           0       -9.951328    3.776331    3.630988
    128          1           0      -11.889253    2.895396    3.490804
    129          1           0      -12.144244    1.455336    2.556309
    130          1           0      -12.833526    3.640219    0.799346
    131          1           0      -13.339464    4.056313    2.444645
    132          1           0      -15.129861    2.700974    2.086627
    133          1           0      -14.120692    1.291320    1.991515
    134          1           0      -14.102310    2.878936   -0.487544
    135          1           0      -16.546276    1.747524   -1.065187
    136          1           0      -16.345502    3.373249   -0.546070
    137          1           0      -16.746365    2.063494    0.623847
    138          1           0      -14.984772    0.268601   -1.092449
    139          1           0      -13.808367    0.005270    0.197417
    140          1           0      -13.285091    0.818185   -1.246795
 ---------------------------------------------------------------------

 SCF Done:  E(RCAM-B3LYP) =  -3007.14893538     A.U. after   19 cycles

 Excitation energies and oscillator strengths:

 Excited State   1:      Singlet-A      1.7025 eV  728.24 nm  f=0.3959  <S**2>=0.000
     245 -> 248       -0.17848
     246 -> 247        0.68519
     245 <- 248       -0.10825
 This state for optimization and/or second-order correction.
 Total Energy, E(TD-HF/TD-DFT) =  -3007.08636879
 Copying the excited state density for this state as the 1-particle RhoCI density.

 Excited State   2:      Singlet-A      2.2067 eV  561.86 nm  f=0.1434  <S**2>=0.000
     245 -> 247        0.64889
     246 -> 248        0.26647

 Excited State   3:      Singlet-A      3.3149 eV  374.02 nm  f=0.0086  <S**2>=0.000
     242 -> 247        0.13718
     243 -> 247        0.26100
     243 -> 249       -0.14059
     243 -> 250       -0.13271
     244 -> 247        0.52493
     244 -> 249       -0.14631
     244 -> 250       -0.13084
     246 -> 248       -0.13257

 Excited State   4:      Singlet-A      3.4731 eV  356.98 nm  f=0.0041  <S**2>=0.000
     242 -> 247        0.19341
     243 -> 247        0.54717
     244 -> 247       -0.35997

 Excited State   5:      Singlet-A      3.5732 eV  346.99 nm  f=0.2552  <S**2>=0.000
     241 -> 247        0.11022
     242 -> 247        0.41612
     243 -> 247       -0.16709
     245 -> 247       -0.15872
     246 -> 248        0.48129

 The electronic state is 1-A.
 Alpha  occ. eigenvalues --  -46.87616 -19.25007 -19.24501 -19.20744 -19.19150
 Alpha  occ. eigenvalues --  -19.18348 -19.18308 -14.41720 -14.41445 -14.39528
 Alpha  occ. eigenvalues --  -14.38701 -10.40519 -10.38868 -10.35304 -10.34283
 Alpha  occ. eigenvalues --  -10.32784 -10.31854 -10.31129 -10.30264 -10.30244
 Alpha  occ. eigenvalues --  -10.30020 -10.29984 -10.29923 -10.29752 -10.29129
 Alpha  occ. eigenvalues --  -10.28446 -10.27920 -10.27904 -10.27856 -10.27853
 Alpha  occ. eigenvalues --  -10.27774 -10.27513 -10.27246 -10.27128 -10.26979
 Alpha  occ. eigenvalues --  -10.26920 -10.26917 -10.26862 -10.26714 -10.26254
 Alpha  occ. eigenvalues --  -10.26140 -10.26137 -10.26121 -10.26003 -10.25977
 Alpha  occ. eigenvalues --  -10.25965 -10.25919 -10.25864 -10.25810 -10.25751
 Alpha  occ. eigenvalues --  -10.25600 -10.25564 -10.25207 -10.25137 -10.25003
 Alpha  occ. eigenvalues --  -10.24913 -10.24855 -10.24779 -10.24719 -10.24637
 Alpha  occ. eigenvalues --  -10.24616 -10.24578 -10.24574 -10.24501 -10.24445
 Alpha  occ. eigenvalues --  -10.23923  -3.16302  -1.91198  -1.90754  -1.90625
 Alpha  occ. eigenvalues --   -1.13851  -1.13709  -1.09098  -1.08774  -1.06488
 Alpha  occ. eigenvalues --   -1.04916  -1.04658  -1.03953  -1.02370  -1.01321
 Alpha  occ. eigenvalues --   -0.92485  -0.90339  -0.89603  -0.89521  -0.89366
 Alpha  occ. eigenvalues --   -0.88743  -0.88205  -0.87117  -0.86916  -0.86578
 Alpha  occ. eigenvalues --   -0.86373  -0.84972  -0.83960  -0.83005  -0.82696
 Alpha  occ. eigenvalues --   -0.82290  -0.82024  -0.81241  -0.80612  -0.80269
 Alpha  occ. eigenvalues --   -0.79768  -0.78227  -0.78012  -0.77329  -0.76138
 Alpha  occ. eigenvalues --   -0.76033  -0.75312  -0.74894  -0.74771  -0.74188
 Alpha  occ. eigenvalues --   -0.73280  -0.72501  -0.71317  -0.70297  -0.69989
 Alpha  occ. eigenvalues --   -0.68114  -0.67934  -0.66681  -0.66484  -0.65722
 Alpha  occ. eigenvalues --   -0.65331  -0.64732  -0.64421  -0.64279  -0.63974
 Alpha  occ. eigenvalues --   -0.63778  -0.63180  -0.62780  -0.61764  -0.60080
 Alpha  occ. eigenvalues --   -0.59795  -0.59490  -0.59019  -0.58319  -0.57216
 Alpha  occ. eigenvalues --   -0.56793  -0.56716  -0.55936  -0.55574  -0.55074
 Alpha  occ. eigenvalues --   -0.54841  -0.54203  -0.53966  -0.53870  -0.53703
 Alpha  occ. eigenvalues --   -0.53483  -0.53329  -0.53206  -0.52883  -0.52506
 Alpha  occ. eigenvalues --   -0.52335  -0.51956  -0.51729  -0.51656  -0.51346
 Alpha  occ. eigenvalues --   -0.50858  -0.50703  -0.50528  -0.50427  -0.50258
 Alpha  occ. eigenvalues --   -0.49997  -0.49850  -0.49724  -0.49533  -0.49137
 Alpha  occ. eigenvalues --   -0.49106  -0.48912  -0.48713  -0.48633  -0.48584
 Alpha  occ. eigenvalues --   -0.48463  -0.48261  -0.47961  -0.47769  -0.47629
 Alpha  occ. eigenvalues --   -0.47369  -0.47211  -0.47061  -0.46975  -0.46633
 Alpha  occ. eigenvalues --   -0.46395  -0.46119  -0.45914  -0.45719  -0.45537
 Alpha  occ. eigenvalues --   -0.45441  -0.45269  -0.45101  -0.44984  -0.44789
 Alpha  occ. eigenvalues --   -0.44730  -0.44329  -0.44189  -0.43742  -0.43606
 Alpha  occ. eigenvalues --   -0.43555  -0.43143  -0.42968  -0.42850  -0.42750
 Alpha  occ. eigenvalues --   -0.42592  -0.42359  -0.42025  -0.41991  -0.41781
 Alpha  occ. eigenvalues --   -0.41689  -0.41480  -0.41218  -0.41005  -0.40778
 Alpha  occ. eigenvalues --   -0.40744  -0.40601  -0.40350  -0.40210  -0.39805
 Alpha  occ. eigenvalues --   -0.39703  -0.39432  -0.38976  -0.38918  -0.38615
 Alpha  occ. eigenvalues --   -0.38408  -0.38248  -0.37768  -0.37660  -0.37426
 Alpha  occ. eigenvalues --   -0.37254  -0.36927  -0.36702  -0.36311  -0.36062
 Alpha  occ. eigenvalues --   -0.35756  -0.35472  -0.35148  -0.34712  -0.34011
 Alpha  occ. eigenvalues --   -0.33746  -0.33129  -0.32520  -0.31323  -0.30822
 Alpha  occ. eigenvalues --   -0.30304  -0.30278  -0.29962  -0.29629  -0.23664
 Alpha  occ. eigenvalues --   -0.20965
 Alpha virt. eigenvalues --   -0.08562  -0.01134   0.01075   0.02906   0.03345
 Alpha virt. eigenvalues --    0.03780   0.04754   0.05249   0.06137   0.06816
 Alpha virt. eigenvalues --    0.07810   0.08382   0.08592   0.08690   0.09054

 Mulliken charges:
               1
     1  Mg   0.829661
     2  C   -0.003520
     3  C   -0.092963
     4  C   -0.054431
     5  C   -0.060674
     6  N   -0.330592
     7  C   -0.050364
     8  C    0.004409
     9  C   -0.074306
    10  C    0.099586
    11  C    0.050150
    12  C    0.070334
    13  C    0.058202
    14  C    0.213153
    15  O   -0.239939
    16  O   -0.364934
    17  N   -0.452315
    18  C    0.181770
    19  C   -0.161832
    20  C   -0.067474
    21  C    0.162448
    22  C    0.127308
    23  C    0.015709
    24  O   -0.212161
    25  C    0.069331
    26  N   -0.233368
    27  C   -0.013008
    28  C   -0.062089
    29  C    0.035348
    30  C    0.028143
    31  C    0.084938
    32  C    0.009195
    33  C    0.000956
    34  N   -0.283188
    35  C    0.067035
    36  C   -0.181803
    37  C    0.035619
    38  C    0.094669
    39  C    0.111834
    40  C    0.066025
    41  O   -0.158187
    42  C   -0.027254
    43  C    0.186456
    44  O   -0.241203
    45  O   -0.358793
    46  C    0.171540
    47  C    0.260505
    48  C   -0.130688
    49  C   -0.153895
    50  C    0.082384
    51  C    0.092941
    52  C    0.015698
    53  C    0.062070
    54  C   -0.134702
    55  C    0.039082
    56  C    0.044041
    57  C   -0.005390
    58  C    0.050777
    59  C   -0.157271
    60  C    0.072038
    61  C    0.081282
    62  C    0.008243
    63  C    0.051101
    64  C   -0.167952
    65  C    0.017984
    66  C    0.032089
    67  H   -0.028405
    68  H   -0.002934
    69  H   -0.025225
    70  H    0.010902
    71  H    0.003216
    72  H    0.027069
    73  H   -0.001601
    74  H    0.020176
    75  H    0.004274
    76  H    0.030901
    77  H    0.029843
    78  H    0.034267
    79  H    0.018220
    80  H    0.034330
    81  H    0.013794
    82  H    0.017617
    83  H    0.059394
    84  H    0.029744
    85  H    0.017022
    86  H    0.002936
    87  H    0.021181
    88  H    0.019573
    89  H    0.014897
    90  H   -0.000067
    91  H    0.004662
    92  H    0.012022
    93  H    0.015261
    94  H    0.013380
    95  H    0.026731
    96  H    0.020208
    97  H    0.032081
    98  H    0.063168
    99  H    0.053629
   100  H    0.048327
   101  H    0.030859
   102  H    0.015557
   103  H    0.029617
   104  H    0.001364
   105  H    0.017070
   106  H    0.031188
   107  H    0.025097
   108  H    0.011103
   109  H   -0.020286
   110  H    0.000162
   111  H    0.005400
   112  H   -0.011448
   113  H   -0.006978
   114  H   -0.001879
   115  H    0.005038
   116  H   -0.008838
   117  H    0.012042
   118  H   -0.011693
   119  H   -0.016798
   120  H    0.002331
   121  H    0.011331
   122  H   -0.011167
   123  H    0.002786
   124  H   -0.000225
   125  H    0.007290
   126  H    0.004448
   127  H   -0.004328
   128  H   -0.002163
   129  H   -0.002456
   130  H    0.002092
   131  H   -0.004405
   132  H   -0.007998
   133  H   -0.006637
   134  H    0.000688
   135  H    0.001014
   136  H    0.011177
   137  H    0.009836
   138  H    0.003934
   139  H    0.005572
   140  H    0.019950
 Sum of Mulliken charges =  -0.00000

 Dipole moment (field-independent basis, Debye):
    X=             -4.3117    Y=              4.9440    Z=             -0.2703  Tot=              6.5656
 Quadrupole moment (field-independent basis, Debye-Ang):
   XX=           -385.8292   YY=           -418.4680   ZZ=           -398.7397
   XY=              4.4377   XZ=             16.0309   YZ=             -4.9782

 Normal termination of Gaussian 16 at Thu May  5 03:36:53 2022.
