 Gaussian 16, Revision A.03,
 Gaussian 16:  ES64L-G16RevA.03 25-Dec-2016

 ---------------------------------
 #p PBE1PBE/Def2SVP td=(nstates=5)
 ---------------------------------

 -----------------------------------------------------
 step_601_chromophore_10 TDDFT with PBE1PBE functional
 -----------------------------------------------------
 Symbolic Z-matrix:
 Charge =  0 Multiplicity = 1

                         Standard orientation:
 ---------------------------------------------------------------------
 Center     Atomic      Atomic             Coordinates (Angstroms)
 Number     Number       Type             X           Y           Z
 ---------------------------------------------------------------------
      1         12           0        5.696614    0.486363   -0.134113
      2          6           0        3.245741   -1.915865   -0.256629
      3          6           0        3.532991    2.751410   -1.497276
      4          6           0        8.152343    2.692966    0.035056
      5          6           0        8.025320   -2.089192    0.943047
      6          7           0        3.720160    0.307443   -0.997877
      7          6           0        2.814398   -0.706706   -0.810329
      8          6           0        1.426507   -0.235163   -1.264236
      9          6           0        1.690719    1.157912   -1.936339
     10          6           0        3.121838    1.495765   -1.503102
     11          6           0        1.653421    1.084694   -3.507996
     12          6           0        0.563885   -0.131838   -0.014959
     13          6           0       -0.931075   -0.519338   -0.211342
     14          6           0       -1.414692   -1.719443    0.646756
     15          8           0       -0.677025   -2.579976    1.181087
     16          8           0       -2.824916   -1.654755    0.862931
     17          7           0        5.821872    2.388724   -0.624475
     18          6           0        4.748238    3.205626   -1.031228
     19          6           0        5.184211    4.626381   -1.021712
     20          6           0        6.558584    4.574405   -0.569733
     21          6           0        6.899644    3.206487   -0.370994
     22          6           0        4.359117    5.850090   -1.581538
     23          6           0        7.504461    5.774673   -0.218123
     24          8           0        8.679144    5.623089    0.155657
     25          6           0        6.827401    7.071319   -0.181547
     26          7           0        7.829216    0.242935    0.372283
     27          6           0        8.534728    1.372696    0.403806
     28          6           0       10.016739    1.100135    0.872944
     29          6           0        9.935696   -0.377649    1.282134
     30          6           0        8.538148   -0.780392    0.884369
     31          6           0       11.114718    1.443730   -0.174546
     32          6           0       10.285328   -0.673943    2.706656
     33          6           0        9.514113   -0.048221    3.868989
     34          7           0        5.628793   -1.588976    0.271653
     35          6           0        6.613528   -2.495886    0.679131
     36          6           0        6.023644   -3.785434    0.861347
     37          6           0        4.716391   -3.624515    0.516328
     38          6           0        4.527058   -2.241970    0.159029
     39          6           0        6.795965   -5.037760    1.316206
     40          6           0        3.426704   -4.280947    0.360531
     41          8           0        3.091439   -5.433372    0.598574
     42          6           0        2.435263   -3.134952   -0.164632
     43          6           0        1.946974   -3.395187   -1.566618
     44          8           0        2.667885   -3.781762   -2.511055
     45          8           0        0.575354   -3.435787   -1.651873
     46          6           0       -0.237987   -3.731244   -2.918857
     47          6           0       -3.419983   -2.679410    1.759667
     48          6           0       -4.965987   -2.584648    1.561529
     49          6           0       -5.686128   -3.273093    0.636678
     50          6           0       -5.070147   -4.265287   -0.358399
     51          6           0       -7.200526   -3.052495    0.488061
     52          6           0       -7.711773   -1.692032    0.040717
     53          6           0       -8.093109   -1.479109   -1.434144
     54          6           0       -9.543549   -0.924795   -1.527793
     55          6           0      -10.263101   -1.348481   -2.846803
     56          6           0       -9.619706    0.595030   -1.254706
     57          6           0      -10.598706    0.996752   -0.060176
     58          6           0       -9.919693    1.386582    1.232332
     59          6           0      -10.500403    2.761588    1.735262
     60          6           0       -9.541646    3.482196    2.665088
     61          6           0      -11.870822    2.507253    2.472141
     62          6           0      -13.025842    3.240367    1.794387
     63          6           0      -14.269321    2.282782    1.563905
     64          6           0      -14.603491    2.099080    0.087168
     65          6           0      -16.149687    2.344057   -0.244093
     66          6           0      -14.133536    0.706078   -0.571032
     67          1           0        2.738858    3.451220   -1.767445
     68          1           0        9.052810    3.309671    0.017038
     69          1           0        8.650761   -2.831829    1.442810
     70          1           0        0.986145   -0.915157   -1.992421
     71          1           0        0.898706    1.864917   -1.689763
     72          1           0        2.558714    1.499710   -3.952376
     73          1           0        0.813833    1.716543   -3.794631
     74          1           0        1.412120    0.153047   -4.019346
     75          1           0        0.545370    0.874201    0.404699
     76          1           0        1.037173   -0.749497    0.748897
     77          1           0       -1.064308   -0.833163   -1.245849
     78          1           0       -1.534562    0.376860   -0.063103
     79          1           0        3.362643    5.632816   -1.964454
     80          1           0        5.003665    6.416406   -2.254289
     81          1           0        4.160702    6.519165   -0.743809
     82          1           0        7.582424    7.797876    0.117055
     83          1           0        6.020404    7.079754    0.551292
     84          1           0        6.616083    7.282684   -1.230454
     85          1           0       10.120784    1.774331    1.722189
     86          1           0       10.657914   -1.008698    0.762660
     87          1           0       10.693309    2.107328   -0.929060
     88          1           0       11.508900    0.514327   -0.585592
     89          1           0       11.880517    2.068758    0.284525
     90          1           0       11.300235   -0.283730    2.784517
     91          1           0       10.418142   -1.741018    2.881115
     92          1           0       10.131481    0.693498    4.374491
     93          1           0        9.161112   -0.765842    4.609802
     94          1           0        8.604620    0.503336    3.632778
     95          1           0        6.207874   -5.911289    1.593978
     96          1           0        7.371266   -4.805809    2.213097
     97          1           0        7.440867   -5.405171    0.517441
     98          1           0        1.575564   -3.257720    0.494497
     99          1           0       -0.848313   -4.631240   -2.843360
    100          1           0        0.468846   -3.828820   -3.743821
    101          1           0       -0.923372   -2.958157   -3.265982
    102          1           0       -3.248366   -2.512336    2.823848
    103          1           0       -3.096307   -3.714450    1.650217
    104          1           0       -5.381395   -1.798789    2.192806
    105          1           0       -5.466223   -3.925415   -1.315194
    106          1           0       -5.438310   -5.278864   -0.199116
    107          1           0       -3.980533   -4.236031   -0.355771
    108          1           0       -7.697515   -3.351490    1.411348
    109          1           0       -7.547607   -3.802649   -0.221413
    110          1           0       -6.906080   -0.966863    0.151364
    111          1           0       -8.477978   -1.323260    0.722107
    112          1           0       -7.898376   -2.363270   -2.041645
    113          1           0       -7.474653   -0.695493   -1.869674
    114          1           0      -10.136303   -1.402636   -0.747620
    115          1           0      -11.264451   -0.963377   -3.043193
    116          1           0      -10.550242   -2.379983   -2.640189
    117          1           0       -9.669301   -1.392967   -3.759959
    118          1           0       -9.839670    1.080536   -2.205466
    119          1           0       -8.649939    1.043906   -1.043046
    120          1           0      -11.222727    0.116750    0.093894
    121          1           0      -11.249733    1.776102   -0.455482
    122          1           0       -8.859346    1.453631    0.988140
    123          1           0      -10.003554    0.674272    2.052291
    124          1           0      -10.520424    3.382136    0.839157
    125          1           0       -9.302979    4.412965    2.149794
    126          1           0       -8.734370    2.790010    2.901639
    127          1           0       -9.951328    3.776331    3.630988
    128          1           0      -11.889253    2.895396    3.490804
    129          1           0      -12.144244    1.455336    2.556309
    130          1           0      -12.833526    3.640219    0.799346
    131          1           0      -13.339464    4.056313    2.444645
    132          1           0      -15.129861    2.700974    2.086627
    133          1           0      -14.120692    1.291320    1.991515
    134          1           0      -14.102310    2.878936   -0.487544
    135          1           0      -16.546276    1.747524   -1.065187
    136          1           0      -16.345502    3.373249   -0.546070
    137          1           0      -16.746365    2.063494    0.623847
    138          1           0      -14.984772    0.268601   -1.092449
    139          1           0      -13.808367    0.005270    0.197417
    140          1           0      -13.285091    0.818185   -1.246795
 ---------------------------------------------------------------------

 SCF Done:  E(RPBE1PBE) =  -3005.33540867     A.U. after   16 cycles

 Excitation energies and oscillator strengths:

 Excited State   1:      Singlet-A      1.8664 eV  664.30 nm  f=0.3868  <S**2>=0.000
     245 -> 248       -0.17084
     246 -> 247        0.69216
     246 <- 247       -0.11013
 This state for optimization and/or second-order correction.
 Total Energy, E(TD-HF/TD-DFT) =  -3005.26681996
 Copying the excited state density for this state as the 1-particle RhoCI density.

 Excited State   2:      Singlet-A      2.2084 eV  561.41 nm  f=0.1351  <S**2>=0.000
     245 -> 247        0.65790
     246 -> 248        0.23914

 Excited State   3:      Singlet-A      2.8242 eV  439.01 nm  f=0.0005  <S**2>=0.000
     244 -> 247        0.67260
     244 -> 249       -0.11651
     244 -> 250       -0.10177

 Excited State   4:      Singlet-A      3.1310 eV  395.99 nm  f=0.0016  <S**2>=0.000
     242 -> 247        0.12750
     243 -> 247        0.67130

 Excited State   5:      Singlet-A      3.1941 eV  388.17 nm  f=0.0045  <S**2>=0.000
     240 -> 247        0.35479
     241 -> 247        0.55524
     243 -> 247       -0.12473

 The electronic state is 1-A.
 Alpha  occ. eigenvalues --  -46.91023 -19.25683 -19.25092 -19.20986 -19.19408
 Alpha  occ. eigenvalues --  -19.18560 -19.18510 -14.41311 -14.40907 -14.39249
 Alpha  occ. eigenvalues --  -14.38304 -10.37540 -10.35888 -10.32474 -10.31428
 Alpha  occ. eigenvalues --  -10.29960 -10.29240 -10.28830 -10.28051 -10.27930
 Alpha  occ. eigenvalues --  -10.27802 -10.27727 -10.27693 -10.27504 -10.26977
 Alpha  occ. eigenvalues --  -10.25918 -10.25753 -10.25639 -10.25483 -10.25448
 Alpha  occ. eigenvalues --  -10.25357 -10.25105 -10.24966 -10.24866 -10.24807
 Alpha  occ. eigenvalues --  -10.24714 -10.24658 -10.24543 -10.24320 -10.23834
 Alpha  occ. eigenvalues --  -10.23758 -10.23693 -10.23655 -10.23630 -10.23617
 Alpha  occ. eigenvalues --  -10.23459 -10.23451 -10.23383 -10.23290 -10.23260
 Alpha  occ. eigenvalues --  -10.23244 -10.23117 -10.22772 -10.22681 -10.22461
 Alpha  occ. eigenvalues --  -10.22438 -10.22399 -10.22349 -10.22294 -10.22191
 Alpha  occ. eigenvalues --  -10.22148 -10.22111 -10.22024 -10.21983 -10.21919
 Alpha  occ. eigenvalues --  -10.21310  -3.13287  -1.86125  -1.85658  -1.85533
 Alpha  occ. eigenvalues --   -1.08580  -1.08409  -1.03842  -1.03503  -1.01306
 Alpha  occ. eigenvalues --   -0.99649  -0.99323  -0.98600  -0.96999  -0.95980
 Alpha  occ. eigenvalues --   -0.86834  -0.84429  -0.83823  -0.83723  -0.83555
 Alpha  occ. eigenvalues --   -0.83140  -0.82321  -0.81436  -0.81027  -0.80898
 Alpha  occ. eigenvalues --   -0.80640  -0.79211  -0.78127  -0.77245  -0.76963
 Alpha  occ. eigenvalues --   -0.76464  -0.76295  -0.75478  -0.74838  -0.74482
 Alpha  occ. eigenvalues --   -0.73998  -0.72543  -0.72244  -0.71620  -0.70427
 Alpha  occ. eigenvalues --   -0.70183  -0.69672  -0.68983  -0.68911  -0.68357
 Alpha  occ. eigenvalues --   -0.67725  -0.66813  -0.65736  -0.64634  -0.64318
 Alpha  occ. eigenvalues --   -0.62521  -0.62234  -0.60981  -0.60853  -0.59899
 Alpha  occ. eigenvalues --   -0.59896  -0.59211  -0.58920  -0.58527  -0.58385
 Alpha  occ. eigenvalues --   -0.57929  -0.57690  -0.56989  -0.56327  -0.54700
 Alpha  occ. eigenvalues --   -0.54277  -0.54077  -0.53461  -0.52942  -0.51836
 Alpha  occ. eigenvalues --   -0.51234  -0.51155  -0.50549  -0.49941  -0.49596
 Alpha  occ. eigenvalues --   -0.49391  -0.48606  -0.48413  -0.48298  -0.48132
 Alpha  occ. eigenvalues --   -0.47964  -0.47778  -0.47728  -0.47338  -0.47127
 Alpha  occ. eigenvalues --   -0.47019  -0.46527  -0.46269  -0.46181  -0.45845
 Alpha  occ. eigenvalues --   -0.45409  -0.45251  -0.45067  -0.44972  -0.44883
 Alpha  occ. eigenvalues --   -0.44527  -0.44470  -0.44306  -0.44109  -0.43780
 Alpha  occ. eigenvalues --   -0.43702  -0.43448  -0.43335  -0.43182  -0.43132
 Alpha  occ. eigenvalues --   -0.43064  -0.42847  -0.42605  -0.42363  -0.42271
 Alpha  occ. eigenvalues --   -0.41995  -0.41869  -0.41801  -0.41572  -0.41256
 Alpha  occ. eigenvalues --   -0.41075  -0.40881  -0.40532  -0.40418  -0.40178
 Alpha  occ. eigenvalues --   -0.40106  -0.40017  -0.39764  -0.39727  -0.39444
 Alpha  occ. eigenvalues --   -0.39436  -0.39085  -0.38898  -0.38571  -0.38426
 Alpha  occ. eigenvalues --   -0.38319  -0.37981  -0.37707  -0.37604  -0.37543
 Alpha  occ. eigenvalues --   -0.37364  -0.37172  -0.36846  -0.36820  -0.36607
 Alpha  occ. eigenvalues --   -0.36369  -0.36333  -0.36079  -0.35770  -0.35644
 Alpha  occ. eigenvalues --   -0.35524  -0.35460  -0.35254  -0.35010  -0.34603
 Alpha  occ. eigenvalues --   -0.34451  -0.34377  -0.33872  -0.33719  -0.33528
 Alpha  occ. eigenvalues --   -0.33247  -0.33000  -0.32657  -0.32600  -0.32206
 Alpha  occ. eigenvalues --   -0.32098  -0.31997  -0.31542  -0.31222  -0.31106
 Alpha  occ. eigenvalues --   -0.30650  -0.30416  -0.30064  -0.29500  -0.28969
 Alpha  occ. eigenvalues --   -0.28933  -0.28432  -0.27567  -0.26649  -0.25963
 Alpha  occ. eigenvalues --   -0.25788  -0.25587  -0.25456  -0.24723  -0.20608
 Alpha  occ. eigenvalues --   -0.18605
 Alpha virt. eigenvalues --   -0.11002  -0.04682  -0.03206  -0.01548  -0.00818
 Alpha virt. eigenvalues --    0.00249   0.00607   0.00680   0.01786   0.03139
 Alpha virt. eigenvalues --    0.04307   0.04633   0.05052   0.05293   0.05496

 Mulliken charges:
               1
     1  Mg   0.982665
     2  C   -0.030270
     3  C   -0.072684
     4  C   -0.043437
     5  C   -0.046059
     6  N   -0.431724
     7  C    0.032376
     8  C   -0.072963
     9  C   -0.150716
    10  C    0.119283
    11  C    0.001158
    12  C    0.027641
    13  C   -0.018670
    14  C    0.274808
    15  O   -0.272198
    16  O   -0.392458
    17  N   -0.570007
    18  C    0.196845
    19  C   -0.177495
    20  C   -0.112776
    21  C    0.189382
    22  C    0.062183
    23  C    0.068767
    24  O   -0.249885
    25  C   -0.009610
    26  N   -0.342171
    27  C    0.023029
    28  C   -0.133858
    29  C   -0.046951
    30  C    0.068221
    31  C    0.025788
    32  C   -0.052002
    33  C   -0.068038
    34  N   -0.418335
    35  C    0.087559
    36  C   -0.201736
    37  C   -0.024454
    38  C    0.158662
    39  C    0.060807
    40  C    0.173466
    41  O   -0.205187
    42  C   -0.131329
    43  C    0.275202
    44  O   -0.274555
    45  O   -0.390563
    46  C    0.118276
    47  C    0.215492
    48  C   -0.138301
    49  C   -0.194040
    50  C    0.012716
    51  C    0.032532
    52  C   -0.049364
    53  C    0.009482
    54  C   -0.226170
    55  C   -0.021710
    56  C   -0.001239
    57  C   -0.070199
    58  C   -0.005982
    59  C   -0.246500
    60  C    0.016107
    61  C    0.030114
    62  C   -0.054072
    63  C   -0.000966
    64  C   -0.258490
    65  C   -0.042830
    66  C   -0.028915
    67  H    0.003212
    68  H    0.028278
    69  H    0.005648
    70  H    0.052106
    71  H    0.038314
    72  H    0.054611
    73  H    0.026170
    74  H    0.046345
    75  H    0.036465
    76  H    0.064418
    77  H    0.062973
    78  H    0.064478
    79  H    0.045346
    80  H    0.062622
    81  H    0.042900
    82  H    0.046429
    83  H    0.085442
    84  H    0.057994
    85  H    0.054472
    86  H    0.040243
    87  H    0.048682
    88  H    0.046877
    89  H    0.042646
    90  H    0.034783
    91  H    0.036331
    92  H    0.038892
    93  H    0.042993
    94  H    0.042058
    95  H    0.053829
    96  H    0.046125
    97  H    0.059239
    98  H    0.101697
    99  H    0.074154
   100  H    0.067867
   101  H    0.050630
   102  H    0.042930
   103  H    0.055014
   104  H    0.030241
   105  H    0.046627
   106  H    0.059051
   107  H    0.052396
   108  H    0.043792
   109  H    0.012727
   110  H    0.033386
   111  H    0.039824
   112  H    0.019578
   113  H    0.026767
   114  H    0.036381
   115  H    0.033006
   116  H    0.020276
   117  H    0.039380
   118  H    0.020866
   119  H    0.014452
   120  H    0.036344
   121  H    0.044240
   122  H    0.021668
   123  H    0.034044
   124  H    0.036553
   125  H    0.034443
   126  H    0.031430
   127  H    0.022955
   128  H    0.029885
   129  H    0.028280
   130  H    0.032774
   131  H    0.028805
   132  H    0.024866
   133  H    0.024622
   134  H    0.038540
   135  H    0.027934
   136  H    0.038773
   137  H    0.037082
   138  H    0.031373
   139  H    0.031717
   140  H    0.048067
 Sum of Mulliken charges =  -0.00000

 Dipole moment (field-independent basis, Debye):
    X=             -4.2482    Y=              5.0698    Z=             -0.2834  Tot=              6.6204
 Quadrupole moment (field-independent basis, Debye-Ang):
   XX=           -379.5185   YY=           -415.5612   ZZ=           -396.0007
   XY=              4.4125   XZ=             16.9489   YZ=             -5.2264

 Normal termination of Gaussian 16 at Thu May  5 03:53:58 2022.
