 Gaussian 16, Revision A.03,
 Gaussian 16:  ES64L-G16RevA.03 25-Dec-2016

 --------------------------------
 #p wB97XD/Def2SVP td=(nstates=5)
 --------------------------------

 ----------------------------------------------------
 step_601_chromophore_10 TDDFT with wB97XD functional
 ----------------------------------------------------
 Symbolic Z-matrix:
 Charge =  0 Multiplicity = 1

                         Standard orientation:
 ---------------------------------------------------------------------
 Center     Atomic      Atomic             Coordinates (Angstroms)
 Number     Number       Type             X           Y           Z
 ---------------------------------------------------------------------
      1         12           0        5.696614    0.486363   -0.134113
      2          6           0        3.245741   -1.915865   -0.256629
      3          6           0        3.532991    2.751410   -1.497276
      4          6           0        8.152343    2.692966    0.035056
      5          6           0        8.025320   -2.089192    0.943047
      6          7           0        3.720160    0.307443   -0.997877
      7          6           0        2.814398   -0.706706   -0.810329
      8          6           0        1.426507   -0.235163   -1.264236
      9          6           0        1.690719    1.157912   -1.936339
     10          6           0        3.121838    1.495765   -1.503102
     11          6           0        1.653421    1.084694   -3.507996
     12          6           0        0.563885   -0.131838   -0.014959
     13          6           0       -0.931075   -0.519338   -0.211342
     14          6           0       -1.414692   -1.719443    0.646756
     15          8           0       -0.677025   -2.579976    1.181087
     16          8           0       -2.824916   -1.654755    0.862931
     17          7           0        5.821872    2.388724   -0.624475
     18          6           0        4.748238    3.205626   -1.031228
     19          6           0        5.184211    4.626381   -1.021712
     20          6           0        6.558584    4.574405   -0.569733
     21          6           0        6.899644    3.206487   -0.370994
     22          6           0        4.359117    5.850090   -1.581538
     23          6           0        7.504461    5.774673   -0.218123
     24          8           0        8.679144    5.623089    0.155657
     25          6           0        6.827401    7.071319   -0.181547
     26          7           0        7.829216    0.242935    0.372283
     27          6           0        8.534728    1.372696    0.403806
     28          6           0       10.016739    1.100135    0.872944
     29          6           0        9.935696   -0.377649    1.282134
     30          6           0        8.538148   -0.780392    0.884369
     31          6           0       11.114718    1.443730   -0.174546
     32          6           0       10.285328   -0.673943    2.706656
     33          6           0        9.514113   -0.048221    3.868989
     34          7           0        5.628793   -1.588976    0.271653
     35          6           0        6.613528   -2.495886    0.679131
     36          6           0        6.023644   -3.785434    0.861347
     37          6           0        4.716391   -3.624515    0.516328
     38          6           0        4.527058   -2.241970    0.159029
     39          6           0        6.795965   -5.037760    1.316206
     40          6           0        3.426704   -4.280947    0.360531
     41          8           0        3.091439   -5.433372    0.598574
     42          6           0        2.435263   -3.134952   -0.164632
     43          6           0        1.946974   -3.395187   -1.566618
     44          8           0        2.667885   -3.781762   -2.511055
     45          8           0        0.575354   -3.435787   -1.651873
     46          6           0       -0.237987   -3.731244   -2.918857
     47          6           0       -3.419983   -2.679410    1.759667
     48          6           0       -4.965987   -2.584648    1.561529
     49          6           0       -5.686128   -3.273093    0.636678
     50          6           0       -5.070147   -4.265287   -0.358399
     51          6           0       -7.200526   -3.052495    0.488061
     52          6           0       -7.711773   -1.692032    0.040717
     53          6           0       -8.093109   -1.479109   -1.434144
     54          6           0       -9.543549   -0.924795   -1.527793
     55          6           0      -10.263101   -1.348481   -2.846803
     56          6           0       -9.619706    0.595030   -1.254706
     57          6           0      -10.598706    0.996752   -0.060176
     58          6           0       -9.919693    1.386582    1.232332
     59          6           0      -10.500403    2.761588    1.735262
     60          6           0       -9.541646    3.482196    2.665088
     61          6           0      -11.870822    2.507253    2.472141
     62          6           0      -13.025842    3.240367    1.794387
     63          6           0      -14.269321    2.282782    1.563905
     64          6           0      -14.603491    2.099080    0.087168
     65          6           0      -16.149687    2.344057   -0.244093
     66          6           0      -14.133536    0.706078   -0.571032
     67          1           0        2.738858    3.451220   -1.767445
     68          1           0        9.052810    3.309671    0.017038
     69          1           0        8.650761   -2.831829    1.442810
     70          1           0        0.986145   -0.915157   -1.992421
     71          1           0        0.898706    1.864917   -1.689763
     72          1           0        2.558714    1.499710   -3.952376
     73          1           0        0.813833    1.716543   -3.794631
     74          1           0        1.412120    0.153047   -4.019346
     75          1           0        0.545370    0.874201    0.404699
     76          1           0        1.037173   -0.749497    0.748897
     77          1           0       -1.064308   -0.833163   -1.245849
     78          1           0       -1.534562    0.376860   -0.063103
     79          1           0        3.362643    5.632816   -1.964454
     80          1           0        5.003665    6.416406   -2.254289
     81          1           0        4.160702    6.519165   -0.743809
     82          1           0        7.582424    7.797876    0.117055
     83          1           0        6.020404    7.079754    0.551292
     84          1           0        6.616083    7.282684   -1.230454
     85          1           0       10.120784    1.774331    1.722189
     86          1           0       10.657914   -1.008698    0.762660
     87          1           0       10.693309    2.107328   -0.929060
     88          1           0       11.508900    0.514327   -0.585592
     89          1           0       11.880517    2.068758    0.284525
     90          1           0       11.300235   -0.283730    2.784517
     91          1           0       10.418142   -1.741018    2.881115
     92          1           0       10.131481    0.693498    4.374491
     93          1           0        9.161112   -0.765842    4.609802
     94          1           0        8.604620    0.503336    3.632778
     95          1           0        6.207874   -5.911289    1.593978
     96          1           0        7.371266   -4.805809    2.213097
     97          1           0        7.440867   -5.405171    0.517441
     98          1           0        1.575564   -3.257720    0.494497
     99          1           0       -0.848313   -4.631240   -2.843360
    100          1           0        0.468846   -3.828820   -3.743821
    101          1           0       -0.923372   -2.958157   -3.265982
    102          1           0       -3.248366   -2.512336    2.823848
    103          1           0       -3.096307   -3.714450    1.650217
    104          1           0       -5.381395   -1.798789    2.192806
    105          1           0       -5.466223   -3.925415   -1.315194
    106          1           0       -5.438310   -5.278864   -0.199116
    107          1           0       -3.980533   -4.236031   -0.355771
    108          1           0       -7.697515   -3.351490    1.411348
    109          1           0       -7.547607   -3.802649   -0.221413
    110          1           0       -6.906080   -0.966863    0.151364
    111          1           0       -8.477978   -1.323260    0.722107
    112          1           0       -7.898376   -2.363270   -2.041645
    113          1           0       -7.474653   -0.695493   -1.869674
    114          1           0      -10.136303   -1.402636   -0.747620
    115          1           0      -11.264451   -0.963377   -3.043193
    116          1           0      -10.550242   -2.379983   -2.640189
    117          1           0       -9.669301   -1.392967   -3.759959
    118          1           0       -9.839670    1.080536   -2.205466
    119          1           0       -8.649939    1.043906   -1.043046
    120          1           0      -11.222727    0.116750    0.093894
    121          1           0      -11.249733    1.776102   -0.455482
    122          1           0       -8.859346    1.453631    0.988140
    123          1           0      -10.003554    0.674272    2.052291
    124          1           0      -10.520424    3.382136    0.839157
    125          1           0       -9.302979    4.412965    2.149794
    126          1           0       -8.734370    2.790010    2.901639
    127          1           0       -9.951328    3.776331    3.630988
    128          1           0      -11.889253    2.895396    3.490804
    129          1           0      -12.144244    1.455336    2.556309
    130          1           0      -12.833526    3.640219    0.799346
    131          1           0      -13.339464    4.056313    2.444645
    132          1           0      -15.129861    2.700974    2.086627
    133          1           0      -14.120692    1.291320    1.991515
    134          1           0      -14.102310    2.878936   -0.487544
    135          1           0      -16.546276    1.747524   -1.065187
    136          1           0      -16.345502    3.373249   -0.546070
    137          1           0      -16.746365    2.063494    0.623847
    138          1           0      -14.984772    0.268601   -1.092449
    139          1           0      -13.808367    0.005270    0.197417
    140          1           0      -13.285091    0.818185   -1.246795
 ---------------------------------------------------------------------

 SCF Done:  E(RwB97XD) =  -3007.84865048     A.U. after   19 cycles

 Excitation energies and oscillator strengths:

 Excited State   1:      Singlet-A      1.6427 eV  754.75 nm  f=0.3941  <S**2>=0.000
     245 -> 248       -0.18416
     246 -> 247        0.68311
     245 <- 248       -0.11768
 This state for optimization and/or second-order correction.
 Total Energy, E(TD-HF/TD-DFT) =  -3007.78828160
 Copying the excited state density for this state as the 1-particle RhoCI density.

 Excited State   2:      Singlet-A      2.1504 eV  576.57 nm  f=0.1403  <S**2>=0.000
     245 -> 247        0.64724
     246 -> 248        0.26905

 Excited State   3:      Singlet-A      3.3462 eV  370.53 nm  f=0.0121  <S**2>=0.000
     243 -> 247        0.13067
     243 -> 249       -0.12102
     243 -> 250       -0.11019
     244 -> 247        0.56986
     244 -> 249       -0.18980
     244 -> 250       -0.16240
     246 -> 248       -0.14512

 Excited State   4:      Singlet-A      3.4954 eV  354.70 nm  f=0.0038  <S**2>=0.000
     241 -> 247       -0.20822
     243 -> 247        0.60888
     244 -> 247       -0.20607

 Excited State   5:      Singlet-A      3.5876 eV  345.59 nm  f=0.2901  <S**2>=0.000
     240 -> 247       -0.11926
     241 -> 247       -0.39147
     243 -> 247       -0.16865
     244 -> 247        0.10851
     245 -> 247       -0.16527
     246 -> 248        0.49587

 The electronic state is 1-A.
 Alpha  occ. eigenvalues --  -46.93962 -19.30264 -19.29717 -19.25684 -19.24170
 Alpha  occ. eigenvalues --  -19.23444 -19.23278 -14.46356 -14.46021 -14.44149
 Alpha  occ. eigenvalues --  -14.43301 -10.44360 -10.42749 -10.39257 -10.38355
 Alpha  occ. eigenvalues --  -10.36559 -10.35771 -10.35184 -10.34269 -10.34265
 Alpha  occ. eigenvalues --  -10.34079 -10.34033 -10.33939 -10.33763 -10.33287
 Alpha  occ. eigenvalues --  -10.32365 -10.31978 -10.31929 -10.31914 -10.31795
 Alpha  occ. eigenvalues --  -10.31789 -10.31671 -10.31324 -10.31159 -10.31093
 Alpha  occ. eigenvalues --  -10.31002 -10.30943 -10.30937 -10.30702 -10.30116
 Alpha  occ. eigenvalues --  -10.30094 -10.30089 -10.30039 -10.29994 -10.29973
 Alpha  occ. eigenvalues --  -10.29934 -10.29852 -10.29775 -10.29764 -10.29611
 Alpha  occ. eigenvalues --  -10.29556 -10.29456 -10.29142 -10.29069 -10.28861
 Alpha  occ. eigenvalues --  -10.28805 -10.28802 -10.28723 -10.28651 -10.28544
 Alpha  occ. eigenvalues --  -10.28520 -10.28491 -10.28462 -10.28415 -10.28333
 Alpha  occ. eigenvalues --  -10.27734  -3.20065  -1.93656  -1.93189  -1.93060
 Alpha  occ. eigenvalues --   -1.16014  -1.15881  -1.11294  -1.11052  -1.08691
 Alpha  occ. eigenvalues --   -1.07093  -1.06721  -1.05978  -1.04369  -1.03342
 Alpha  occ. eigenvalues --   -0.94484  -0.92112  -0.91414  -0.91363  -0.91208
 Alpha  occ. eigenvalues --   -0.90694  -0.89996  -0.89031  -0.88689  -0.88554
 Alpha  occ. eigenvalues --   -0.88298  -0.86853  -0.85791  -0.84884  -0.84621
 Alpha  occ. eigenvalues --   -0.84144  -0.83932  -0.83144  -0.82498  -0.82142
 Alpha  occ. eigenvalues --   -0.81671  -0.80166  -0.79927  -0.79238  -0.78083
 Alpha  occ. eigenvalues --   -0.77872  -0.77252  -0.76688  -0.76596  -0.76019
 Alpha  occ. eigenvalues --   -0.75272  -0.74436  -0.73272  -0.72199  -0.71923
 Alpha  occ. eigenvalues --   -0.70081  -0.69861  -0.68563  -0.68450  -0.67562
 Alpha  occ. eigenvalues --   -0.67350  -0.66706  -0.66363  -0.66076  -0.65974
 Alpha  occ. eigenvalues --   -0.65591  -0.65175  -0.64616  -0.63776  -0.62082
 Alpha  occ. eigenvalues --   -0.61743  -0.61484  -0.60963  -0.60322  -0.59213
 Alpha  occ. eigenvalues --   -0.58755  -0.58655  -0.57924  -0.57446  -0.57018
 Alpha  occ. eigenvalues --   -0.56793  -0.56064  -0.55883  -0.55790  -0.55618
 Alpha  occ. eigenvalues --   -0.55389  -0.55217  -0.55125  -0.54752  -0.54471
 Alpha  occ. eigenvalues --   -0.54296  -0.53854  -0.53630  -0.53541  -0.53219
 Alpha  occ. eigenvalues --   -0.52766  -0.52617  -0.52481  -0.52314  -0.52189
 Alpha  occ. eigenvalues --   -0.51869  -0.51796  -0.51614  -0.51442  -0.51081
 Alpha  occ. eigenvalues --   -0.51033  -0.50786  -0.50629  -0.50547  -0.50453
 Alpha  occ. eigenvalues --   -0.50407  -0.50150  -0.49872  -0.49653  -0.49580
 Alpha  occ. eigenvalues --   -0.49259  -0.49117  -0.48991  -0.48843  -0.48598
 Alpha  occ. eigenvalues --   -0.48292  -0.48036  -0.47802  -0.47625  -0.47393
 Alpha  occ. eigenvalues --   -0.47369  -0.47188  -0.46966  -0.46901  -0.46701
 Alpha  occ. eigenvalues --   -0.46601  -0.46264  -0.46083  -0.45690  -0.45537
 Alpha  occ. eigenvalues --   -0.45474  -0.45069  -0.44912  -0.44774  -0.44665
 Alpha  occ. eigenvalues --   -0.44482  -0.44281  -0.43985  -0.43893  -0.43731
 Alpha  occ. eigenvalues --   -0.43551  -0.43431  -0.43189  -0.42872  -0.42646
 Alpha  occ. eigenvalues --   -0.42637  -0.42477  -0.42265  -0.42078  -0.41749
 Alpha  occ. eigenvalues --   -0.41545  -0.41317  -0.40862  -0.40773  -0.40510
 Alpha  occ. eigenvalues --   -0.40270  -0.40084  -0.39614  -0.39597  -0.39265
 Alpha  occ. eigenvalues --   -0.39115  -0.39058  -0.38539  -0.38306  -0.37980
 Alpha  occ. eigenvalues --   -0.37624  -0.37515  -0.36987  -0.36630  -0.35851
 Alpha  occ. eigenvalues --   -0.35742  -0.35241  -0.34619  -0.33391  -0.32889
 Alpha  occ. eigenvalues --   -0.32450  -0.32339  -0.32081  -0.31729  -0.25578
 Alpha  occ. eigenvalues --   -0.22776
 Alpha virt. eigenvalues --   -0.06926   0.00786   0.03121   0.04987   0.06005
 Alpha virt. eigenvalues --    0.06442   0.06959   0.07373   0.08544   0.09600
 Alpha virt. eigenvalues --    0.10830   0.11427   0.11856   0.11927   0.12270

 Mulliken charges:
               1
     1  Mg   0.971608
     2  C   -0.027816
     3  C   -0.097012
     4  C   -0.060402
     5  C   -0.063897
     6  N   -0.400319
     7  C   -0.000031
     8  C   -0.038142
     9  C   -0.124951
    10  C    0.113609
    11  C    0.007707
    12  C    0.035982
    13  C   -0.001316
    14  C    0.264647
    15  O   -0.268727
    16  O   -0.392368
    17  N   -0.539103
    18  C    0.193152
    19  C   -0.175965
    20  C   -0.108070
    21  C    0.182599
    22  C    0.079688
    23  C    0.064781
    24  O   -0.243955
    25  C    0.003185
    26  N   -0.304774
    27  C    0.009304
    28  C   -0.111364
    29  C   -0.018566
    30  C    0.051987
    31  C    0.037158
    32  C   -0.036861
    33  C   -0.055326
    34  N   -0.376667
    35  C    0.079923
    36  C   -0.195107
    37  C   -0.016451
    38  C    0.136649
    39  C    0.069535
    40  C    0.150362
    41  O   -0.195246
    42  C   -0.094751
    43  C    0.254128
    44  O   -0.269512
    45  O   -0.388327
    46  C    0.135183
    47  C    0.228519
    48  C   -0.148655
    49  C   -0.183333
    50  C    0.030847
    51  C    0.048598
    52  C   -0.029122
    53  C    0.022896
    54  C   -0.190361
    55  C   -0.010440
    56  C    0.008902
    57  C   -0.044881
    58  C    0.010795
    59  C   -0.213037
    60  C    0.026079
    61  C    0.043851
    62  C   -0.035913
    63  C    0.011503
    64  C   -0.230550
    65  C   -0.027782
    66  C   -0.012606
    67  H   -0.003192
    68  H    0.022239
    69  H    0.000035
    70  H    0.029422
    71  H    0.029031
    72  H    0.048508
    73  H    0.020238
    74  H    0.041484
    75  H    0.030164
    76  H    0.052313
    77  H    0.054668
    78  H    0.061265
    79  H    0.041693
    80  H    0.055684
    81  H    0.035176
    82  H    0.044695
    83  H    0.080855
    84  H    0.051062
    85  H    0.043615
    86  H    0.030627
    87  H    0.041697
    88  H    0.041206
    89  H    0.037501
    90  H    0.025620
    91  H    0.029268
    92  H    0.033904
    93  H    0.038243
    94  H    0.034045
    95  H    0.051521
    96  H    0.040874
    97  H    0.055068
    98  H    0.092905
    99  H    0.071017
   100  H    0.064722
   101  H    0.046674
   102  H    0.039123
   103  H    0.049708
   104  H    0.028079
   105  H    0.038393
   106  H    0.053889
   107  H    0.046681
   108  H    0.037891
   109  H    0.003620
   110  H    0.023004
   111  H    0.027418
   112  H    0.011274
   113  H    0.017633
   114  H    0.021073
   115  H    0.027708
   116  H    0.012952
   117  H    0.034171
   118  H    0.013874
   119  H    0.003870
   120  H    0.020882
   121  H    0.029180
   122  H    0.009741
   123  H    0.026138
   124  H    0.024053
   125  H    0.029662
   126  H    0.025580
   127  H    0.016716
   128  H    0.021991
   129  H    0.016525
   130  H    0.020087
   131  H    0.022502
   132  H    0.017201
   133  H    0.014200
   134  H    0.025952
   135  H    0.021421
   136  H    0.033336
   137  H    0.029925
   138  H    0.025667
   139  H    0.024055
   140  H    0.039507
 Sum of Mulliken charges =  -0.00000

 Dipole moment (field-independent basis, Debye):
    X=             -4.3539    Y=              4.9851    Z=             -0.2767  Tot=              6.6246
 Quadrupole moment (field-independent basis, Debye-Ang):
   XX=           -380.9875   YY=           -414.1260   ZZ=           -395.6093
   XY=              4.3259   XZ=             17.0823   YZ=             -5.0789

 Normal termination of Gaussian 16 at Thu May  5 04:22:55 2022.
