 Gaussian 16, Revision A.03,
 Gaussian 16:  ES64L-G16RevA.03 25-Dec-2016

 --------------------
 #p ZINDO=(nstates=5)
 --------------------

 -----------------------------
 step_601_chromophore_10 ZINDO
 -----------------------------
 Symbolic Z-matrix:
 Charge =  0 Multiplicity = 1

                         Standard orientation:
 ---------------------------------------------------------------------
 Center     Atomic      Atomic             Coordinates (Angstroms)
 Number     Number       Type             X           Y           Z
 ---------------------------------------------------------------------
      1         12           0        5.696614    0.486363   -0.134113
      2          6           0        3.245741   -1.915865   -0.256629
      3          6           0        3.532991    2.751410   -1.497276
      4          6           0        8.152343    2.692966    0.035056
      5          6           0        8.025320   -2.089192    0.943047
      6          7           0        3.720160    0.307443   -0.997877
      7          6           0        2.814398   -0.706706   -0.810329
      8          6           0        1.426507   -0.235163   -1.264236
      9          6           0        1.690719    1.157912   -1.936339
     10          6           0        3.121838    1.495765   -1.503102
     11          6           0        1.653421    1.084694   -3.507996
     12          6           0        0.563885   -0.131838   -0.014959
     13          6           0       -0.931075   -0.519338   -0.211342
     14          6           0       -1.414692   -1.719443    0.646756
     15          8           0       -0.677025   -2.579976    1.181087
     16          8           0       -2.824916   -1.654755    0.862931
     17          7           0        5.821872    2.388724   -0.624475
     18          6           0        4.748238    3.205626   -1.031228
     19          6           0        5.184211    4.626381   -1.021712
     20          6           0        6.558584    4.574405   -0.569733
     21          6           0        6.899644    3.206487   -0.370994
     22          6           0        4.359117    5.850090   -1.581538
     23          6           0        7.504461    5.774673   -0.218123
     24          8           0        8.679144    5.623089    0.155657
     25          6           0        6.827401    7.071319   -0.181547
     26          7           0        7.829216    0.242935    0.372283
     27          6           0        8.534728    1.372696    0.403806
     28          6           0       10.016739    1.100135    0.872944
     29          6           0        9.935696   -0.377649    1.282134
     30          6           0        8.538148   -0.780392    0.884369
     31          6           0       11.114718    1.443730   -0.174546
     32          6           0       10.285328   -0.673943    2.706656
     33          6           0        9.514113   -0.048221    3.868989
     34          7           0        5.628793   -1.588976    0.271653
     35          6           0        6.613528   -2.495886    0.679131
     36          6           0        6.023644   -3.785434    0.861347
     37          6           0        4.716391   -3.624515    0.516328
     38          6           0        4.527058   -2.241970    0.159029
     39          6           0        6.795965   -5.037760    1.316206
     40          6           0        3.426704   -4.280947    0.360531
     41          8           0        3.091439   -5.433372    0.598574
     42          6           0        2.435263   -3.134952   -0.164632
     43          6           0        1.946974   -3.395187   -1.566618
     44          8           0        2.667885   -3.781762   -2.511055
     45          8           0        0.575354   -3.435787   -1.651873
     46          6           0       -0.237987   -3.731244   -2.918857
     47          6           0       -3.419983   -2.679410    1.759667
     48          6           0       -4.965987   -2.584648    1.561529
     49          6           0       -5.686128   -3.273093    0.636678
     50          6           0       -5.070147   -4.265287   -0.358399
     51          6           0       -7.200526   -3.052495    0.488061
     52          6           0       -7.711773   -1.692032    0.040717
     53          6           0       -8.093109   -1.479109   -1.434144
     54          6           0       -9.543549   -0.924795   -1.527793
     55          6           0      -10.263101   -1.348481   -2.846803
     56          6           0       -9.619706    0.595030   -1.254706
     57          6           0      -10.598706    0.996752   -0.060176
     58          6           0       -9.919693    1.386582    1.232332
     59          6           0      -10.500403    2.761588    1.735262
     60          6           0       -9.541646    3.482196    2.665088
     61          6           0      -11.870822    2.507253    2.472141
     62          6           0      -13.025842    3.240367    1.794387
     63          6           0      -14.269321    2.282782    1.563905
     64          6           0      -14.603491    2.099080    0.087168
     65          6           0      -16.149687    2.344057   -0.244093
     66          6           0      -14.133536    0.706078   -0.571032
     67          1           0        2.738858    3.451220   -1.767445
     68          1           0        9.052810    3.309671    0.017038
     69          1           0        8.650761   -2.831829    1.442810
     70          1           0        0.986145   -0.915157   -1.992421
     71          1           0        0.898706    1.864917   -1.689763
     72          1           0        2.558714    1.499710   -3.952376
     73          1           0        0.813833    1.716543   -3.794631
     74          1           0        1.412120    0.153047   -4.019346
     75          1           0        0.545370    0.874201    0.404699
     76          1           0        1.037173   -0.749497    0.748897
     77          1           0       -1.064308   -0.833163   -1.245849
     78          1           0       -1.534562    0.376860   -0.063103
     79          1           0        3.362643    5.632816   -1.964454
     80          1           0        5.003665    6.416406   -2.254289
     81          1           0        4.160702    6.519165   -0.743809
     82          1           0        7.582424    7.797876    0.117055
     83          1           0        6.020404    7.079754    0.551292
     84          1           0        6.616083    7.282684   -1.230454
     85          1           0       10.120784    1.774331    1.722189
     86          1           0       10.657914   -1.008698    0.762660
     87          1           0       10.693309    2.107328   -0.929060
     88          1           0       11.508900    0.514327   -0.585592
     89          1           0       11.880517    2.068758    0.284525
     90          1           0       11.300235   -0.283730    2.784517
     91          1           0       10.418142   -1.741018    2.881115
     92          1           0       10.131481    0.693498    4.374491
     93          1           0        9.161112   -0.765842    4.609802
     94          1           0        8.604620    0.503336    3.632778
     95          1           0        6.207874   -5.911289    1.593978
     96          1           0        7.371266   -4.805809    2.213097
     97          1           0        7.440867   -5.405171    0.517441
     98          1           0        1.575564   -3.257720    0.494497
     99          1           0       -0.848313   -4.631240   -2.843360
    100          1           0        0.468846   -3.828820   -3.743821
    101          1           0       -0.923372   -2.958157   -3.265982
    102          1           0       -3.248366   -2.512336    2.823848
    103          1           0       -3.096307   -3.714450    1.650217
    104          1           0       -5.381395   -1.798789    2.192806
    105          1           0       -5.466223   -3.925415   -1.315194
    106          1           0       -5.438310   -5.278864   -0.199116
    107          1           0       -3.980533   -4.236031   -0.355771
    108          1           0       -7.697515   -3.351490    1.411348
    109          1           0       -7.547607   -3.802649   -0.221413
    110          1           0       -6.906080   -0.966863    0.151364
    111          1           0       -8.477978   -1.323260    0.722107
    112          1           0       -7.898376   -2.363270   -2.041645
    113          1           0       -7.474653   -0.695493   -1.869674
    114          1           0      -10.136303   -1.402636   -0.747620
    115          1           0      -11.264451   -0.963377   -3.043193
    116          1           0      -10.550242   -2.379983   -2.640189
    117          1           0       -9.669301   -1.392967   -3.759959
    118          1           0       -9.839670    1.080536   -2.205466
    119          1           0       -8.649939    1.043906   -1.043046
    120          1           0      -11.222727    0.116750    0.093894
    121          1           0      -11.249733    1.776102   -0.455482
    122          1           0       -8.859346    1.453631    0.988140
    123          1           0      -10.003554    0.674272    2.052291
    124          1           0      -10.520424    3.382136    0.839157
    125          1           0       -9.302979    4.412965    2.149794
    126          1           0       -8.734370    2.790010    2.901639
    127          1           0       -9.951328    3.776331    3.630988
    128          1           0      -11.889253    2.895396    3.490804
    129          1           0      -12.144244    1.455336    2.556309
    130          1           0      -12.833526    3.640219    0.799346
    131          1           0      -13.339464    4.056313    2.444645
    132          1           0      -15.129861    2.700974    2.086627
    133          1           0      -14.120692    1.291320    1.991515
    134          1           0      -14.102310    2.878936   -0.487544
    135          1           0      -16.546276    1.747524   -1.065187
    136          1           0      -16.345502    3.373249   -0.546070
    137          1           0      -16.746365    2.063494    0.623847
    138          1           0      -14.984772    0.268601   -1.092449
    139          1           0      -13.808367    0.005270    0.197417
    140          1           0      -13.285091    0.818185   -1.246795
 ---------------------------------------------------------------------

 SCF Done:  E(RZINDO/S) =  -474.003528045     A.U. after   20 cycles

 Excitation energies and oscillator strengths:

 Excited State   1:      Singlet-A      1.2327 eV 1005.81 nm  f=0.6188  <S**2>=0.000
     175 ->178         0.19092
     176 ->177         0.66432
 This state for optimization and/or second-order correction.
 Total Energy, E(CIS/TDA) =  -473.958227976
 Copying the excited state density for this state as the 1-particle RhoCI density.

 Excited State   2:      Singlet-A      1.9122 eV  648.39 nm  f=0.0896  <S**2>=0.000
     175 ->177         0.57587
     176 ->178        -0.38455

 Excited State   3:      Singlet-A      2.9285 eV  423.37 nm  f=0.0572  <S**2>=0.000
     169 ->177         0.18932
     169 ->179        -0.15877
     169 ->181         0.11716
     170 ->177         0.33638
     170 ->179        -0.29099
     170 ->181         0.21992
     170 ->182         0.11545
     170 ->186        -0.15862
     176 ->178         0.14292

 Excited State   4:      Singlet-A      3.0448 eV  407.20 nm  f=0.6549  <S**2>=0.000
     168 ->177         0.14272
     168 ->179         0.23373
     168 ->181         0.21974
     168 ->186         0.14124
     170 ->177        -0.11022
     170 ->181        -0.10099
     171 ->177         0.10484
     175 ->177         0.26347
     176 ->178         0.41829

 Excited State   5:      Singlet-A      3.0570 eV  405.58 nm  f=0.3737  <S**2>=0.000
     168 ->177         0.20638
     168 ->179         0.25569
     168 ->181         0.28369
     168 ->186         0.15346
     168 ->187        -0.10593
     170 ->179        -0.11811
     173 ->177        -0.11443
     174 ->177         0.16024
     175 ->177        -0.19545
     176 ->178        -0.31337

 The electronic state is 1-A.
 Alpha  occ. eigenvalues --   -1.86157  -1.81192  -1.80029  -1.71309  -1.68435
 Alpha  occ. eigenvalues --   -1.67129  -1.65589  -1.60121  -1.57512  -1.56901
 Alpha  occ. eigenvalues --   -1.53003  -1.51041  -1.48520  -1.48105  -1.47061
 Alpha  occ. eigenvalues --   -1.42251  -1.41390  -1.39795  -1.38109  -1.37260
 Alpha  occ. eigenvalues --   -1.35966  -1.33037  -1.32873  -1.32148  -1.28917
 Alpha  occ. eigenvalues --   -1.27581  -1.23989  -1.21969  -1.21027  -1.18480
 Alpha  occ. eigenvalues --   -1.17665  -1.15562  -1.14685  -1.14430  -1.13800
 Alpha  occ. eigenvalues --   -1.12391  -1.11585  -1.10680  -1.05696  -1.05014
 Alpha  occ. eigenvalues --   -1.02212  -1.01037  -0.98986  -0.98136  -0.96952
 Alpha  occ. eigenvalues --   -0.96099  -0.94437  -0.93727  -0.92847  -0.92332
 Alpha  occ. eigenvalues --   -0.92156  -0.91651  -0.90389  -0.88163  -0.87322
 Alpha  occ. eigenvalues --   -0.84880  -0.84686  -0.82927  -0.81473  -0.80152
 Alpha  occ. eigenvalues --   -0.79509  -0.78372  -0.77754  -0.76869  -0.76401
 Alpha  occ. eigenvalues --   -0.75853  -0.75415  -0.74893  -0.74355  -0.73856
 Alpha  occ. eigenvalues --   -0.73390  -0.72812  -0.71555  -0.71299  -0.70431
 Alpha  occ. eigenvalues --   -0.70092  -0.69299  -0.68415  -0.68234  -0.67974
 Alpha  occ. eigenvalues --   -0.67497  -0.66869  -0.66499  -0.65408  -0.65108
 Alpha  occ. eigenvalues --   -0.64855  -0.64098  -0.63547  -0.63525  -0.62839
 Alpha  occ. eigenvalues --   -0.62684  -0.62279  -0.62200  -0.61871  -0.61145
 Alpha  occ. eigenvalues --   -0.61066  -0.60791  -0.60276  -0.59944  -0.59650
 Alpha  occ. eigenvalues --   -0.59638  -0.59480  -0.59174  -0.58548  -0.58483
 Alpha  occ. eigenvalues --   -0.58341  -0.57954  -0.57408  -0.56811  -0.56637
 Alpha  occ. eigenvalues --   -0.56214  -0.55768  -0.55452  -0.54906  -0.54163
 Alpha  occ. eigenvalues --   -0.54061  -0.53728  -0.53679  -0.53323  -0.52682
 Alpha  occ. eigenvalues --   -0.52589  -0.52318  -0.52047  -0.51733  -0.51687
 Alpha  occ. eigenvalues --   -0.51320  -0.51187  -0.50815  -0.50587  -0.49958
 Alpha  occ. eigenvalues --   -0.49947  -0.49511  -0.49257  -0.49114  -0.48930
 Alpha  occ. eigenvalues --   -0.48457  -0.48133  -0.47901  -0.47658  -0.47531
 Alpha  occ. eigenvalues --   -0.47187  -0.47039  -0.46605  -0.46357  -0.46050
 Alpha  occ. eigenvalues --   -0.45899  -0.45852  -0.45728  -0.45586  -0.45257
 Alpha  occ. eigenvalues --   -0.45054  -0.44809  -0.44562  -0.44417  -0.43934
 Alpha  occ. eigenvalues --   -0.43671  -0.43434  -0.42879  -0.42453  -0.42325
 Alpha  occ. eigenvalues --   -0.42074  -0.41959  -0.40964  -0.40009  -0.38779
 Alpha  occ. eigenvalues --   -0.37665  -0.36783  -0.35083  -0.34798  -0.34621
 Alpha  occ. eigenvalues --   -0.33648  -0.32846  -0.32668  -0.31912  -0.26384
 Alpha  occ. eigenvalues --   -0.21714
 Alpha virt. eigenvalues --   -0.08619  -0.01531   0.00115   0.00549   0.01633
 Alpha virt. eigenvalues --    0.02260   0.03147   0.03276   0.04203   0.04882
 Alpha virt. eigenvalues --    0.06448   0.07250   0.07662   0.07929   0.08150

 Mulliken charges:
               1
     1  Mg   0.426077
     2  C   -0.034911
     3  C   -0.052473
     4  C   -0.063191
     5  C   -0.081482
     6  N   -0.312460
     7  C    0.152256
     8  C    0.011528
     9  C   -0.005401
    10  C    0.114677
    11  C   -0.058680
    12  C   -0.022889
    13  C    0.006595
    14  C    0.459080
    15  O   -0.507817
    16  O   -0.272271
    17  N   -0.324121
    18  C    0.090515
    19  C   -0.034841
    20  C   -0.054213
    21  C    0.134776
    22  C   -0.043950
    23  C    0.328838
    24  O   -0.531254
    25  C   -0.030478
    26  N   -0.254154
    27  C    0.117257
    28  C   -0.002230
    29  C    0.022023
    30  C    0.139213
    31  C   -0.052663
    32  C   -0.018315
    33  C   -0.055022
    34  N   -0.309036
    35  C    0.090726
    36  C    0.053554
    37  C   -0.040162
    38  C    0.147303
    39  C   -0.040122
    40  C    0.330952
    41  O   -0.503903
    42  C    0.055796
    43  C    0.486489
    44  O   -0.543978
    45  O   -0.287929
    46  C    0.074547
    47  C    0.098321
    48  C   -0.099260
    49  C    0.003939
    50  C   -0.041214
    51  C   -0.016431
    52  C   -0.028711
    53  C   -0.028361
    54  C   -0.005440
    55  C   -0.067051
    56  C   -0.042270
    57  C   -0.037137
    58  C   -0.032366
    59  C   -0.015910
    60  C   -0.063388
    61  C   -0.031034
    62  C   -0.042810
    63  C   -0.034429
    64  C   -0.016805
    65  C   -0.064312
    66  C   -0.064495
    67  H    0.025670
    68  H    0.048625
    69  H    0.029654
    70  H    0.041165
    71  H    0.027630
    72  H    0.027009
    73  H    0.005914
    74  H    0.028242
    75  H    0.021644
    76  H    0.034858
    77  H    0.045348
    78  H    0.041071
    79  H    0.030194
    80  H    0.033941
    81  H    0.020255
    82  H    0.026482
    83  H    0.050757
    84  H    0.046187
    85  H    0.033789
    86  H    0.027585
    87  H    0.028016
    88  H    0.027190
    89  H    0.022227
    90  H    0.006883
    91  H    0.017978
    92  H    0.017366
    93  H    0.018059
    94  H    0.019518
    95  H    0.031743
    96  H    0.024571
    97  H    0.033568
    98  H    0.072870
    99  H    0.047590
   100  H    0.046571
   101  H    0.034361
   102  H    0.038215
   103  H    0.053289
   104  H    0.031571
   105  H    0.025153
   106  H    0.032554
   107  H    0.030758
   108  H    0.022695
   109  H    0.011694
   110  H    0.011372
   111  H    0.023525
   112  H    0.021841
   113  H    0.015003
   114  H    0.018319
   115  H    0.022040
   116  H    0.001575
   117  H    0.025901
   118  H    0.015063
   119  H    0.013980
   120  H    0.017430
   121  H    0.022097
   122  H    0.015301
   123  H    0.022473
   124  H    0.027127
   125  H    0.019712
   126  H    0.022191
   127  H    0.015025
   128  H    0.019576
   129  H    0.024343
   130  H    0.026491
   131  H    0.016591
   132  H    0.015215
   133  H    0.021351
   134  H    0.017160
   135  H    0.016035
   136  H    0.018051
   137  H    0.018023
   138  H    0.022004
   139  H    0.017306
   140  H    0.022328
 Sum of Mulliken charges =  -0.00000

 Dipole moment (field-independent basis, Debye):
    X=             -5.8397    Y=              6.3524    Z=             -0.1018  Tot=              8.6294
 N-N= 4.326544586277D+03 E-N= 0.000000000000D+00  KE=-9.327375678608D+03
 Leave Link  601 at Thu May  5 04:36:01 2022, MaxMem=  6710886400 cpu:               0.7 elap:               0.0
 (Enter /sw/apps/gaussian-16.0/g16/l9999.exe)
 1\1\GINC-BP1-COMPUTE192\SP\RZINDO CIS\STO-3G\C55H74Mg1N4O6\OF15641\05-
 May-2022\0\\#p ZINDO=(nstates=5)\\step_601_chromophore_10 ZINDO\\0,1\M
 g,0,41.115,7.502,29.435\C,0,42.635,9.055,32.094\C,0,38.925,5.993,31.57
 9\C,0,39.757,6.068,26.784\C,0,43.726,8.843,27.29\N,0,41.012,7.372,31.5
 93\C,0,41.61,8.2,32.51\C,0,40.949,7.998,33.88\C,0,39.992,6.772,33.672\
 C,0,39.943,6.614,32.148\C,0,40.571,5.445,34.289\C,0,40.199,9.282,34.20
 3\C,0,40.196,9.684,35.707\C,0,40.856,11.054,36.02\O,0,41.659,11.665,35

 Normal termination of Gaussian 16 at Thu May  5 04:36:01 2022.
