 Gaussian 16, Revision A.03,
 Gaussian 16:  ES64L-G16RevA.03 25-Dec-2016

 ------------------------------
 #p blyp/Def2SVP td=(nstates=5)
 ------------------------------

 -------------------------------------------------
 step_251_chromophore_4 TDDFT with blyp functional
 -------------------------------------------------
 Symbolic Z-matrix:
 Charge =  0 Multiplicity = 1

                         Standard orientation:
 ---------------------------------------------------------------------
 Center     Atomic      Atomic             Coordinates (Angstroms)
 Number     Number       Type             X           Y           Z
 ---------------------------------------------------------------------
      1         12           0        5.865500    0.585470    0.096546
      2          6           0        3.730767   -2.156792   -0.031270
      3          6           0        3.214721    2.624583   -0.650619
      4          6           0        8.061548    3.185553   -0.079998
      5          6           0        8.498157   -1.746455    0.610908
      6          7           0        3.737515    0.269935   -0.328276
      7          6           0        3.092190   -0.931218   -0.195728
      8          6           0        1.603421   -0.649348   -0.412763
      9          6           0        1.521762    0.787659   -0.896101
     10          6           0        2.927935    1.274681   -0.565252
     11          6           0        1.102053    1.080075   -2.311665
     12          6           0        0.648447   -0.988348    0.828748
     13          6           0       -0.831764   -0.503842    0.702738
     14          6           0       -1.878833   -1.469945    0.089259
     15          8           0       -2.035626   -1.519776   -1.147066
     16          8           0       -2.542023   -2.297920    0.949603
     17          7           0        5.618786    2.629365   -0.165081
     18          6           0        4.468958    3.271221   -0.489829
     19          6           0        4.806785    4.660227   -0.661884
     20          6           0        6.215468    4.810982   -0.500348
     21          6           0        6.706634    3.528685   -0.261980
     22          6           0        3.742457    5.665785   -0.976270
     23          6           0        7.035113    6.114909   -0.725328
     24          8           0        8.239267    6.092610   -0.907224
     25          6           0        6.432214    7.431332   -0.857296
     26          7           0        7.853517    0.672945    0.243059
     27          6           0        8.579123    1.862541    0.187507
     28          6           0       10.085464    1.645160    0.413108
     29          6           0       10.119736    0.155657    0.897272
     30          6           0        8.707662   -0.323121    0.602854
     31          6           0       10.986919    2.099306   -0.659288
     32          6           0       10.622396   -0.181405    2.408513
     33          6           0       11.827988   -1.096396    2.643437
     34          7           0        6.122197   -1.592312    0.212351
     35          6           0        7.248473   -2.341997    0.405504
     36          6           0        6.943124   -3.732665    0.436728
     37          6           0        5.499235   -3.724001    0.338904
     38          6           0        5.073837   -2.384589    0.114901
     39          6           0        7.944345   -4.803362    0.649401
     40          6           0        4.330403   -4.569818    0.416617
     41          8           0        4.154143   -5.749277    0.650959
     42          6           0        3.092976   -3.525396    0.156308
     43          6           0        2.182556   -4.014785   -0.910198
     44          8           0        2.502115   -4.113195   -2.074640
     45          8           0        0.960124   -4.323007   -0.442757
     46          6           0       -0.125431   -4.585552   -1.463931
     47          6           0       -3.555471   -3.243041    0.384118
     48          6           0       -4.995234   -2.719901    0.333024
     49          6           0       -6.163722   -3.349350   -0.103044
     50          6           0       -6.247124   -4.836781   -0.440531
     51          6           0       -7.469519   -2.570624    0.001410
     52          6           0       -7.558808   -1.590388   -1.230871
     53          6           0       -7.694064   -0.116246   -0.854624
     54          6           0       -9.187794    0.406982   -0.974402
     55          6           0       -9.640431    0.757641   -2.491458
     56          6           0       -9.458890    1.567396    0.004393
     57          6           0      -10.090299    1.245023    1.370015
     58          6           0      -10.704895    2.537752    1.919810
     59          6           0      -12.048274    2.387518    2.659295
     60          6           0      -11.813224    3.190798    3.959302
     61          6           0      -13.226144    2.953594    1.823476
     62          6           0      -14.231123    1.886738    1.445316
     63          6           0      -14.517572    1.913203   -0.088560
     64          6           0      -14.361610    0.492346   -0.733179
     65          6           0      -13.563287    0.514427   -2.002772
     66          6           0      -15.692092   -0.150745   -1.051094
     67          1           0        2.364852    3.285288   -0.835544
     68          1           0        8.744147    4.034937   -0.148652
     69          1           0        9.427254   -2.288520    0.800022
     70          1           0        1.396916   -1.355595   -1.216802
     71          1           0        0.773583    1.321766   -0.310921
     72          1           0        2.069349    1.369916   -2.720919
     73          1           0        0.322832    1.840106   -2.370622
     74          1           0        0.823240    0.178510   -2.857564
     75          1           0        1.149762   -0.457794    1.638528
     76          1           0        0.645613   -2.062543    1.009887
     77          1           0       -0.912810    0.382974    0.075428
     78          1           0       -1.173585   -0.217332    1.697300
     79          1           0        2.703975    5.333320   -0.985993
     80          1           0        3.933117    5.979894   -2.001936
     81          1           0        3.819431    6.572110   -0.375319
     82          1           0        5.586692    7.579824   -1.528182
     83          1           0        7.126007    8.246338   -1.063074
     84          1           0        6.126007    7.639675    0.167639
     85          1           0       10.192286    2.296288    1.281133
     86          1           0       10.743199   -0.262241    0.107020
     87          1           0       11.677431    2.907415   -0.416425
     88          1           0       10.363797    2.429231   -1.490946
     89          1           0       11.661207    1.327586   -1.030403
     90          1           0        9.785334   -0.641851    2.932969
     91          1           0       10.872045    0.661215    3.054431
     92          1           0       11.580875   -2.107321    2.968624
     93          1           0       12.626543   -0.657570    3.240963
     94          1           0       12.275354   -1.296524    1.669731
     95          1           0        8.808242   -4.597889    0.017734
     96          1           0        7.535963   -5.800070    0.484540
     97          1           0        8.387214   -4.639606    1.632350
     98          1           0        2.516291   -3.528250    1.080688
     99          1           0       -0.853375   -5.146852   -0.878583
    100          1           0        0.299987   -5.165028   -2.283029
    101          1           0       -0.531987   -3.613272   -1.742680
    102          1           0       -3.483559   -4.205694    0.891564
    103          1           0       -3.253821   -3.496094   -0.632373
    104          1           0       -5.228060   -1.727112    0.718084
    105          1           0       -5.426945   -5.055519   -1.124465
    106          1           0       -7.211607   -5.025141   -0.913490
    107          1           0       -6.303677   -5.358713    0.514745
    108          1           0       -7.585980   -2.019598    0.934199
    109          1           0       -8.298907   -3.275986    0.039528
    110          1           0       -8.299707   -1.916628   -1.960972
    111          1           0       -6.648727   -1.604049   -1.828888
    112          1           0       -6.971145    0.400985   -1.485466
    113          1           0       -7.410281   -0.026289    0.194105
    114          1           0       -9.799567   -0.435361   -0.652859
    115          1           0       -8.769453    1.179219   -2.993198
    116          1           0      -10.410523    1.524418   -2.572531
    117          1           0       -9.948411   -0.082130   -3.115052
    118          1           0      -10.025218    2.396242   -0.419412
    119          1           0       -8.523775    2.091102    0.203365
    120          1           0       -9.150188    1.036837    1.880470
    121          1           0      -10.751745    0.380375    1.420545
    122          1           0      -10.784608    3.345892    1.193091
    123          1           0       -9.894600    3.009549    2.475133
    124          1           0      -12.263565    1.337905    2.858401
    125          1           0      -11.864385    4.244547    3.683761
    126          1           0      -10.861666    3.016144    4.462102
    127          1           0      -12.637617    3.023882    4.652766
    128          1           0      -12.723464    3.394668    0.962117
    129          1           0      -13.705870    3.692179    2.464729
    130          1           0      -15.159492    2.134009    1.959871
    131          1           0      -13.954045    0.855532    1.664901
    132          1           0      -13.813066    2.583252   -0.580328
    133          1           0      -15.505803    2.337689   -0.269900
    134          1           0      -13.875282   -0.130432    0.017524
    135          1           0      -12.652226   -0.065117   -1.856272
    136          1           0      -13.272434    1.492701   -2.388998
    137          1           0      -14.097354    0.190936   -2.896112
    138          1           0      -15.644431   -1.220481   -0.847164
    139          1           0      -16.109058    0.044290   -2.039332
    140          1           0      -16.464209    0.309239   -0.435013
 ---------------------------------------------------------------------

 SCF Done:  E(RB-LYP) =  -3007.35825687     A.U. after   22 cycles

 Excitation energies and oscillator strengths:

 Excited State   1:      Singlet-A      1.8105 eV  684.79 nm  f=0.2993  <S**2>=0.000
     245 -> 248       -0.18941
     246 -> 247        0.68394
     246 <- 247       -0.15196
 This state for optimization and/or second-order correction.
 Total Energy, E(TD-HF/TD-DFT) =  -3007.29172094
 Copying the excited state density for this state as the 1-particle RhoCI density.

 Excited State   2:      Singlet-A      1.8678 eV  663.78 nm  f=0.0091  <S**2>=0.000
     244 -> 247        0.68383
     245 -> 247        0.15321

 Excited State   3:      Singlet-A      1.9833 eV  625.13 nm  f=0.0397  <S**2>=0.000
     243 -> 247       -0.39757
     244 -> 247       -0.13711
     245 -> 247        0.51913
     246 -> 248        0.19246

 Excited State   4:      Singlet-A      2.0360 eV  608.95 nm  f=0.0257  <S**2>=0.000
     243 -> 247        0.57975
     245 -> 247        0.34675
     246 -> 248        0.14433

 Excited State   5:      Singlet-A      2.1055 eV  588.87 nm  f=0.0000  <S**2>=0.000
     242 -> 247        0.70706

 The electronic state is 1-A.
 Alpha  occ. eigenvalues --  -46.26313 -18.83244 -18.81182 -18.76898 -18.75784
 Alpha  occ. eigenvalues --  -18.75477 -18.74939 -14.03704 -14.03179 -14.00549
 Alpha  occ. eigenvalues --  -14.00052 -10.04966 -10.02391 -10.00330  -9.99185
 Alpha  occ. eigenvalues --   -9.99185  -9.97334  -9.96941  -9.96666  -9.96576
 Alpha  occ. eigenvalues --   -9.95954  -9.95320  -9.95275  -9.94811  -9.94529
 Alpha  occ. eigenvalues --   -9.94232  -9.94094  -9.93854  -9.93652  -9.93567
 Alpha  occ. eigenvalues --   -9.93530  -9.93523  -9.93295  -9.93285  -9.93260
 Alpha  occ. eigenvalues --   -9.92967  -9.92939  -9.92921  -9.92826  -9.92793
 Alpha  occ. eigenvalues --   -9.92719  -9.92603  -9.92558  -9.92522  -9.92521
 Alpha  occ. eigenvalues --   -9.92441  -9.92421  -9.92099  -9.91937  -9.91837
 Alpha  occ. eigenvalues --   -9.91679  -9.91567  -9.91532  -9.91440  -9.91336
 Alpha  occ. eigenvalues --   -9.91152  -9.91127  -9.91113  -9.90930  -9.90733
 Alpha  occ. eigenvalues --   -9.90676  -9.90670  -9.90626  -9.90489  -9.90402
 Alpha  occ. eigenvalues --   -9.90206  -2.91062  -1.71503  -1.70925  -1.70784
 Alpha  occ. eigenvalues --   -0.97645  -0.96994  -0.92456  -0.91050  -0.89110
 Alpha  occ. eigenvalues --   -0.88523  -0.87406  -0.86421  -0.85626  -0.84731
 Alpha  occ. eigenvalues --   -0.75249  -0.73482  -0.73109  -0.72778  -0.72059
 Alpha  occ. eigenvalues --   -0.71955  -0.71604  -0.70984  -0.70826  -0.70302
 Alpha  occ. eigenvalues --   -0.70079  -0.69229  -0.68334  -0.67803  -0.67168
 Alpha  occ. eigenvalues --   -0.66416  -0.66303  -0.65708  -0.65376  -0.64768
 Alpha  occ. eigenvalues --   -0.64010  -0.63066  -0.62624  -0.62156  -0.60555
 Alpha  occ. eigenvalues --   -0.60309  -0.59984  -0.59922  -0.59069  -0.58921
 Alpha  occ. eigenvalues --   -0.58249  -0.57672  -0.56811  -0.56114  -0.54455
 Alpha  occ. eigenvalues --   -0.54167  -0.53699  -0.52557  -0.52234  -0.51519
 Alpha  occ. eigenvalues --   -0.51384  -0.51262  -0.51162  -0.50397  -0.50164
 Alpha  occ. eigenvalues --   -0.49891  -0.49494  -0.48705  -0.47416  -0.46826
 Alpha  occ. eigenvalues --   -0.46271  -0.46128  -0.45482  -0.45331  -0.44348
 Alpha  occ. eigenvalues --   -0.43920  -0.43552  -0.43147  -0.42514  -0.42025
 Alpha  occ. eigenvalues --   -0.41912  -0.41823  -0.41682  -0.41401  -0.41108
 Alpha  occ. eigenvalues --   -0.40711  -0.40439  -0.40105  -0.39978  -0.39944
 Alpha  occ. eigenvalues --   -0.39859  -0.39792  -0.39570  -0.39413  -0.39091
 Alpha  occ. eigenvalues --   -0.39056  -0.38760  -0.38555  -0.38338  -0.38248
 Alpha  occ. eigenvalues --   -0.38158  -0.37983  -0.37905  -0.37576  -0.37370
 Alpha  occ. eigenvalues --   -0.37230  -0.37072  -0.36716  -0.36572  -0.36506
 Alpha  occ. eigenvalues --   -0.36218  -0.36027  -0.35991  -0.35865  -0.35795
 Alpha  occ. eigenvalues --   -0.35548  -0.35357  -0.35034  -0.34889  -0.34861
 Alpha  occ. eigenvalues --   -0.34794  -0.34550  -0.34368  -0.34295  -0.34093
 Alpha  occ. eigenvalues --   -0.34001  -0.33954  -0.33338  -0.33254  -0.33247
 Alpha  occ. eigenvalues --   -0.33004  -0.32757  -0.32607  -0.32548  -0.32356
 Alpha  occ. eigenvalues --   -0.32298  -0.32162  -0.31900  -0.31786  -0.31637
 Alpha  occ. eigenvalues --   -0.31485  -0.31244  -0.31073  -0.30883  -0.30423
 Alpha  occ. eigenvalues --   -0.30336  -0.30087  -0.29822  -0.29669  -0.29377
 Alpha  occ. eigenvalues --   -0.29287  -0.29153  -0.29137  -0.29006  -0.28796
 Alpha  occ. eigenvalues --   -0.28571  -0.28428  -0.28271  -0.28256  -0.27906
 Alpha  occ. eigenvalues --   -0.27665  -0.27404  -0.27008  -0.26774  -0.26487
 Alpha  occ. eigenvalues --   -0.26406  -0.25889  -0.25792  -0.25522  -0.25267
 Alpha  occ. eigenvalues --   -0.24884  -0.24664  -0.24327  -0.24080  -0.23152
 Alpha  occ. eigenvalues --   -0.23071  -0.21969  -0.21656  -0.20448  -0.20344
 Alpha  occ. eigenvalues --   -0.19856  -0.19285  -0.18879  -0.18321  -0.17316
 Alpha  occ. eigenvalues --   -0.15782
 Alpha virt. eigenvalues --   -0.11547  -0.06979  -0.05836  -0.04305  -0.03916
 Alpha virt. eigenvalues --   -0.02877  -0.01731  -0.01250  -0.01123   0.00024
 Alpha virt. eigenvalues --    0.01387   0.01435   0.01792   0.02218   0.02468

 Mulliken charges:
               1
     1  Mg   0.693405
     2  C    0.083018
     3  C   -0.067056
     4  C   -0.054598
     5  C   -0.105739
     6  N   -0.179637
     7  C   -0.102330
     8  C    0.052230
     9  C   -0.056796
    10  C    0.020010
    11  C    0.165041
    12  C    0.104853
    13  C    0.155595
    14  C    0.082744
    15  O   -0.229291
    16  O   -0.261596
    17  N   -0.315020
    18  C    0.135022
    19  C   -0.132665
    20  C    0.044602
    21  C    0.085815
    22  C    0.160814
    23  C   -0.052771
    24  O   -0.161238
    25  C    0.146838
    26  N   -0.267267
    27  C    0.022642
    28  C    0.008480
    29  C    0.060489
    30  C    0.003793
    31  C    0.164166
    32  C    0.101749
    33  C    0.047117
    34  N   -0.196998
    35  C    0.155941
    36  C   -0.174299
    37  C    0.054403
    38  C    0.037884
    39  C    0.207394
    40  C   -0.038250
    41  O   -0.114106
    42  C   -0.001993
    43  C    0.086851
    44  O   -0.185480
    45  O   -0.280051
    46  C    0.191903
    47  C    0.309791
    48  C   -0.070506
    49  C   -0.219039
    50  C    0.151324
    51  C    0.136610
    52  C    0.069611
    53  C    0.083021
    54  C   -0.014127
    55  C    0.079434
    56  C    0.041497
    57  C    0.106289
    58  C    0.086550
    59  C   -0.076378
    60  C    0.096557
    61  C    0.149648
    62  C    0.078125
    63  C    0.088211
    64  C   -0.092659
    65  C    0.103406
    66  C    0.109646
    67  H   -0.076923
    68  H   -0.041646
    69  H   -0.060220
    70  H   -0.012447
    71  H   -0.037342
    72  H   -0.013425
    73  H   -0.001827
    74  H   -0.001571
    75  H   -0.021788
    76  H    0.011977
    77  H   -0.004019
    78  H   -0.014223
    79  H   -0.013049
    80  H    0.001543
    81  H   -0.001213
    82  H    0.007999
    83  H   -0.013960
    84  H   -0.000535
    85  H   -0.025575
    86  H   -0.027045
    87  H   -0.008773
    88  H   -0.001308
    89  H   -0.019956
    90  H   -0.018724
    91  H   -0.018563
    92  H   -0.004182
    93  H   -0.001063
    94  H   -0.024935
    95  H   -0.013422
    96  H    0.020705
    97  H   -0.005684
    98  H   -0.006202
    99  H    0.013890
   100  H    0.034979
   101  H    0.041667
   102  H    0.008565
   103  H    0.005949
   104  H   -0.034379
   105  H    0.008958
   106  H   -0.018513
   107  H    0.018043
   108  H   -0.017792
   109  H   -0.042836
   110  H   -0.031473
   111  H   -0.022998
   112  H   -0.024454
   113  H   -0.031014
   114  H   -0.040512
   115  H   -0.024845
   116  H   -0.007860
   117  H   -0.008915
   118  H   -0.045632
   119  H   -0.044700
   120  H   -0.032051
   121  H   -0.019914
   122  H   -0.049529
   123  H   -0.054397
   124  H   -0.036257
   125  H   -0.020414
   126  H   -0.010259
   127  H   -0.029220
   128  H   -0.027238
   129  H   -0.039387
   130  H   -0.032521
   131  H   -0.020773
   132  H   -0.036234
   133  H   -0.035717
   134  H   -0.034693
   135  H   -0.005238
   136  H   -0.022972
   137  H   -0.028576
   138  H   -0.012543
   139  H   -0.018051
   140  H   -0.035379
 Sum of Mulliken charges =  -0.00000

 Dipole moment (field-independent basis, Debye):
    X=             -2.4312    Y=              3.6818    Z=              2.6800  Tot=              5.1623
 Quadrupole moment (field-independent basis, Debye-Ang):
   XX=           -367.4131   YY=           -419.9130   ZZ=           -412.4079
   XY=             10.4361   XZ=             16.4625   YZ=             -1.6381

 Normal termination of Gaussian 16 at Fri Apr 29 11:27:10 2022.
