 Gaussian 16, Revision A.03,
 Gaussian 16:  ES64L-G16RevA.03 25-Dec-2016

 -----------------------------------
 #p cam-b3lyp/Def2SVP td=(nstates=5)
 -----------------------------------

 ------------------------------------------------------
 step_251_chromophore_4 TDDFT with cam-b3lyp functional
 ------------------------------------------------------
 Symbolic Z-matrix:
 Charge =  0 Multiplicity = 1

                         Standard orientation:
 ---------------------------------------------------------------------
 Center     Atomic      Atomic             Coordinates (Angstroms)
 Number     Number       Type             X           Y           Z
 ---------------------------------------------------------------------
      1         12           0        5.865500    0.585470    0.096546
      2          6           0        3.730767   -2.156792   -0.031270
      3          6           0        3.214721    2.624583   -0.650619
      4          6           0        8.061548    3.185553   -0.079998
      5          6           0        8.498157   -1.746455    0.610908
      6          7           0        3.737515    0.269935   -0.328276
      7          6           0        3.092190   -0.931218   -0.195728
      8          6           0        1.603421   -0.649348   -0.412763
      9          6           0        1.521762    0.787659   -0.896101
     10          6           0        2.927935    1.274681   -0.565252
     11          6           0        1.102053    1.080075   -2.311665
     12          6           0        0.648447   -0.988348    0.828748
     13          6           0       -0.831764   -0.503842    0.702738
     14          6           0       -1.878833   -1.469945    0.089259
     15          8           0       -2.035626   -1.519776   -1.147066
     16          8           0       -2.542023   -2.297920    0.949603
     17          7           0        5.618786    2.629365   -0.165081
     18          6           0        4.468958    3.271221   -0.489829
     19          6           0        4.806785    4.660227   -0.661884
     20          6           0        6.215468    4.810982   -0.500348
     21          6           0        6.706634    3.528685   -0.261980
     22          6           0        3.742457    5.665785   -0.976270
     23          6           0        7.035113    6.114909   -0.725328
     24          8           0        8.239267    6.092610   -0.907224
     25          6           0        6.432214    7.431332   -0.857296
     26          7           0        7.853517    0.672945    0.243059
     27          6           0        8.579123    1.862541    0.187507
     28          6           0       10.085464    1.645160    0.413108
     29          6           0       10.119736    0.155657    0.897272
     30          6           0        8.707662   -0.323121    0.602854
     31          6           0       10.986919    2.099306   -0.659288
     32          6           0       10.622396   -0.181405    2.408513
     33          6           0       11.827988   -1.096396    2.643437
     34          7           0        6.122197   -1.592312    0.212351
     35          6           0        7.248473   -2.341997    0.405504
     36          6           0        6.943124   -3.732665    0.436728
     37          6           0        5.499235   -3.724001    0.338904
     38          6           0        5.073837   -2.384589    0.114901
     39          6           0        7.944345   -4.803362    0.649401
     40          6           0        4.330403   -4.569818    0.416617
     41          8           0        4.154143   -5.749277    0.650959
     42          6           0        3.092976   -3.525396    0.156308
     43          6           0        2.182556   -4.014785   -0.910198
     44          8           0        2.502115   -4.113195   -2.074640
     45          8           0        0.960124   -4.323007   -0.442757
     46          6           0       -0.125431   -4.585552   -1.463931
     47          6           0       -3.555471   -3.243041    0.384118
     48          6           0       -4.995234   -2.719901    0.333024
     49          6           0       -6.163722   -3.349350   -0.103044
     50          6           0       -6.247124   -4.836781   -0.440531
     51          6           0       -7.469519   -2.570624    0.001410
     52          6           0       -7.558808   -1.590388   -1.230871
     53          6           0       -7.694064   -0.116246   -0.854624
     54          6           0       -9.187794    0.406982   -0.974402
     55          6           0       -9.640431    0.757641   -2.491458
     56          6           0       -9.458890    1.567396    0.004393
     57          6           0      -10.090299    1.245023    1.370015
     58          6           0      -10.704895    2.537752    1.919810
     59          6           0      -12.048274    2.387518    2.659295
     60          6           0      -11.813224    3.190798    3.959302
     61          6           0      -13.226144    2.953594    1.823476
     62          6           0      -14.231123    1.886738    1.445316
     63          6           0      -14.517572    1.913203   -0.088560
     64          6           0      -14.361610    0.492346   -0.733179
     65          6           0      -13.563287    0.514427   -2.002772
     66          6           0      -15.692092   -0.150745   -1.051094
     67          1           0        2.364852    3.285288   -0.835544
     68          1           0        8.744147    4.034937   -0.148652
     69          1           0        9.427254   -2.288520    0.800022
     70          1           0        1.396916   -1.355595   -1.216802
     71          1           0        0.773583    1.321766   -0.310921
     72          1           0        2.069349    1.369916   -2.720919
     73          1           0        0.322832    1.840106   -2.370622
     74          1           0        0.823240    0.178510   -2.857564
     75          1           0        1.149762   -0.457794    1.638528
     76          1           0        0.645613   -2.062543    1.009887
     77          1           0       -0.912810    0.382974    0.075428
     78          1           0       -1.173585   -0.217332    1.697300
     79          1           0        2.703975    5.333320   -0.985993
     80          1           0        3.933117    5.979894   -2.001936
     81          1           0        3.819431    6.572110   -0.375319
     82          1           0        5.586692    7.579824   -1.528182
     83          1           0        7.126007    8.246338   -1.063074
     84          1           0        6.126007    7.639675    0.167639
     85          1           0       10.192286    2.296288    1.281133
     86          1           0       10.743199   -0.262241    0.107020
     87          1           0       11.677431    2.907415   -0.416425
     88          1           0       10.363797    2.429231   -1.490946
     89          1           0       11.661207    1.327586   -1.030403
     90          1           0        9.785334   -0.641851    2.932969
     91          1           0       10.872045    0.661215    3.054431
     92          1           0       11.580875   -2.107321    2.968624
     93          1           0       12.626543   -0.657570    3.240963
     94          1           0       12.275354   -1.296524    1.669731
     95          1           0        8.808242   -4.597889    0.017734
     96          1           0        7.535963   -5.800070    0.484540
     97          1           0        8.387214   -4.639606    1.632350
     98          1           0        2.516291   -3.528250    1.080688
     99          1           0       -0.853375   -5.146852   -0.878583
    100          1           0        0.299987   -5.165028   -2.283029
    101          1           0       -0.531987   -3.613272   -1.742680
    102          1           0       -3.483559   -4.205694    0.891564
    103          1           0       -3.253821   -3.496094   -0.632373
    104          1           0       -5.228060   -1.727112    0.718084
    105          1           0       -5.426945   -5.055519   -1.124465
    106          1           0       -7.211607   -5.025141   -0.913490
    107          1           0       -6.303677   -5.358713    0.514745
    108          1           0       -7.585980   -2.019598    0.934199
    109          1           0       -8.298907   -3.275986    0.039528
    110          1           0       -8.299707   -1.916628   -1.960972
    111          1           0       -6.648727   -1.604049   -1.828888
    112          1           0       -6.971145    0.400985   -1.485466
    113          1           0       -7.410281   -0.026289    0.194105
    114          1           0       -9.799567   -0.435361   -0.652859
    115          1           0       -8.769453    1.179219   -2.993198
    116          1           0      -10.410523    1.524418   -2.572531
    117          1           0       -9.948411   -0.082130   -3.115052
    118          1           0      -10.025218    2.396242   -0.419412
    119          1           0       -8.523775    2.091102    0.203365
    120          1           0       -9.150188    1.036837    1.880470
    121          1           0      -10.751745    0.380375    1.420545
    122          1           0      -10.784608    3.345892    1.193091
    123          1           0       -9.894600    3.009549    2.475133
    124          1           0      -12.263565    1.337905    2.858401
    125          1           0      -11.864385    4.244547    3.683761
    126          1           0      -10.861666    3.016144    4.462102
    127          1           0      -12.637617    3.023882    4.652766
    128          1           0      -12.723464    3.394668    0.962117
    129          1           0      -13.705870    3.692179    2.464729
    130          1           0      -15.159492    2.134009    1.959871
    131          1           0      -13.954045    0.855532    1.664901
    132          1           0      -13.813066    2.583252   -0.580328
    133          1           0      -15.505803    2.337689   -0.269900
    134          1           0      -13.875282   -0.130432    0.017524
    135          1           0      -12.652226   -0.065117   -1.856272
    136          1           0      -13.272434    1.492701   -2.388998
    137          1           0      -14.097354    0.190936   -2.896112
    138          1           0      -15.644431   -1.220481   -0.847164
    139          1           0      -16.109058    0.044290   -2.039332
    140          1           0      -16.464209    0.309239   -0.435013
 ---------------------------------------------------------------------

 SCF Done:  E(RCAM-B3LYP) =  -3007.15412662     A.U. after   17 cycles

 Excitation energies and oscillator strengths:

 Excited State   1:      Singlet-A      1.6988 eV  729.83 nm  f=0.3912  <S**2>=0.000
     245 -> 248       -0.17940
     246 -> 247        0.68570
     245 <- 248       -0.10828
 This state for optimization and/or second-order correction.
 Total Energy, E(TD-HF/TD-DFT) =  -3007.09169626
 Copying the excited state density for this state as the 1-particle RhoCI density.

 Excited State   2:      Singlet-A      2.2216 eV  558.09 nm  f=0.1004  <S**2>=0.000
     245 -> 247        0.63231
     246 -> 248        0.30126

 Excited State   3:      Singlet-A      3.2303 eV  383.81 nm  f=0.0004  <S**2>=0.000
     242 -> 247       -0.19412
     243 -> 247        0.65594

 Excited State   4:      Singlet-A      3.3461 eV  370.54 nm  f=0.0499  <S**2>=0.000
     242 -> 247        0.58673
     243 -> 247        0.12183
     246 -> 248       -0.31883

 Excited State   5:      Singlet-A      3.4480 eV  359.58 nm  f=0.0263  <S**2>=0.000
     241 -> 247        0.58845
     241 -> 249       -0.26228
     241 -> 250       -0.14784
     246 -> 248        0.16944

 The electronic state is 1-A.
 Alpha  occ. eigenvalues --  -46.87819 -19.26145 -19.24140 -19.19868 -19.19030
 Alpha  occ. eigenvalues --  -19.18581 -19.18011 -14.42652 -14.41994 -14.38990
 Alpha  occ. eigenvalues --  -14.38377 -10.40322 -10.37740 -10.35534 -10.34566
 Alpha  occ. eigenvalues --  -10.33332 -10.31549 -10.31473 -10.31077 -10.31064
 Alpha  occ. eigenvalues --  -10.30373 -10.29757 -10.29642 -10.28924 -10.28561
 Alpha  occ. eigenvalues --  -10.28248 -10.28222 -10.28066 -10.28060 -10.27996
 Alpha  occ. eigenvalues --  -10.27766 -10.27586 -10.27482 -10.27171 -10.27166
 Alpha  occ. eigenvalues --  -10.27076 -10.27013 -10.26981 -10.26887 -10.26852
 Alpha  occ. eigenvalues --  -10.26805 -10.26790 -10.26511 -10.26497 -10.26384
 Alpha  occ. eigenvalues --  -10.26190 -10.26174 -10.26106 -10.25551 -10.25442
 Alpha  occ. eigenvalues --  -10.25300 -10.25222 -10.25206 -10.25169 -10.25142
 Alpha  occ. eigenvalues --  -10.24998 -10.24829 -10.24756 -10.24553 -10.24365
 Alpha  occ. eigenvalues --  -10.24339 -10.24311 -10.24264 -10.24144 -10.23952
 Alpha  occ. eigenvalues --  -10.23758  -3.16479  -1.91395  -1.90936  -1.90782
 Alpha  occ. eigenvalues --   -1.16051  -1.15570  -1.10933  -1.09408  -1.06940
 Alpha  occ. eigenvalues --   -1.06468  -1.05188  -1.04047  -1.03257  -1.02298
 Alpha  occ. eigenvalues --   -0.92362  -0.90330  -0.89942  -0.89542  -0.88660
 Alpha  occ. eigenvalues --   -0.88635  -0.88324  -0.87581  -0.87418  -0.86913
 Alpha  occ. eigenvalues --   -0.86686  -0.85586  -0.84604  -0.83992  -0.83325
 Alpha  occ. eigenvalues --   -0.82584  -0.82453  -0.81681  -0.81260  -0.80576
 Alpha  occ. eigenvalues --   -0.79812  -0.78794  -0.78282  -0.77706  -0.75928
 Alpha  occ. eigenvalues --   -0.75728  -0.75327  -0.75220  -0.74328  -0.74152
 Alpha  occ. eigenvalues --   -0.73271  -0.72676  -0.71735  -0.70955  -0.69022
 Alpha  occ. eigenvalues --   -0.68773  -0.68332  -0.67030  -0.66625  -0.65620
 Alpha  occ. eigenvalues --   -0.65481  -0.65416  -0.65283  -0.64484  -0.64141
 Alpha  occ. eigenvalues --   -0.63706  -0.63355  -0.62589  -0.61151  -0.60478
 Alpha  occ. eigenvalues --   -0.59747  -0.59703  -0.58919  -0.58788  -0.57885
 Alpha  occ. eigenvalues --   -0.57355  -0.57129  -0.56297  -0.55774  -0.55181
 Alpha  occ. eigenvalues --   -0.54945  -0.54793  -0.54570  -0.54469  -0.54091
 Alpha  occ. eigenvalues --   -0.53679  -0.53036  -0.53016  -0.52885  -0.52655
 Alpha  occ. eigenvalues --   -0.52392  -0.52327  -0.52218  -0.51943  -0.51889
 Alpha  occ. eigenvalues --   -0.51482  -0.51170  -0.51066  -0.50894  -0.50760
 Alpha  occ. eigenvalues --   -0.50543  -0.50413  -0.50227  -0.50177  -0.49753
 Alpha  occ. eigenvalues --   -0.49510  -0.49434  -0.49190  -0.48956  -0.48778
 Alpha  occ. eigenvalues --   -0.48697  -0.48524  -0.48112  -0.47982  -0.47858
 Alpha  occ. eigenvalues --   -0.47673  -0.47375  -0.47044  -0.46870  -0.46755
 Alpha  occ. eigenvalues --   -0.46662  -0.46517  -0.46309  -0.46079  -0.45983
 Alpha  occ. eigenvalues --   -0.45839  -0.45762  -0.45095  -0.44931  -0.44923
 Alpha  occ. eigenvalues --   -0.44872  -0.44488  -0.44326  -0.44181  -0.44057
 Alpha  occ. eigenvalues --   -0.43890  -0.43724  -0.43587  -0.43379  -0.43263
 Alpha  occ. eigenvalues --   -0.43183  -0.42722  -0.42546  -0.42329  -0.41928
 Alpha  occ. eigenvalues --   -0.41770  -0.41635  -0.41325  -0.41165  -0.40981
 Alpha  occ. eigenvalues --   -0.40474  -0.40446  -0.40208  -0.40136  -0.40072
 Alpha  occ. eigenvalues --   -0.39669  -0.39558  -0.39258  -0.39218  -0.38803
 Alpha  occ. eigenvalues --   -0.38742  -0.38273  -0.37906  -0.37555  -0.37336
 Alpha  occ. eigenvalues --   -0.37217  -0.36932  -0.36865  -0.36324  -0.36263
 Alpha  occ. eigenvalues --   -0.35776  -0.35418  -0.35214  -0.34086  -0.33944
 Alpha  occ. eigenvalues --   -0.33853  -0.33560  -0.32791  -0.31256  -0.30899
 Alpha  occ. eigenvalues --   -0.30126  -0.29662  -0.28978  -0.28821  -0.24141
 Alpha  occ. eigenvalues --   -0.21071
 Alpha virt. eigenvalues --   -0.08733  -0.01827   0.00661   0.02801   0.03371
 Alpha virt. eigenvalues --    0.03964   0.04459   0.05271   0.06480   0.07039
 Alpha virt. eigenvalues --    0.07899   0.07914   0.08437   0.08572   0.08653

 Mulliken charges:
               1
     1  Mg   0.828887
     2  C    0.049433
     3  C   -0.078260
     4  C   -0.067685
     5  C   -0.103414
     6  N   -0.255537
     7  C   -0.050278
     8  C    0.000369
     9  C   -0.108916
    10  C    0.037368
    11  C    0.103043
    12  C    0.056443
    13  C    0.085310
    14  C    0.164197
    15  O   -0.270920
    16  O   -0.326707
    17  N   -0.404051
    18  C    0.147275
    19  C   -0.142577
    20  C   -0.018015
    21  C    0.106546
    22  C    0.100376
    23  C    0.025281
    24  O   -0.202207
    25  C    0.059562
    26  N   -0.343350
    27  C    0.041831
    28  C   -0.041118
    29  C   -0.002458
    30  C    0.022902
    31  C    0.094430
    32  C    0.043986
    33  C   -0.014155
    34  N   -0.286773
    35  C    0.152963
    36  C   -0.160887
    37  C   -0.026465
    38  C    0.073204
    39  C    0.149297
    40  C    0.065903
    41  O   -0.154945
    42  C   -0.076747
    43  C    0.174631
    44  O   -0.223134
    45  O   -0.344795
    46  C    0.159145
    47  C    0.282567
    48  C   -0.093632
    49  C   -0.237453
    50  C    0.088440
    51  C    0.074173
    52  C    0.014521
    53  C    0.033947
    54  C   -0.069673
    55  C    0.026385
    56  C   -0.006985
    57  C    0.052134
    58  C    0.033140
    59  C   -0.134899
    60  C    0.038333
    61  C    0.094658
    62  C    0.022415
    63  C    0.036993
    64  C   -0.153248
    65  C    0.046259
    66  C    0.050229
    67  H   -0.041026
    68  H    0.001574
    69  H   -0.024407
    70  H    0.018806
    71  H   -0.002834
    72  H    0.014490
    73  H    0.021663
    74  H    0.025457
    75  H    0.009707
    76  H    0.038802
    77  H    0.026147
    78  H    0.020995
    79  H    0.016012
    80  H    0.027665
    81  H    0.024889
    82  H    0.036168
    83  H    0.022964
    84  H    0.027134
    85  H    0.010585
    86  H    0.008032
    87  H    0.017630
    88  H    0.025578
    89  H    0.006124
    90  H    0.011988
    91  H    0.010450
    92  H    0.018319
    93  H    0.023166
    94  H   -0.001739
    95  H    0.012684
    96  H    0.047864
    97  H    0.021140
    98  H    0.036924
    99  H    0.035778
   100  H    0.061797
   101  H    0.059812
   102  H    0.035699
   103  H    0.034777
   104  H   -0.002932
   105  H    0.031420
   106  H    0.007410
   107  H    0.042248
   108  H    0.011997
   109  H   -0.010981
   110  H   -0.003489
   111  H    0.008535
   112  H    0.003924
   113  H   -0.006212
   114  H   -0.011307
   115  H   -0.001255
   116  H    0.013845
   117  H    0.013284
   118  H   -0.017761
   119  H   -0.015754
   120  H   -0.005049
   121  H    0.004869
   122  H   -0.020713
   123  H   -0.022497
   124  H   -0.004961
   125  H    0.002343
   126  H    0.014620
   127  H   -0.003053
   128  H   -0.000575
   129  H   -0.008201
   130  H   -0.002815
   131  H    0.004561
   132  H   -0.008956
   133  H   -0.006627
   134  H   -0.003443
   135  H    0.014886
   136  H   -0.000102
   137  H   -0.002571
   138  H    0.012130
   139  H    0.005857
   140  H   -0.010775
 Sum of Mulliken charges =  -0.00000

 Dipole moment (field-independent basis, Debye):
    X=             -2.5520    Y=              4.2503    Z=              2.7063  Tot=              5.6481
 Quadrupole moment (field-independent basis, Debye-Ang):
   XX=           -365.2672   YY=           -415.5936   ZZ=           -412.8872
   XY=             12.7662   XZ=             17.6789   YZ=             -1.8367

 Normal termination of Gaussian 16 at Fri Apr 29 10:34:15 2022.
