 Gaussian 16, Revision A.03,
 Gaussian 16:  ES64L-G16RevA.03 25-Dec-2016

 ---------------------------------
 #p PBE1PBE/Def2SVP td=(nstates=5)
 ---------------------------------

 ----------------------------------------------------
 step_251_chromophore_4 TDDFT with PBE1PBE functional
 ----------------------------------------------------
 Symbolic Z-matrix:
 Charge =  0 Multiplicity = 1

                         Standard orientation:
 ---------------------------------------------------------------------
 Center     Atomic      Atomic             Coordinates (Angstroms)
 Number     Number       Type             X           Y           Z
 ---------------------------------------------------------------------
      1         12           0        5.865500    0.585470    0.096546
      2          6           0        3.730767   -2.156792   -0.031270
      3          6           0        3.214721    2.624583   -0.650619
      4          6           0        8.061548    3.185553   -0.079998
      5          6           0        8.498157   -1.746455    0.610908
      6          7           0        3.737515    0.269935   -0.328276
      7          6           0        3.092190   -0.931218   -0.195728
      8          6           0        1.603421   -0.649348   -0.412763
      9          6           0        1.521762    0.787659   -0.896101
     10          6           0        2.927935    1.274681   -0.565252
     11          6           0        1.102053    1.080075   -2.311665
     12          6           0        0.648447   -0.988348    0.828748
     13          6           0       -0.831764   -0.503842    0.702738
     14          6           0       -1.878833   -1.469945    0.089259
     15          8           0       -2.035626   -1.519776   -1.147066
     16          8           0       -2.542023   -2.297920    0.949603
     17          7           0        5.618786    2.629365   -0.165081
     18          6           0        4.468958    3.271221   -0.489829
     19          6           0        4.806785    4.660227   -0.661884
     20          6           0        6.215468    4.810982   -0.500348
     21          6           0        6.706634    3.528685   -0.261980
     22          6           0        3.742457    5.665785   -0.976270
     23          6           0        7.035113    6.114909   -0.725328
     24          8           0        8.239267    6.092610   -0.907224
     25          6           0        6.432214    7.431332   -0.857296
     26          7           0        7.853517    0.672945    0.243059
     27          6           0        8.579123    1.862541    0.187507
     28          6           0       10.085464    1.645160    0.413108
     29          6           0       10.119736    0.155657    0.897272
     30          6           0        8.707662   -0.323121    0.602854
     31          6           0       10.986919    2.099306   -0.659288
     32          6           0       10.622396   -0.181405    2.408513
     33          6           0       11.827988   -1.096396    2.643437
     34          7           0        6.122197   -1.592312    0.212351
     35          6           0        7.248473   -2.341997    0.405504
     36          6           0        6.943124   -3.732665    0.436728
     37          6           0        5.499235   -3.724001    0.338904
     38          6           0        5.073837   -2.384589    0.114901
     39          6           0        7.944345   -4.803362    0.649401
     40          6           0        4.330403   -4.569818    0.416617
     41          8           0        4.154143   -5.749277    0.650959
     42          6           0        3.092976   -3.525396    0.156308
     43          6           0        2.182556   -4.014785   -0.910198
     44          8           0        2.502115   -4.113195   -2.074640
     45          8           0        0.960124   -4.323007   -0.442757
     46          6           0       -0.125431   -4.585552   -1.463931
     47          6           0       -3.555471   -3.243041    0.384118
     48          6           0       -4.995234   -2.719901    0.333024
     49          6           0       -6.163722   -3.349350   -0.103044
     50          6           0       -6.247124   -4.836781   -0.440531
     51          6           0       -7.469519   -2.570624    0.001410
     52          6           0       -7.558808   -1.590388   -1.230871
     53          6           0       -7.694064   -0.116246   -0.854624
     54          6           0       -9.187794    0.406982   -0.974402
     55          6           0       -9.640431    0.757641   -2.491458
     56          6           0       -9.458890    1.567396    0.004393
     57          6           0      -10.090299    1.245023    1.370015
     58          6           0      -10.704895    2.537752    1.919810
     59          6           0      -12.048274    2.387518    2.659295
     60          6           0      -11.813224    3.190798    3.959302
     61          6           0      -13.226144    2.953594    1.823476
     62          6           0      -14.231123    1.886738    1.445316
     63          6           0      -14.517572    1.913203   -0.088560
     64          6           0      -14.361610    0.492346   -0.733179
     65          6           0      -13.563287    0.514427   -2.002772
     66          6           0      -15.692092   -0.150745   -1.051094
     67          1           0        2.364852    3.285288   -0.835544
     68          1           0        8.744147    4.034937   -0.148652
     69          1           0        9.427254   -2.288520    0.800022
     70          1           0        1.396916   -1.355595   -1.216802
     71          1           0        0.773583    1.321766   -0.310921
     72          1           0        2.069349    1.369916   -2.720919
     73          1           0        0.322832    1.840106   -2.370622
     74          1           0        0.823240    0.178510   -2.857564
     75          1           0        1.149762   -0.457794    1.638528
     76          1           0        0.645613   -2.062543    1.009887
     77          1           0       -0.912810    0.382974    0.075428
     78          1           0       -1.173585   -0.217332    1.697300
     79          1           0        2.703975    5.333320   -0.985993
     80          1           0        3.933117    5.979894   -2.001936
     81          1           0        3.819431    6.572110   -0.375319
     82          1           0        5.586692    7.579824   -1.528182
     83          1           0        7.126007    8.246338   -1.063074
     84          1           0        6.126007    7.639675    0.167639
     85          1           0       10.192286    2.296288    1.281133
     86          1           0       10.743199   -0.262241    0.107020
     87          1           0       11.677431    2.907415   -0.416425
     88          1           0       10.363797    2.429231   -1.490946
     89          1           0       11.661207    1.327586   -1.030403
     90          1           0        9.785334   -0.641851    2.932969
     91          1           0       10.872045    0.661215    3.054431
     92          1           0       11.580875   -2.107321    2.968624
     93          1           0       12.626543   -0.657570    3.240963
     94          1           0       12.275354   -1.296524    1.669731
     95          1           0        8.808242   -4.597889    0.017734
     96          1           0        7.535963   -5.800070    0.484540
     97          1           0        8.387214   -4.639606    1.632350
     98          1           0        2.516291   -3.528250    1.080688
     99          1           0       -0.853375   -5.146852   -0.878583
    100          1           0        0.299987   -5.165028   -2.283029
    101          1           0       -0.531987   -3.613272   -1.742680
    102          1           0       -3.483559   -4.205694    0.891564
    103          1           0       -3.253821   -3.496094   -0.632373
    104          1           0       -5.228060   -1.727112    0.718084
    105          1           0       -5.426945   -5.055519   -1.124465
    106          1           0       -7.211607   -5.025141   -0.913490
    107          1           0       -6.303677   -5.358713    0.514745
    108          1           0       -7.585980   -2.019598    0.934199
    109          1           0       -8.298907   -3.275986    0.039528
    110          1           0       -8.299707   -1.916628   -1.960972
    111          1           0       -6.648727   -1.604049   -1.828888
    112          1           0       -6.971145    0.400985   -1.485466
    113          1           0       -7.410281   -0.026289    0.194105
    114          1           0       -9.799567   -0.435361   -0.652859
    115          1           0       -8.769453    1.179219   -2.993198
    116          1           0      -10.410523    1.524418   -2.572531
    117          1           0       -9.948411   -0.082130   -3.115052
    118          1           0      -10.025218    2.396242   -0.419412
    119          1           0       -8.523775    2.091102    0.203365
    120          1           0       -9.150188    1.036837    1.880470
    121          1           0      -10.751745    0.380375    1.420545
    122          1           0      -10.784608    3.345892    1.193091
    123          1           0       -9.894600    3.009549    2.475133
    124          1           0      -12.263565    1.337905    2.858401
    125          1           0      -11.864385    4.244547    3.683761
    126          1           0      -10.861666    3.016144    4.462102
    127          1           0      -12.637617    3.023882    4.652766
    128          1           0      -12.723464    3.394668    0.962117
    129          1           0      -13.705870    3.692179    2.464729
    130          1           0      -15.159492    2.134009    1.959871
    131          1           0      -13.954045    0.855532    1.664901
    132          1           0      -13.813066    2.583252   -0.580328
    133          1           0      -15.505803    2.337689   -0.269900
    134          1           0      -13.875282   -0.130432    0.017524
    135          1           0      -12.652226   -0.065117   -1.856272
    136          1           0      -13.272434    1.492701   -2.388998
    137          1           0      -14.097354    0.190936   -2.896112
    138          1           0      -15.644431   -1.220481   -0.847164
    139          1           0      -16.109058    0.044290   -2.039332
    140          1           0      -16.464209    0.309239   -0.435013
 ---------------------------------------------------------------------

 SCF Done:  E(RPBE1PBE) =  -3005.34372704     A.U. after   15 cycles

 Excitation energies and oscillator strengths:

 Excited State   1:      Singlet-A      1.8575 eV  667.49 nm  f=0.3758  <S**2>=0.000
     245 -> 248       -0.17296
     246 -> 247        0.69302
     246 <- 247       -0.11146
 This state for optimization and/or second-order correction.
 Total Energy, E(TD-HF/TD-DFT) =  -3005.27546657
 Copying the excited state density for this state as the 1-particle RhoCI density.

 Excited State   2:      Singlet-A      2.2280 eV  556.48 nm  f=0.0957  <S**2>=0.000
     245 -> 247        0.64389
     246 -> 248        0.27291

 Excited State   3:      Singlet-A      2.8435 eV  436.02 nm  f=0.0017  <S**2>=0.000
     241 -> 247       -0.18687
     242 -> 247        0.27187
     243 -> 247        0.60450

 Excited State   4:      Singlet-A      2.9585 eV  419.08 nm  f=0.0013  <S**2>=0.000
     242 -> 247        0.62804
     243 -> 247       -0.29958

 Excited State   5:      Singlet-A      3.0616 eV  404.96 nm  f=0.0002  <S**2>=0.000
     241 -> 247        0.64013
     243 -> 247        0.15411
     246 -> 248       -0.22412

 The electronic state is 1-A.
 Alpha  occ. eigenvalues --  -46.91213 -19.26835 -19.24788 -19.20177 -19.19227
 Alpha  occ. eigenvalues --  -19.18852 -19.18231 -14.42164 -14.41503 -14.38673
 Alpha  occ. eigenvalues --  -14.38046 -10.37385 -10.34729 -10.32642 -10.31734
 Alpha  occ. eigenvalues --  -10.30748 -10.29310 -10.28873 -10.28823 -10.28700
 Alpha  occ. eigenvalues --  -10.28027 -10.27395 -10.27267 -10.26678 -10.26085
 Alpha  occ. eigenvalues --  -10.25944 -10.25892 -10.25852 -10.25740 -10.25692
 Alpha  occ. eigenvalues --  -10.25444 -10.25396 -10.25280 -10.24967 -10.24829
 Alpha  occ. eigenvalues --  -10.24710 -10.24683 -10.24632 -10.24619 -10.24454
 Alpha  occ. eigenvalues --  -10.24446 -10.24290 -10.24099 -10.24074 -10.23869
 Alpha  occ. eigenvalues --  -10.23744 -10.23639 -10.23366 -10.22995 -10.22975
 Alpha  occ. eigenvalues --  -10.22942 -10.22905 -10.22860 -10.22763 -10.22714
 Alpha  occ. eigenvalues --  -10.22566 -10.22288 -10.22239 -10.22105 -10.21935
 Alpha  occ. eigenvalues --  -10.21920 -10.21865 -10.21751 -10.21669 -10.21321
 Alpha  occ. eigenvalues --  -10.21124  -3.13451  -1.86308  -1.85828  -1.85676
 Alpha  occ. eigenvalues --   -1.10868  -1.10339  -1.05645  -1.04198  -1.01803
 Alpha  occ. eigenvalues --   -1.01290  -0.99811  -0.98744  -0.97893  -0.96948
 Alpha  occ. eigenvalues --   -0.86736  -0.84426  -0.84063  -0.83767  -0.82978
 Alpha  occ. eigenvalues --   -0.82749  -0.82645  -0.81889  -0.81536  -0.81196
 Alpha  occ. eigenvalues --   -0.80980  -0.79827  -0.78779  -0.78254  -0.77635
 Alpha  occ. eigenvalues --   -0.76731  -0.76652  -0.75941  -0.75499  -0.74929
 Alpha  occ. eigenvalues --   -0.73947  -0.73126  -0.72565  -0.72034  -0.70163
 Alpha  occ. eigenvalues --   -0.69989  -0.69592  -0.69401  -0.68486  -0.68312
 Alpha  occ. eigenvalues --   -0.67614  -0.67109  -0.66177  -0.65274  -0.63356
 Alpha  occ. eigenvalues --   -0.63001  -0.62803  -0.61472  -0.60849  -0.60135
 Alpha  occ. eigenvalues --   -0.59886  -0.59815  -0.59615  -0.58734  -0.58620
 Alpha  occ. eigenvalues --   -0.58120  -0.57654  -0.56798  -0.55728  -0.55019
 Alpha  occ. eigenvalues --   -0.54244  -0.54103  -0.53554  -0.53426  -0.52506
 Alpha  occ. eigenvalues --   -0.51738  -0.51528  -0.50916  -0.50335  -0.49685
 Alpha  occ. eigenvalues --   -0.49462  -0.49356  -0.48963  -0.48915  -0.48550
 Alpha  occ. eigenvalues --   -0.48284  -0.47658  -0.47448  -0.47237  -0.47150
 Alpha  occ. eigenvalues --   -0.46947  -0.46840  -0.46804  -0.46553  -0.46452
 Alpha  occ. eigenvalues --   -0.45977  -0.45718  -0.45599  -0.45451  -0.45366
 Alpha  occ. eigenvalues --   -0.45108  -0.44984  -0.44772  -0.44736  -0.44363
 Alpha  occ. eigenvalues --   -0.44096  -0.44041  -0.43823  -0.43519  -0.43374
 Alpha  occ. eigenvalues --   -0.43282  -0.43097  -0.42764  -0.42569  -0.42493
 Alpha  occ. eigenvalues --   -0.42364  -0.42067  -0.41751  -0.41529  -0.41506
 Alpha  occ. eigenvalues --   -0.41276  -0.41239  -0.41018  -0.40781  -0.40686
 Alpha  occ. eigenvalues --   -0.40584  -0.40363  -0.39872  -0.39628  -0.39602
 Alpha  occ. eigenvalues --   -0.39492  -0.39338  -0.39119  -0.38893  -0.38796
 Alpha  occ. eigenvalues --   -0.38737  -0.38499  -0.38346  -0.38131  -0.37973
 Alpha  occ. eigenvalues --   -0.37877  -0.37597  -0.37393  -0.37091  -0.36741
 Alpha  occ. eigenvalues --   -0.36597  -0.36458  -0.36121  -0.35978  -0.35843
 Alpha  occ. eigenvalues --   -0.35346  -0.35266  -0.35093  -0.35022  -0.34859
 Alpha  occ. eigenvalues --   -0.34527  -0.34400  -0.34191  -0.33984  -0.33711
 Alpha  occ. eigenvalues --   -0.33530  -0.33075  -0.32696  -0.32349  -0.32265
 Alpha  occ. eigenvalues --   -0.32152  -0.31919  -0.31851  -0.31372  -0.31143
 Alpha  occ. eigenvalues --   -0.30711  -0.30366  -0.30054  -0.29419  -0.29232
 Alpha  occ. eigenvalues --   -0.28742  -0.28495  -0.27683  -0.26536  -0.26012
 Alpha  occ. eigenvalues --   -0.25286  -0.25129  -0.24613  -0.24117  -0.21061
 Alpha  occ. eigenvalues --   -0.18721
 Alpha virt. eigenvalues --   -0.11174  -0.05331  -0.03556  -0.01658  -0.00718
 Alpha virt. eigenvalues --    0.00050   0.00721   0.01381   0.01803   0.03021
 Alpha virt. eigenvalues --    0.04015   0.04473   0.04637   0.05109   0.05364

 Mulliken charges:
               1
     1  Mg   0.980328
     2  C    0.029067
     3  C   -0.066077
     4  C   -0.049956
     5  C   -0.085371
     6  N   -0.369342
     7  C    0.032573
     8  C   -0.074385
     9  C   -0.183051
    10  C    0.070580
    11  C    0.046355
    12  C   -0.000427
    13  C    0.007872
    14  C    0.232343
    15  O   -0.301256
    16  O   -0.358892
    17  N   -0.521158
    18  C    0.184238
    19  C   -0.181785
    20  C   -0.062426
    21  C    0.130135
    22  C    0.043968
    23  C    0.072556
    24  O   -0.238709
    25  C   -0.012246
    26  N   -0.454423
    27  C    0.067597
    28  C   -0.108694
    29  C   -0.083715
    30  C    0.059639
    31  C    0.033560
    32  C   -0.014656
    33  C   -0.085417
    34  N   -0.415558
    35  C    0.166925
    36  C   -0.170667
    37  C   -0.079330
    38  C    0.129943
    39  C    0.092217
    40  C    0.164246
    41  O   -0.202323
    42  C   -0.179165
    43  C    0.269078
    44  O   -0.259777
    45  O   -0.379286
    46  C    0.102386
    47  C    0.240558
    48  C   -0.100257
    49  C   -0.282873
    50  C    0.020877
    51  C    0.010571
    52  C   -0.042281
    53  C   -0.023268
    54  C   -0.156405
    55  C   -0.032778
    56  C   -0.057907
    57  C   -0.014804
    58  C   -0.011345
    59  C   -0.223318
    60  C   -0.027058
    61  C    0.042993
    62  C   -0.041840
    63  C   -0.013268
    64  C   -0.251826
    65  C   -0.010614
    66  C   -0.009070
    67  H   -0.007911
    68  H    0.032238
    69  H    0.006983
    70  H    0.062450
    71  H    0.035464
    72  H    0.044511
    73  H    0.047510
    74  H    0.052941
    75  H    0.043515
    76  H    0.073443
    77  H    0.058325
    78  H    0.053092
    79  H    0.042707
    80  H    0.056380
    81  H    0.052343
    82  H    0.060855
    83  H    0.050683
    84  H    0.055098
    85  H    0.050195
    86  H    0.046446
    87  H    0.044789
    88  H    0.053670
    89  H    0.033244
    90  H    0.045146
    91  H    0.042131
    92  H    0.045054
    93  H    0.050402
    94  H    0.026671
    95  H    0.040985
    96  H    0.074930
    97  H    0.049631
    98  H    0.075202
    99  H    0.057351
   100  H    0.082335
   101  H    0.083979
   102  H    0.061372
   103  H    0.061555
   104  H    0.028274
   105  H    0.058089
   106  H    0.035219
   107  H    0.069743
   108  H    0.042948
   109  H    0.021534
   110  H    0.028892
   111  H    0.041323
   112  H    0.035362
   113  H    0.027206
   114  H    0.028702
   115  H    0.026715
   116  H    0.041358
   117  H    0.039057
   118  H    0.014760
   119  H    0.017663
   120  H    0.030070
   121  H    0.035017
   122  H    0.008286
   123  H    0.009675
   124  H    0.032196
   125  H    0.031115
   126  H    0.042887
   127  H    0.026495
   128  H    0.030399
   129  H    0.024755
   130  H    0.030747
   131  H    0.034714
   132  H    0.023650
   133  H    0.025319
   134  H    0.033985
   135  H    0.044937
   136  H    0.025336
   137  H    0.023904
   138  H    0.039907
   139  H    0.032762
   140  H    0.017683
 Sum of Mulliken charges =  -0.00000

 Dipole moment (field-independent basis, Debye):
    X=             -2.4511    Y=              4.2186    Z=              2.7375  Tot=              5.5945
 Quadrupole moment (field-independent basis, Debye-Ang):
   XX=           -358.9752   YY=           -412.8047   ZZ=           -410.5029
   XY=             11.6638   XZ=             18.4333   YZ=             -1.9946

 Normal termination of Gaussian 16 at Fri Apr 29 10:53:19 2022.
