 Gaussian 16, Revision A.03,
 Gaussian 16:  ES64L-G16RevA.03 25-Dec-2016

 --------------------------------
 #p wB97XD/Def2SVP td=(nstates=5)
 --------------------------------

 ---------------------------------------------------
 step_251_chromophore_4 TDDFT with wB97XD functional
 ---------------------------------------------------
 Symbolic Z-matrix:
 Charge =  0 Multiplicity = 1

                         Standard orientation:
 ---------------------------------------------------------------------
 Center     Atomic      Atomic             Coordinates (Angstroms)
 Number     Number       Type             X           Y           Z
 ---------------------------------------------------------------------
      1         12           0        5.865500    0.585470    0.096546
      2          6           0        3.730767   -2.156792   -0.031270
      3          6           0        3.214721    2.624583   -0.650619
      4          6           0        8.061548    3.185553   -0.079998
      5          6           0        8.498157   -1.746455    0.610908
      6          7           0        3.737515    0.269935   -0.328276
      7          6           0        3.092190   -0.931218   -0.195728
      8          6           0        1.603421   -0.649348   -0.412763
      9          6           0        1.521762    0.787659   -0.896101
     10          6           0        2.927935    1.274681   -0.565252
     11          6           0        1.102053    1.080075   -2.311665
     12          6           0        0.648447   -0.988348    0.828748
     13          6           0       -0.831764   -0.503842    0.702738
     14          6           0       -1.878833   -1.469945    0.089259
     15          8           0       -2.035626   -1.519776   -1.147066
     16          8           0       -2.542023   -2.297920    0.949603
     17          7           0        5.618786    2.629365   -0.165081
     18          6           0        4.468958    3.271221   -0.489829
     19          6           0        4.806785    4.660227   -0.661884
     20          6           0        6.215468    4.810982   -0.500348
     21          6           0        6.706634    3.528685   -0.261980
     22          6           0        3.742457    5.665785   -0.976270
     23          6           0        7.035113    6.114909   -0.725328
     24          8           0        8.239267    6.092610   -0.907224
     25          6           0        6.432214    7.431332   -0.857296
     26          7           0        7.853517    0.672945    0.243059
     27          6           0        8.579123    1.862541    0.187507
     28          6           0       10.085464    1.645160    0.413108
     29          6           0       10.119736    0.155657    0.897272
     30          6           0        8.707662   -0.323121    0.602854
     31          6           0       10.986919    2.099306   -0.659288
     32          6           0       10.622396   -0.181405    2.408513
     33          6           0       11.827988   -1.096396    2.643437
     34          7           0        6.122197   -1.592312    0.212351
     35          6           0        7.248473   -2.341997    0.405504
     36          6           0        6.943124   -3.732665    0.436728
     37          6           0        5.499235   -3.724001    0.338904
     38          6           0        5.073837   -2.384589    0.114901
     39          6           0        7.944345   -4.803362    0.649401
     40          6           0        4.330403   -4.569818    0.416617
     41          8           0        4.154143   -5.749277    0.650959
     42          6           0        3.092976   -3.525396    0.156308
     43          6           0        2.182556   -4.014785   -0.910198
     44          8           0        2.502115   -4.113195   -2.074640
     45          8           0        0.960124   -4.323007   -0.442757
     46          6           0       -0.125431   -4.585552   -1.463931
     47          6           0       -3.555471   -3.243041    0.384118
     48          6           0       -4.995234   -2.719901    0.333024
     49          6           0       -6.163722   -3.349350   -0.103044
     50          6           0       -6.247124   -4.836781   -0.440531
     51          6           0       -7.469519   -2.570624    0.001410
     52          6           0       -7.558808   -1.590388   -1.230871
     53          6           0       -7.694064   -0.116246   -0.854624
     54          6           0       -9.187794    0.406982   -0.974402
     55          6           0       -9.640431    0.757641   -2.491458
     56          6           0       -9.458890    1.567396    0.004393
     57          6           0      -10.090299    1.245023    1.370015
     58          6           0      -10.704895    2.537752    1.919810
     59          6           0      -12.048274    2.387518    2.659295
     60          6           0      -11.813224    3.190798    3.959302
     61          6           0      -13.226144    2.953594    1.823476
     62          6           0      -14.231123    1.886738    1.445316
     63          6           0      -14.517572    1.913203   -0.088560
     64          6           0      -14.361610    0.492346   -0.733179
     65          6           0      -13.563287    0.514427   -2.002772
     66          6           0      -15.692092   -0.150745   -1.051094
     67          1           0        2.364852    3.285288   -0.835544
     68          1           0        8.744147    4.034937   -0.148652
     69          1           0        9.427254   -2.288520    0.800022
     70          1           0        1.396916   -1.355595   -1.216802
     71          1           0        0.773583    1.321766   -0.310921
     72          1           0        2.069349    1.369916   -2.720919
     73          1           0        0.322832    1.840106   -2.370622
     74          1           0        0.823240    0.178510   -2.857564
     75          1           0        1.149762   -0.457794    1.638528
     76          1           0        0.645613   -2.062543    1.009887
     77          1           0       -0.912810    0.382974    0.075428
     78          1           0       -1.173585   -0.217332    1.697300
     79          1           0        2.703975    5.333320   -0.985993
     80          1           0        3.933117    5.979894   -2.001936
     81          1           0        3.819431    6.572110   -0.375319
     82          1           0        5.586692    7.579824   -1.528182
     83          1           0        7.126007    8.246338   -1.063074
     84          1           0        6.126007    7.639675    0.167639
     85          1           0       10.192286    2.296288    1.281133
     86          1           0       10.743199   -0.262241    0.107020
     87          1           0       11.677431    2.907415   -0.416425
     88          1           0       10.363797    2.429231   -1.490946
     89          1           0       11.661207    1.327586   -1.030403
     90          1           0        9.785334   -0.641851    2.932969
     91          1           0       10.872045    0.661215    3.054431
     92          1           0       11.580875   -2.107321    2.968624
     93          1           0       12.626543   -0.657570    3.240963
     94          1           0       12.275354   -1.296524    1.669731
     95          1           0        8.808242   -4.597889    0.017734
     96          1           0        7.535963   -5.800070    0.484540
     97          1           0        8.387214   -4.639606    1.632350
     98          1           0        2.516291   -3.528250    1.080688
     99          1           0       -0.853375   -5.146852   -0.878583
    100          1           0        0.299987   -5.165028   -2.283029
    101          1           0       -0.531987   -3.613272   -1.742680
    102          1           0       -3.483559   -4.205694    0.891564
    103          1           0       -3.253821   -3.496094   -0.632373
    104          1           0       -5.228060   -1.727112    0.718084
    105          1           0       -5.426945   -5.055519   -1.124465
    106          1           0       -7.211607   -5.025141   -0.913490
    107          1           0       -6.303677   -5.358713    0.514745
    108          1           0       -7.585980   -2.019598    0.934199
    109          1           0       -8.298907   -3.275986    0.039528
    110          1           0       -8.299707   -1.916628   -1.960972
    111          1           0       -6.648727   -1.604049   -1.828888
    112          1           0       -6.971145    0.400985   -1.485466
    113          1           0       -7.410281   -0.026289    0.194105
    114          1           0       -9.799567   -0.435361   -0.652859
    115          1           0       -8.769453    1.179219   -2.993198
    116          1           0      -10.410523    1.524418   -2.572531
    117          1           0       -9.948411   -0.082130   -3.115052
    118          1           0      -10.025218    2.396242   -0.419412
    119          1           0       -8.523775    2.091102    0.203365
    120          1           0       -9.150188    1.036837    1.880470
    121          1           0      -10.751745    0.380375    1.420545
    122          1           0      -10.784608    3.345892    1.193091
    123          1           0       -9.894600    3.009549    2.475133
    124          1           0      -12.263565    1.337905    2.858401
    125          1           0      -11.864385    4.244547    3.683761
    126          1           0      -10.861666    3.016144    4.462102
    127          1           0      -12.637617    3.023882    4.652766
    128          1           0      -12.723464    3.394668    0.962117
    129          1           0      -13.705870    3.692179    2.464729
    130          1           0      -15.159492    2.134009    1.959871
    131          1           0      -13.954045    0.855532    1.664901
    132          1           0      -13.813066    2.583252   -0.580328
    133          1           0      -15.505803    2.337689   -0.269900
    134          1           0      -13.875282   -0.130432    0.017524
    135          1           0      -12.652226   -0.065117   -1.856272
    136          1           0      -13.272434    1.492701   -2.388998
    137          1           0      -14.097354    0.190936   -2.896112
    138          1           0      -15.644431   -1.220481   -0.847164
    139          1           0      -16.109058    0.044290   -2.039332
    140          1           0      -16.464209    0.309239   -0.435013
 ---------------------------------------------------------------------

 SCF Done:  E(RwB97XD) =  -3007.85181576     A.U. after   17 cycles

 Excitation energies and oscillator strengths:

 Excited State   1:      Singlet-A      1.6395 eV  756.23 nm  f=0.3898  <S**2>=0.000
     245 -> 248       -0.18483
     246 -> 247        0.68347
     245 <- 248       -0.11762
 This state for optimization and/or second-order correction.
 Total Energy, E(TD-HF/TD-DFT) =  -3007.79156473
 Copying the excited state density for this state as the 1-particle RhoCI density.

 Excited State   2:      Singlet-A      2.1621 eV  573.44 nm  f=0.0977  <S**2>=0.000
     245 -> 247        0.63067
     246 -> 248        0.30277

 Excited State   3:      Singlet-A      3.2561 eV  380.77 nm  f=0.0003  <S**2>=0.000
     242 -> 247       -0.23476
     243 -> 247        0.63879

 Excited State   4:      Singlet-A      3.3648 eV  368.48 nm  f=0.0762  <S**2>=0.000
     242 -> 247        0.55818
     243 -> 247        0.15756
     246 -> 248       -0.35727

 Excited State   5:      Singlet-A      3.4925 eV  355.00 nm  f=0.0432  <S**2>=0.000
     241 -> 247        0.56926
     241 -> 249       -0.28416
     241 -> 250       -0.15906
     246 -> 248        0.18132

 The electronic state is 1-A.
 Alpha  occ. eigenvalues --  -46.94171 -19.31391 -19.29361 -19.24828 -19.24059
 Alpha  occ. eigenvalues --  -19.23642 -19.22954 -14.47278 -14.46573 -14.43633
 Alpha  occ. eigenvalues --  -14.42969 -10.44158 -10.41573 -10.39504 -10.38596
 Alpha  occ. eigenvalues --  -10.37241 -10.35619 -10.35242 -10.35105 -10.35062
 Alpha  occ. eigenvalues --  -10.34384 -10.33820 -10.33696 -10.32919 -10.32506
 Alpha  occ. eigenvalues --  -10.32413 -10.32221 -10.32131 -10.32129 -10.32038
 Alpha  occ. eigenvalues --  -10.31780 -10.31641 -10.31583 -10.31230 -10.31189
 Alpha  occ. eigenvalues --  -10.31134 -10.31087 -10.30963 -10.30898 -10.30884
 Alpha  occ. eigenvalues --  -10.30851 -10.30834 -10.30468 -10.30388 -10.30329
 Alpha  occ. eigenvalues --  -10.30115 -10.30067 -10.29969 -10.29363 -10.29281
 Alpha  occ. eigenvalues --  -10.29238 -10.29202 -10.29144 -10.29130 -10.29076
 Alpha  occ. eigenvalues --  -10.28925 -10.28682 -10.28652 -10.28457 -10.28283
 Alpha  occ. eigenvalues --  -10.28258 -10.28231 -10.28101 -10.28084 -10.27752
 Alpha  occ. eigenvalues --  -10.27550  -3.20247  -1.93859  -1.93373  -1.93225
 Alpha  occ. eigenvalues --   -1.18245  -1.17741  -1.13151  -1.11658  -1.09144
 Alpha  occ. eigenvalues --   -1.08662  -1.07189  -1.06071  -1.05283  -1.04365
 Alpha  occ. eigenvalues --   -0.94331  -0.92089  -0.91733  -0.91386  -0.90531
 Alpha  occ. eigenvalues --   -0.90400  -0.90277  -0.89500  -0.89204  -0.88861
 Alpha  occ. eigenvalues --   -0.88637  -0.87472  -0.86431  -0.85866  -0.85259
 Alpha  occ. eigenvalues --   -0.84507  -0.84308  -0.83585  -0.83148  -0.82546
 Alpha  occ. eigenvalues --   -0.81628  -0.80759  -0.80204  -0.79628  -0.77811
 Alpha  occ. eigenvalues --   -0.77647  -0.77175  -0.77091  -0.76150  -0.75983
 Alpha  occ. eigenvalues --   -0.75207  -0.74660  -0.73711  -0.72887  -0.70923
 Alpha  occ. eigenvalues --   -0.70635  -0.70336  -0.69044  -0.68483  -0.67586
 Alpha  occ. eigenvalues --   -0.67389  -0.67310  -0.67238  -0.66289  -0.66154
 Alpha  occ. eigenvalues --   -0.65616  -0.65249  -0.64426  -0.63155  -0.62484
 Alpha  occ. eigenvalues --   -0.61662  -0.61640  -0.60932  -0.60782  -0.59898
 Alpha  occ. eigenvalues --   -0.59258  -0.59051  -0.58274  -0.57771  -0.57119
 Alpha  occ. eigenvalues --   -0.56896  -0.56733  -0.56408  -0.56366  -0.55980
 Alpha  occ. eigenvalues --   -0.55640  -0.54976  -0.54869  -0.54826  -0.54561
 Alpha  occ. eigenvalues --   -0.54291  -0.54204  -0.54138  -0.53866  -0.53802
 Alpha  occ. eigenvalues --   -0.53344  -0.53092  -0.52980  -0.52783  -0.52684
 Alpha  occ. eigenvalues --   -0.52440  -0.52361  -0.52192  -0.52082  -0.51665
 Alpha  occ. eigenvalues --   -0.51403  -0.51354  -0.51141  -0.50867  -0.50695
 Alpha  occ. eigenvalues --   -0.50585  -0.50418  -0.50051  -0.49851  -0.49743
 Alpha  occ. eigenvalues --   -0.49604  -0.49301  -0.48949  -0.48829  -0.48687
 Alpha  occ. eigenvalues --   -0.48499  -0.48450  -0.48226  -0.47992  -0.47910
 Alpha  occ. eigenvalues --   -0.47783  -0.47624  -0.47026  -0.46851  -0.46794
 Alpha  occ. eigenvalues --   -0.46725  -0.46436  -0.46255  -0.46048  -0.45974
 Alpha  occ. eigenvalues --   -0.45824  -0.45647  -0.45499  -0.45272  -0.45170
 Alpha  occ. eigenvalues --   -0.45037  -0.44710  -0.44491  -0.44194  -0.43949
 Alpha  occ. eigenvalues --   -0.43679  -0.43562  -0.43248  -0.43074  -0.42862
 Alpha  occ. eigenvalues --   -0.42375  -0.42343  -0.42122  -0.42031  -0.41941
 Alpha  occ. eigenvalues --   -0.41530  -0.41457  -0.41184  -0.41058  -0.40660
 Alpha  occ. eigenvalues --   -0.40627  -0.40127  -0.39754  -0.39401  -0.39198
 Alpha  occ. eigenvalues --   -0.39176  -0.38916  -0.38862  -0.38303  -0.38121
 Alpha  occ. eigenvalues --   -0.37803  -0.37254  -0.37055  -0.36145  -0.36053
 Alpha  occ. eigenvalues --   -0.35821  -0.35391  -0.34772  -0.33211  -0.33114
 Alpha  occ. eigenvalues --   -0.32147  -0.31852  -0.31152  -0.30863  -0.26067
 Alpha  occ. eigenvalues --   -0.22879
 Alpha virt. eigenvalues --   -0.07101   0.00077   0.02719   0.04892   0.06106
 Alpha virt. eigenvalues --    0.06556   0.06724   0.07882   0.08587   0.09615
 Alpha virt. eigenvalues --    0.10429   0.11317   0.11335   0.11750   0.12096

 Mulliken charges:
               1
     1  Mg   0.970192
     2  C    0.028183
     3  C   -0.087657
     4  C   -0.071987
     5  C   -0.105601
     6  N   -0.331561
     7  C   -0.005333
     8  C   -0.043333
     9  C   -0.157125
    10  C    0.061889
    11  C    0.054354
    12  C    0.016215
    13  C    0.026569
    14  C    0.216930
    15  O   -0.297744
    16  O   -0.357811
    17  N   -0.488284
    18  C    0.172414
    19  C   -0.166434
    20  C   -0.057645
    21  C    0.126183
    22  C    0.053227
    23  C    0.071680
    24  O   -0.233751
    25  C   -0.004475
    26  N   -0.422947
    27  C    0.060915
    28  C   -0.086748
    29  C   -0.053541
    30  C    0.048458
    31  C    0.042980
    32  C   -0.002704
    33  C   -0.069032
    34  N   -0.373936
    35  C    0.159914
    36  C   -0.166865
    37  C   -0.076057
    38  C    0.112183
    39  C    0.102582
    40  C    0.145971
    41  O   -0.193257
    42  C   -0.141200
    43  C    0.241661
    44  O   -0.253438
    45  O   -0.376081
    46  C    0.121282
    47  C    0.259320
    48  C   -0.115597
    49  C   -0.264539
    50  C    0.036209
    51  C    0.026259
    52  C   -0.028666
    53  C   -0.004965
    54  C   -0.126588
    55  C   -0.019802
    56  C   -0.038772
    57  C    0.002874
    58  C    0.002738
    59  C   -0.194396
    60  C   -0.010699
    61  C    0.058051
    62  C   -0.023245
    63  C    0.000378
    64  C   -0.218171
    65  C    0.002166
    66  C    0.002251
    67  H   -0.015770
    68  H    0.028603
    69  H    0.001571
    70  H    0.045047
    71  H    0.021588
    72  H    0.036094
    73  H    0.043704
    74  H    0.049093
    75  H    0.035847
    76  H    0.060498
    77  H    0.050003
    78  H    0.049128
    79  H    0.040026
    80  H    0.050262
    81  H    0.046967
    82  H    0.056754
    83  H    0.050074
    84  H    0.049593
    85  H    0.038290
    86  H    0.031826
    87  H    0.040474
    88  H    0.046868
    89  H    0.027935
    90  H    0.036022
    91  H    0.035383
    92  H    0.039344
    93  H    0.045654
    94  H    0.018557
    95  H    0.034776
    96  H    0.072679
    97  H    0.044077
    98  H    0.067243
    99  H    0.054350
   100  H    0.079626
   101  H    0.075735
   102  H    0.057658
   103  H    0.053790
   104  H    0.023747
   105  H    0.053038
   106  H    0.029514
   107  H    0.064242
   108  H    0.034650
   109  H    0.014943
   110  H    0.020792
   111  H    0.031983
   112  H    0.028636
   113  H    0.013061
   114  H    0.012885
   115  H    0.020067
   116  H    0.034165
   117  H    0.034025
   118  H    0.001637
   119  H    0.008099
   120  H    0.019617
   121  H    0.026504
   122  H   -0.002293
   123  H    0.000851
   124  H    0.019506
   125  H    0.022676
   126  H    0.036734
   127  H    0.020735
   128  H    0.017447
   129  H    0.017204
   130  H    0.024025
   131  H    0.022343
   132  H    0.010948
   133  H    0.017973
   134  H    0.022021
   135  H    0.036692
   136  H    0.018672
   137  H    0.017895
   138  H    0.035066
   139  H    0.026275
   140  H    0.010218
 Sum of Mulliken charges =  -0.00000

 Dipole moment (field-independent basis, Debye):
    X=             -2.5523    Y=              4.3571    Z=              2.7223  Tot=              5.7366
 Quadrupole moment (field-independent basis, Debye-Ang):
   XX=           -360.0361   YY=           -410.9261   ZZ=           -410.1582
   XY=             12.9351   XZ=             18.2891   YZ=             -2.0236

 Normal termination of Gaussian 16 at Fri Apr 29 11:15:13 2022.
