 Gaussian 16, Revision A.03,
 Gaussian 16:  ES64L-G16RevA.03 25-Dec-2016

 --------------------
 #p ZINDO=(nstates=5)
 --------------------

 ----------------------------
 step_251_chromophore_4 ZINDO
 ----------------------------
 Symbolic Z-matrix:
 Charge =  0 Multiplicity = 1

                         Standard orientation:
 ---------------------------------------------------------------------
 Center     Atomic      Atomic             Coordinates (Angstroms)
 Number     Number       Type             X           Y           Z
 ---------------------------------------------------------------------
      1         12           0        5.865500    0.585470    0.096546
      2          6           0        3.730767   -2.156792   -0.031270
      3          6           0        3.214721    2.624583   -0.650619
      4          6           0        8.061548    3.185553   -0.079998
      5          6           0        8.498157   -1.746455    0.610908
      6          7           0        3.737515    0.269935   -0.328276
      7          6           0        3.092190   -0.931218   -0.195728
      8          6           0        1.603421   -0.649348   -0.412763
      9          6           0        1.521762    0.787659   -0.896101
     10          6           0        2.927935    1.274681   -0.565252
     11          6           0        1.102053    1.080075   -2.311665
     12          6           0        0.648447   -0.988348    0.828748
     13          6           0       -0.831764   -0.503842    0.702738
     14          6           0       -1.878833   -1.469945    0.089259
     15          8           0       -2.035626   -1.519776   -1.147066
     16          8           0       -2.542023   -2.297920    0.949603
     17          7           0        5.618786    2.629365   -0.165081
     18          6           0        4.468958    3.271221   -0.489829
     19          6           0        4.806785    4.660227   -0.661884
     20          6           0        6.215468    4.810982   -0.500348
     21          6           0        6.706634    3.528685   -0.261980
     22          6           0        3.742457    5.665785   -0.976270
     23          6           0        7.035113    6.114909   -0.725328
     24          8           0        8.239267    6.092610   -0.907224
     25          6           0        6.432214    7.431332   -0.857296
     26          7           0        7.853517    0.672945    0.243059
     27          6           0        8.579123    1.862541    0.187507
     28          6           0       10.085464    1.645160    0.413108
     29          6           0       10.119736    0.155657    0.897272
     30          6           0        8.707662   -0.323121    0.602854
     31          6           0       10.986919    2.099306   -0.659288
     32          6           0       10.622396   -0.181405    2.408513
     33          6           0       11.827988   -1.096396    2.643437
     34          7           0        6.122197   -1.592312    0.212351
     35          6           0        7.248473   -2.341997    0.405504
     36          6           0        6.943124   -3.732665    0.436728
     37          6           0        5.499235   -3.724001    0.338904
     38          6           0        5.073837   -2.384589    0.114901
     39          6           0        7.944345   -4.803362    0.649401
     40          6           0        4.330403   -4.569818    0.416617
     41          8           0        4.154143   -5.749277    0.650959
     42          6           0        3.092976   -3.525396    0.156308
     43          6           0        2.182556   -4.014785   -0.910198
     44          8           0        2.502115   -4.113195   -2.074640
     45          8           0        0.960124   -4.323007   -0.442757
     46          6           0       -0.125431   -4.585552   -1.463931
     47          6           0       -3.555471   -3.243041    0.384118
     48          6           0       -4.995234   -2.719901    0.333024
     49          6           0       -6.163722   -3.349350   -0.103044
     50          6           0       -6.247124   -4.836781   -0.440531
     51          6           0       -7.469519   -2.570624    0.001410
     52          6           0       -7.558808   -1.590388   -1.230871
     53          6           0       -7.694064   -0.116246   -0.854624
     54          6           0       -9.187794    0.406982   -0.974402
     55          6           0       -9.640431    0.757641   -2.491458
     56          6           0       -9.458890    1.567396    0.004393
     57          6           0      -10.090299    1.245023    1.370015
     58          6           0      -10.704895    2.537752    1.919810
     59          6           0      -12.048274    2.387518    2.659295
     60          6           0      -11.813224    3.190798    3.959302
     61          6           0      -13.226144    2.953594    1.823476
     62          6           0      -14.231123    1.886738    1.445316
     63          6           0      -14.517572    1.913203   -0.088560
     64          6           0      -14.361610    0.492346   -0.733179
     65          6           0      -13.563287    0.514427   -2.002772
     66          6           0      -15.692092   -0.150745   -1.051094
     67          1           0        2.364852    3.285288   -0.835544
     68          1           0        8.744147    4.034937   -0.148652
     69          1           0        9.427254   -2.288520    0.800022
     70          1           0        1.396916   -1.355595   -1.216802
     71          1           0        0.773583    1.321766   -0.310921
     72          1           0        2.069349    1.369916   -2.720919
     73          1           0        0.322832    1.840106   -2.370622
     74          1           0        0.823240    0.178510   -2.857564
     75          1           0        1.149762   -0.457794    1.638528
     76          1           0        0.645613   -2.062543    1.009887
     77          1           0       -0.912810    0.382974    0.075428
     78          1           0       -1.173585   -0.217332    1.697300
     79          1           0        2.703975    5.333320   -0.985993
     80          1           0        3.933117    5.979894   -2.001936
     81          1           0        3.819431    6.572110   -0.375319
     82          1           0        5.586692    7.579824   -1.528182
     83          1           0        7.126007    8.246338   -1.063074
     84          1           0        6.126007    7.639675    0.167639
     85          1           0       10.192286    2.296288    1.281133
     86          1           0       10.743199   -0.262241    0.107020
     87          1           0       11.677431    2.907415   -0.416425
     88          1           0       10.363797    2.429231   -1.490946
     89          1           0       11.661207    1.327586   -1.030403
     90          1           0        9.785334   -0.641851    2.932969
     91          1           0       10.872045    0.661215    3.054431
     92          1           0       11.580875   -2.107321    2.968624
     93          1           0       12.626543   -0.657570    3.240963
     94          1           0       12.275354   -1.296524    1.669731
     95          1           0        8.808242   -4.597889    0.017734
     96          1           0        7.535963   -5.800070    0.484540
     97          1           0        8.387214   -4.639606    1.632350
     98          1           0        2.516291   -3.528250    1.080688
     99          1           0       -0.853375   -5.146852   -0.878583
    100          1           0        0.299987   -5.165028   -2.283029
    101          1           0       -0.531987   -3.613272   -1.742680
    102          1           0       -3.483559   -4.205694    0.891564
    103          1           0       -3.253821   -3.496094   -0.632373
    104          1           0       -5.228060   -1.727112    0.718084
    105          1           0       -5.426945   -5.055519   -1.124465
    106          1           0       -7.211607   -5.025141   -0.913490
    107          1           0       -6.303677   -5.358713    0.514745
    108          1           0       -7.585980   -2.019598    0.934199
    109          1           0       -8.298907   -3.275986    0.039528
    110          1           0       -8.299707   -1.916628   -1.960972
    111          1           0       -6.648727   -1.604049   -1.828888
    112          1           0       -6.971145    0.400985   -1.485466
    113          1           0       -7.410281   -0.026289    0.194105
    114          1           0       -9.799567   -0.435361   -0.652859
    115          1           0       -8.769453    1.179219   -2.993198
    116          1           0      -10.410523    1.524418   -2.572531
    117          1           0       -9.948411   -0.082130   -3.115052
    118          1           0      -10.025218    2.396242   -0.419412
    119          1           0       -8.523775    2.091102    0.203365
    120          1           0       -9.150188    1.036837    1.880470
    121          1           0      -10.751745    0.380375    1.420545
    122          1           0      -10.784608    3.345892    1.193091
    123          1           0       -9.894600    3.009549    2.475133
    124          1           0      -12.263565    1.337905    2.858401
    125          1           0      -11.864385    4.244547    3.683761
    126          1           0      -10.861666    3.016144    4.462102
    127          1           0      -12.637617    3.023882    4.652766
    128          1           0      -12.723464    3.394668    0.962117
    129          1           0      -13.705870    3.692179    2.464729
    130          1           0      -15.159492    2.134009    1.959871
    131          1           0      -13.954045    0.855532    1.664901
    132          1           0      -13.813066    2.583252   -0.580328
    133          1           0      -15.505803    2.337689   -0.269900
    134          1           0      -13.875282   -0.130432    0.017524
    135          1           0      -12.652226   -0.065117   -1.856272
    136          1           0      -13.272434    1.492701   -2.388998
    137          1           0      -14.097354    0.190936   -2.896112
    138          1           0      -15.644431   -1.220481   -0.847164
    139          1           0      -16.109058    0.044290   -2.039332
    140          1           0      -16.464209    0.309239   -0.435013
 ---------------------------------------------------------------------

 SCF Done:  E(RZINDO/S) =  -474.406158972     A.U. after   21 cycles

 Excitation energies and oscillator strengths:

 Excited State   1:      Singlet-A      1.2476 eV  993.75 nm  f=0.6209  <S**2>=0.000
     175 ->178        -0.19628
     176 ->177         0.66151
 This state for optimization and/or second-order correction.
 Total Energy, E(CIS/TDA) =  -474.360309132
 Copying the excited state density for this state as the 1-particle RhoCI density.

 Excited State   2:      Singlet-A      1.9338 eV  641.15 nm  f=0.0338  <S**2>=0.000
     175 ->177         0.53609
     176 ->178         0.43848

 Excited State   3:      Singlet-A      2.9575 eV  419.21 nm  f=0.0212  <S**2>=0.000
     168 ->177         0.10721
     168 ->179        -0.15524
     168 ->181        -0.19228
     168 ->186        -0.12580
     169 ->177         0.21195
     169 ->178        -0.12703
     169 ->179        -0.28263
     169 ->181        -0.34707
     169 ->186        -0.21605

 Excited State   4:      Singlet-A      3.0207 eV  410.44 nm  f=0.4427  <S**2>=0.000
     170 ->177        -0.17778
     170 ->179        -0.20173
     170 ->181         0.12852
     170 ->187        -0.10582
     172 ->177         0.17046
     173 ->177        -0.20980
     175 ->177        -0.25094
     176 ->178         0.34906
     176 ->179        -0.26546

 Excited State   5:      Singlet-A      3.0715 eV  403.65 nm  f=0.5315  <S**2>=0.000
     170 ->177         0.28214
     170 ->179         0.29292
     170 ->181        -0.20820
     170 ->186         0.14134
     170 ->187         0.15195
     175 ->177        -0.25918
     176 ->178         0.32628

 The electronic state is 1-A.
 Alpha  occ. eigenvalues --   -1.85420  -1.82516  -1.80747  -1.72548  -1.72151
 Alpha  occ. eigenvalues --   -1.70023  -1.66114  -1.60942  -1.60175  -1.57470
 Alpha  occ. eigenvalues --   -1.56261  -1.50371  -1.48611  -1.47774  -1.44796
 Alpha  occ. eigenvalues --   -1.44100  -1.42488  -1.40972  -1.39574  -1.39501
 Alpha  occ. eigenvalues --   -1.37203  -1.34858  -1.33346  -1.32339  -1.28878
 Alpha  occ. eigenvalues --   -1.27506  -1.24682  -1.22138  -1.20883  -1.19216
 Alpha  occ. eigenvalues --   -1.17921  -1.15607  -1.15177  -1.13473  -1.12888
 Alpha  occ. eigenvalues --   -1.11331  -1.11108  -1.10743  -1.04602  -1.02909
 Alpha  occ. eigenvalues --   -1.01969  -1.01496  -0.99158  -0.98132  -0.97254
 Alpha  occ. eigenvalues --   -0.96790  -0.96200  -0.93738  -0.92827  -0.92573
 Alpha  occ. eigenvalues --   -0.92321  -0.90944  -0.89373  -0.88580  -0.86925
 Alpha  occ. eigenvalues --   -0.86539  -0.83819  -0.82314  -0.81371  -0.79742
 Alpha  occ. eigenvalues --   -0.79468  -0.78374  -0.77211  -0.76622  -0.75626
 Alpha  occ. eigenvalues --   -0.74962  -0.74558  -0.74201  -0.73793  -0.73112
 Alpha  occ. eigenvalues --   -0.73024  -0.72672  -0.72178  -0.72096  -0.71479
 Alpha  occ. eigenvalues --   -0.69821  -0.69424  -0.68731  -0.68498  -0.67341
 Alpha  occ. eigenvalues --   -0.66972  -0.66562  -0.66334  -0.65793  -0.65397
 Alpha  occ. eigenvalues --   -0.65217  -0.65077  -0.63982  -0.63630  -0.63555
 Alpha  occ. eigenvalues --   -0.63132  -0.62942  -0.62663  -0.62524  -0.61936
 Alpha  occ. eigenvalues --   -0.61755  -0.61407  -0.61180  -0.60557  -0.60313
 Alpha  occ. eigenvalues --   -0.60237  -0.59645  -0.59223  -0.58785  -0.58167
 Alpha  occ. eigenvalues --   -0.57766  -0.57612  -0.57274  -0.56817  -0.56610
 Alpha  occ. eigenvalues --   -0.56163  -0.55783  -0.55633  -0.54931  -0.54519
 Alpha  occ. eigenvalues --   -0.54266  -0.54089  -0.53526  -0.53286  -0.53237
 Alpha  occ. eigenvalues --   -0.52927  -0.52495  -0.52387  -0.51996  -0.51470
 Alpha  occ. eigenvalues --   -0.50964  -0.50928  -0.50455  -0.50086  -0.49832
 Alpha  occ. eigenvalues --   -0.49561  -0.49358  -0.49165  -0.48800  -0.48640
 Alpha  occ. eigenvalues --   -0.48531  -0.48177  -0.48065  -0.47750  -0.47727
 Alpha  occ. eigenvalues --   -0.47377  -0.46897  -0.46847  -0.46746  -0.46255
 Alpha  occ. eigenvalues --   -0.46172  -0.45646  -0.45574  -0.45365  -0.45075
 Alpha  occ. eigenvalues --   -0.44972  -0.44862  -0.44710  -0.44437  -0.44112
 Alpha  occ. eigenvalues --   -0.43244  -0.43128  -0.42676  -0.42415  -0.41922
 Alpha  occ. eigenvalues --   -0.41494  -0.40964  -0.40447  -0.39037  -0.38813
 Alpha  occ. eigenvalues --   -0.37455  -0.36425  -0.35503  -0.34859  -0.34498
 Alpha  occ. eigenvalues --   -0.32756  -0.32239  -0.31832  -0.30795  -0.26630
 Alpha  occ. eigenvalues --   -0.21655
 Alpha virt. eigenvalues --   -0.08445  -0.02087  -0.00196   0.01234   0.01785
 Alpha virt. eigenvalues --    0.02914   0.03402   0.03559   0.04043   0.04814
 Alpha virt. eigenvalues --    0.06399   0.06820   0.07390   0.07620   0.08020

 Mulliken charges:
               1
     1  Mg   0.416779
     2  C   -0.031824
     3  C   -0.090677
     4  C   -0.064493
     5  C   -0.071516
     6  N   -0.272612
     7  C    0.116011
     8  C    0.004093
     9  C    0.004599
    10  C    0.155276
    11  C   -0.051419
    12  C   -0.018018
    13  C    0.007929
    14  C    0.467319
    15  O   -0.533186
    16  O   -0.263576
    17  N   -0.343902
    18  C    0.117302
    19  C    0.003729
    20  C   -0.038830
    21  C    0.127608
    22  C   -0.045432
    23  C    0.336915
    24  O   -0.524177
    25  C   -0.023229
    26  N   -0.249012
    27  C    0.123417
    28  C    0.009608
    29  C   -0.003200
    30  C    0.118047
    31  C   -0.040156
    32  C   -0.029711
    33  C   -0.057872
    34  N   -0.331919
    35  C    0.097558
    36  C    0.035815
    37  C   -0.066854
    38  C    0.132843
    39  C   -0.031752
    40  C    0.328100
    41  O   -0.514377
    42  C    0.045545
    43  C    0.493152
    44  O   -0.527997
    45  O   -0.280127
    46  C    0.071840
    47  C    0.113660
    48  C   -0.104071
    49  C   -0.010809
    50  C   -0.043427
    51  C   -0.016950
    52  C   -0.033378
    53  C   -0.032242
    54  C   -0.012459
    55  C   -0.064292
    56  C   -0.036460
    57  C   -0.039572
    58  C   -0.039242
    59  C   -0.016390
    60  C   -0.055704
    61  C   -0.035019
    62  C   -0.038265
    63  C   -0.042140
    64  C   -0.004752
    65  C   -0.056285
    66  C   -0.054151
    67  H    0.023444
    68  H    0.057892
    69  H    0.035501
    70  H    0.035781
    71  H    0.018502
    72  H    0.025155
    73  H    0.028622
    74  H    0.028319
    75  H    0.025215
    76  H    0.034377
    77  H    0.043393
    78  H    0.028583
    79  H    0.027044
    80  H    0.024989
    81  H    0.024658
    82  H    0.037833
    83  H    0.034541
    84  H    0.032643
    85  H    0.025106
    86  H    0.033707
    87  H    0.022970
    88  H    0.025278
    89  H    0.016427
    90  H    0.018648
    91  H    0.024112
    92  H    0.022690
    93  H    0.026016
    94  H    0.008505
    95  H    0.026507
    96  H    0.042014
    97  H    0.033048
    98  H    0.041262
    99  H    0.032358
   100  H    0.060854
   101  H    0.052891
   102  H    0.042734
   103  H    0.052162
   104  H    0.032372
   105  H    0.036637
   106  H    0.018798
   107  H    0.037846
   108  H    0.026561
   109  H    0.015205
   110  H    0.019668
   111  H    0.017342
   112  H    0.025752
   113  H    0.019513
   114  H    0.017099
   115  H    0.013447
   116  H    0.021570
   117  H    0.021710
   118  H    0.013285
   119  H    0.010539
   120  H    0.017214
   121  H    0.030539
   122  H    0.018386
   123  H    0.011670
   124  H    0.024611
   125  H    0.015706
   126  H    0.021284
   127  H    0.006873
   128  H    0.030133
   129  H    0.021549
   130  H    0.015795
   131  H    0.029399
   132  H    0.017342
   133  H    0.019365
   134  H    0.023310
   135  H    0.015533
   136  H    0.013444
   137  H    0.016259
   138  H    0.018186
   139  H    0.020852
   140  H    0.005759
 Sum of Mulliken charges =  -0.00000

 Dipole moment (field-independent basis, Debye):
    X=             -3.2369    Y=              6.3765    Z=              4.5507  Tot=              8.4762
 N-N= 4.276109084281D+03 E-N= 0.000000000000D+00  KE=-9.226905220139D+03
 Leave Link  601 at Fri Apr 29 11:27:17 2022, MaxMem=  6710886400 cpu:               0.8 elap:               0.1
 (Enter /sw/apps/gaussian-16.0/g16/l9999.exe)
 1\1\GINC-BP1-COMPUTE162\SP\RZINDO CIS\STO-3G\C55H74Mg1N4O6\OF15641\29-
 Apr-2022\0\\#p ZINDO=(nstates=5)\\step_251_chromophore_4 ZINDO\\0,1\Mg
 ,0,8.883,3.356,27.867\C,0,10.383,1.753,30.564\C,0,7.387,5.531,30.052\C
 ,0,7.195,4.678,25.218\C,0,10.337,0.837,25.824\N,0,8.856,3.591,30.047\C
 ,0,9.65,2.884,30.911\C,0,9.435,3.497,32.297\C,0,8.277,4.467,32.144\C,0
 ,8.191,4.563,30.625\C,0,6.957,4.169,32.803\C,0,10.74,4.123,32.985\C,0,
 10.495,4.942,34.293\C,0,10.565,4.203,35.655\O,0,9.556,3.625,36.106\O,0

 Normal termination of Gaussian 16 at Fri Apr 29 11:27:17 2022.
