 Gaussian 16, Revision A.03,
 Gaussian 16:  ES64L-G16RevA.03 25-Dec-2016

 ------------------------------
 #p blyp/Def2SVP td=(nstates=5)
 ------------------------------

 --------------------------------------------------
 step_351_chromophore_14 TDDFT with blyp functional
 --------------------------------------------------
 Symbolic Z-matrix:
 Charge =  0 Multiplicity = 1

                         Standard orientation:
 ---------------------------------------------------------------------
 Center     Atomic      Atomic             Coordinates (Angstroms)
 Number     Number       Type             X           Y           Z
 ---------------------------------------------------------------------
      1         12           0        4.982867    1.037147   -0.230113
      2          6           0        4.800906   -2.445882    0.451402
      3          6           0        3.765784    0.257895   -3.412203
      4          6           0        4.633702    4.305374   -0.689823
      5          6           0        5.793174    1.566770    3.066153
      6          7           0        4.155040   -0.895856   -1.251087
      7          6           0        4.301121   -2.168834   -0.818109
      8          6           0        3.957192   -3.146016   -1.911058
      9          6           0        4.074104   -2.329875   -3.231463
     10          6           0        4.038009   -0.868449   -2.665485
     11          6           0        5.382924   -2.507219   -4.064257
     12          6           0        2.657017   -4.012069   -1.726877
     13          6           0        1.556492   -3.578909   -0.797468
     14          6           0        0.095788   -4.052990   -1.023466
     15          8           0       -0.308828   -5.023324   -1.641977
     16          8           0       -0.772116   -3.120832   -0.413949
     17          7           0        4.324867    2.163456   -1.869908
     18          6           0        3.809050    1.666779   -3.041672
     19          6           0        3.277143    2.784339   -3.832094
     20          6           0        3.516424    3.934151   -3.089976
     21          6           0        4.235815    3.502296   -1.836392
     22          6           0        2.754028    2.709792   -5.281561
     23          6           0        3.107133    5.351998   -3.421955
     24          8           0        2.534919    5.445772   -4.455208
     25          6           0        3.295641    6.615747   -2.542100
     26          7           0        5.147667    2.728299    1.024856
     27          6           0        5.037286    3.958351    0.613437
     28          6           0        5.192448    5.016003    1.713038
     29          6           0        5.541454    4.125016    2.852340
     30          6           0        5.500883    2.713668    2.321414
     31          6           0        6.152236    6.233394    1.484173
     32          6           0        4.746075    4.434456    4.181681
     33          6           0        5.605945    4.599565    5.472566
     34          7           0        5.406138   -0.194872    1.454360
     35          6           0        5.765023    0.187923    2.720889
     36          6           0        5.899934   -1.001695    3.557085
     37          6           0        5.518857   -2.046675    2.713864
     38          6           0        5.203592   -1.479227    1.444461
     39          6           0        6.356805   -1.019174    4.968174
     40          6           0        5.368209   -3.449471    2.568337
     41          8           0        5.394053   -4.299027    3.429920
     42          6           0        4.931940   -3.755633    1.103202
     43          6           0        6.017351   -4.609935    0.457039
     44          8           0        5.765965   -5.757914    0.156485
     45          8           0        7.230534   -4.017306    0.422474
     46          6           0        8.443388   -4.885267    0.436113
     47          6           0       -2.186112   -3.342628   -0.789018
     48          6           0       -2.796857   -2.001847   -0.726464
     49          6           0       -3.558276   -1.280538   -1.599580
     50          6           0       -4.256013   -1.661054   -2.894169
     51          6           0       -4.102376    0.068602   -1.098442
     52          6           0       -5.487604    0.076650   -0.578478
     53          6           0       -5.729934    0.584978    0.849069
     54          6           0       -7.240250    0.557441    1.064303
     55          6           0       -7.497733    1.245804    2.432069
     56          6           0       -8.016641   -0.755263    0.909024
     57          6           0       -9.060544   -0.815270   -0.253484
     58          6           0      -10.289890   -1.700185    0.102069
     59          6           0      -11.397886   -0.845747    0.856407
     60          6           0      -11.559939   -1.227819    2.300123
     61          6           0      -12.810579   -0.856117    0.158701
     62          6           0      -13.755373    0.075141    0.906507
     63          6           0      -15.032386    0.424557    0.082979
     64          6           0      -15.878590    1.544785    0.750682
     65          6           0      -17.374469    1.124108    0.821223
     66          6           0      -15.865253    2.886711    0.018403
     67          1           0        3.481332   -0.024127   -4.428238
     68          1           0        4.555623    5.386710   -0.816260
     69          1           0        6.040997    1.679262    4.123768
     70          1           0        4.756142   -3.882267   -1.819935
     71          1           0        3.134086   -2.462391   -3.767153
     72          1           0        5.074755   -2.857351   -5.049493
     73          1           0        6.124514   -3.177984   -3.631341
     74          1           0        5.856651   -1.544898   -4.255895
     75          1           0        3.016502   -5.020265   -1.517171
     76          1           0        2.206580   -4.077877   -2.717401
     77          1           0        1.623731   -2.503076   -0.959211
     78          1           0        1.797631   -3.884579    0.220325
     79          1           0        2.928540    1.698709   -5.649947
     80          1           0        3.250646    3.469113   -5.885467
     81          1           0        1.674583    2.859465   -5.305411
     82          1           0        4.363595    6.806997   -2.441635
     83          1           0        2.895036    6.484518   -1.536933
     84          1           0        2.777405    7.468245   -2.981638
     85          1           0        4.191315    5.411304    1.888966
     86          1           0        6.617616    4.232064    2.985298
     87          1           0        5.595279    7.059720    1.927268
     88          1           0        6.225611    6.335528    0.401423
     89          1           0        7.131185    6.027618    1.915713
     90          1           0        4.107203    3.551166    4.182604
     91          1           0        4.102726    5.306356    4.070052
     92          1           0        5.231530    4.051913    6.337262
     93          1           0        5.544128    5.673543    5.645700
     94          1           0        6.620188    4.259778    5.259295
     95          1           0        7.021961   -0.162767    5.085516
     96          1           0        6.936979   -1.925467    5.142053
     97          1           0        5.627238   -0.858356    5.761725
     98          1           0        3.952488   -4.230722    1.158740
     99          1           0        8.998233   -4.614485   -0.461909
    100          1           0        8.126510   -5.900244    0.678129
    101          1           0        9.027086   -4.633061    1.321569
    102          1           0       -2.686667   -3.911705   -0.005652
    103          1           0       -2.489323   -3.804901   -1.728094
    104          1           0       -2.298255   -1.431430    0.057532
    105          1           0       -3.967166   -2.659565   -3.224667
    106          1           0       -4.086324   -1.002216   -3.745895
    107          1           0       -5.321315   -1.851650   -2.762697
    108          1           0       -4.157241    0.871282   -1.833592
    109          1           0       -3.425416    0.473706   -0.346442
    110          1           0       -5.794093   -0.965085   -0.671934
    111          1           0       -5.988937    0.705529   -1.313182
    112          1           0       -5.459528    1.639863    0.844270
    113          1           0       -5.209888    0.116484    1.684967
    114          1           0       -7.639064    1.315531    0.390571
    115          1           0       -7.024175    0.753868    3.282085
    116          1           0       -8.580116    1.319374    2.541762
    117          1           0       -7.108893    2.259547    2.336347
    118          1           0       -8.559656   -0.898637    1.843355
    119          1           0       -7.332261   -1.586636    0.743317
    120          1           0       -8.688731   -1.161869   -1.217762
    121          1           0       -9.436020    0.188310   -0.453599
    122          1           0       -9.902277   -2.472669    0.765734
    123          1           0      -10.687571   -2.104274   -0.829201
    124          1           0      -10.994131    0.165993    0.904500
    125          1           0      -10.811603   -1.949056    2.628239
    126          1           0      -12.468636   -1.812505    2.442788
    127          1           0      -11.562477   -0.372872    2.976873
    128          1           0      -13.204020   -1.869481    0.077913
    129          1           0      -12.623003   -0.491306   -0.850268
    130          1           0      -13.164902    0.990879    0.903999
    131          1           0      -13.981957   -0.192041    1.938084
    132          1           0      -15.600814   -0.438866   -0.262774
    133          1           0      -14.666691    0.766631   -0.884243
    134          1           0      -15.439087    1.597222    1.746465
    135          1           0      -17.666794    1.557732    1.777656
    136          1           0      -17.455761    0.037170    0.779853
    137          1           0      -18.045998    1.540633    0.071425
    138          1           0      -16.140792    2.698117   -1.019554
    139          1           0      -14.820895    3.178344    0.121580
    140          1           0      -16.528746    3.675514    0.373724
 ---------------------------------------------------------------------

 SCF Done:  E(RB-LYP) =  -3007.37469526     A.U. after   22 cycles

 Excitation energies and oscillator strengths:

 Excited State   1:      Singlet-A      1.7867 eV  693.91 nm  f=0.0734  <S**2>=0.000
     244 -> 247        0.48082
     245 -> 247        0.36922
     246 -> 247        0.35034
 This state for optimization and/or second-order correction.
 Total Energy, E(TD-HF/TD-DFT) =  -3007.30903396
 Copying the excited state density for this state as the 1-particle RhoCI density.

 Excited State   2:      Singlet-A      1.8438 eV  672.46 nm  f=0.2404  <S**2>=0.000
     243 -> 247        0.20905
     244 -> 247       -0.26813
     245 -> 247       -0.20090
     245 -> 248        0.16096
     246 -> 247        0.57060
     246 <- 247       -0.12575

 Excited State   3:      Singlet-A      1.8715 eV  662.49 nm  f=0.0245  <S**2>=0.000
     243 -> 247        0.67245
     244 -> 247        0.12900
     246 -> 247       -0.16929

 Excited State   4:      Singlet-A      2.0250 eV  612.25 nm  f=0.0739  <S**2>=0.000
     244 -> 247       -0.41669
     245 -> 247        0.51836
     246 -> 248       -0.19471

 Excited State   5:      Singlet-A      2.3192 eV  534.61 nm  f=0.0000  <S**2>=0.000
     242 -> 247        0.70703

 The electronic state is 1-A.
 Alpha  occ. eigenvalues --  -46.28456 -18.82398 -18.81828 -18.77401 -18.76366
 Alpha  occ. eigenvalues --  -18.75386 -18.75245 -14.03476 -14.02926 -14.01716
 Alpha  occ. eigenvalues --  -14.00950 -10.04444 -10.04046  -9.99776  -9.98873
 Alpha  occ. eigenvalues --   -9.98702  -9.97239  -9.96630  -9.96501  -9.96446
 Alpha  occ. eigenvalues --   -9.96399  -9.96344  -9.96144  -9.95621  -9.94534
 Alpha  occ. eigenvalues --   -9.94422  -9.93959  -9.93807  -9.93745  -9.93636
 Alpha  occ. eigenvalues --   -9.93536  -9.93517  -9.93460  -9.93352  -9.93351
 Alpha  occ. eigenvalues --   -9.93305  -9.93246  -9.93156  -9.93089  -9.92981
 Alpha  occ. eigenvalues --   -9.92804  -9.92669  -9.92648  -9.92600  -9.92516
 Alpha  occ. eigenvalues --   -9.92318  -9.92180  -9.91954  -9.91685  -9.91470
 Alpha  occ. eigenvalues --   -9.91446  -9.91217  -9.91163  -9.91141  -9.91093
 Alpha  occ. eigenvalues --   -9.91055  -9.91027  -9.90923  -9.90766  -9.90656
 Alpha  occ. eigenvalues --   -9.90630  -9.90613  -9.90546  -9.90476  -9.90235
 Alpha  occ. eigenvalues --   -9.90090  -2.92906  -1.73337  -1.72793  -1.72614
 Alpha  occ. eigenvalues --   -0.98047  -0.96826  -0.93797  -0.91719  -0.90102
 Alpha  occ. eigenvalues --   -0.89630  -0.88878  -0.87156  -0.85789  -0.84745
 Alpha  occ. eigenvalues --   -0.75877  -0.73756  -0.73522  -0.72825  -0.72513
 Alpha  occ. eigenvalues --   -0.71959  -0.71840  -0.71073  -0.70824  -0.70385
 Alpha  occ. eigenvalues --   -0.69344  -0.69028  -0.68160  -0.67762  -0.67275
 Alpha  occ. eigenvalues --   -0.66794  -0.65940  -0.65119  -0.65022  -0.64634
 Alpha  occ. eigenvalues --   -0.64192  -0.62816  -0.62602  -0.61700  -0.61140
 Alpha  occ. eigenvalues --   -0.60411  -0.60046  -0.59509  -0.59357  -0.58761
 Alpha  occ. eigenvalues --   -0.58441  -0.57861  -0.56855  -0.55654  -0.55410
 Alpha  occ. eigenvalues --   -0.54164  -0.53323  -0.52625  -0.52605  -0.51365
 Alpha  occ. eigenvalues --   -0.51082  -0.50864  -0.50697  -0.50374  -0.49685
 Alpha  occ. eigenvalues --   -0.49548  -0.49322  -0.48813  -0.48438  -0.46841
 Alpha  occ. eigenvalues --   -0.46536  -0.45928  -0.45722  -0.44665  -0.44553
 Alpha  occ. eigenvalues --   -0.43997  -0.43886  -0.43422  -0.43073  -0.42668
 Alpha  occ. eigenvalues --   -0.42553  -0.42273  -0.42065  -0.41343  -0.41161
 Alpha  occ. eigenvalues --   -0.41052  -0.40654  -0.40469  -0.40088  -0.40005
 Alpha  occ. eigenvalues --   -0.39695  -0.39588  -0.39379  -0.39291  -0.39053
 Alpha  occ. eigenvalues --   -0.38939  -0.38803  -0.38708  -0.38424  -0.38326
 Alpha  occ. eigenvalues --   -0.38175  -0.37798  -0.37725  -0.37524  -0.37420
 Alpha  occ. eigenvalues --   -0.37152  -0.36944  -0.36906  -0.36565  -0.36474
 Alpha  occ. eigenvalues --   -0.36352  -0.36056  -0.35979  -0.35913  -0.35766
 Alpha  occ. eigenvalues --   -0.35630  -0.35192  -0.35132  -0.34953  -0.34823
 Alpha  occ. eigenvalues --   -0.34581  -0.34518  -0.34430  -0.34180  -0.33852
 Alpha  occ. eigenvalues --   -0.33722  -0.33689  -0.33438  -0.33223  -0.33185
 Alpha  occ. eigenvalues --   -0.33021  -0.32907  -0.32871  -0.32797  -0.32554
 Alpha  occ. eigenvalues --   -0.32275  -0.32033  -0.31904  -0.31820  -0.31755
 Alpha  occ. eigenvalues --   -0.31558  -0.31500  -0.31244  -0.31170  -0.31031
 Alpha  occ. eigenvalues --   -0.30920  -0.30564  -0.30302  -0.30268  -0.29902
 Alpha  occ. eigenvalues --   -0.29484  -0.29317  -0.29076  -0.28824  -0.28743
 Alpha  occ. eigenvalues --   -0.28700  -0.28140  -0.27904  -0.27870  -0.27581
 Alpha  occ. eigenvalues --   -0.27402  -0.27016  -0.26966  -0.26586  -0.26472
 Alpha  occ. eigenvalues --   -0.26247  -0.26230  -0.25924  -0.25582  -0.25208
 Alpha  occ. eigenvalues --   -0.25080  -0.24831  -0.24520  -0.23939  -0.23692
 Alpha  occ. eigenvalues --   -0.23495  -0.22421  -0.22132  -0.21267  -0.21049
 Alpha  occ. eigenvalues --   -0.20764  -0.20238  -0.18514  -0.18422  -0.17084
 Alpha  occ. eigenvalues --   -0.16044
 Alpha virt. eigenvalues --   -0.11715  -0.06665  -0.05578  -0.04345  -0.03166
 Alpha virt. eigenvalues --   -0.02959  -0.02264  -0.01833  -0.01533   0.00094
 Alpha virt. eigenvalues --    0.00846   0.01665   0.02200   0.02498   0.02964

 Mulliken charges:
               1
     1  Mg   0.686888
     2  C    0.005671
     3  C   -0.034416
     4  C   -0.040163
     5  C   -0.083013
     6  N   -0.210961
     7  C   -0.111267
     8  C    0.036274
     9  C    0.027218
    10  C   -0.034371
    11  C    0.143381
    12  C    0.098339
    13  C    0.106941
    14  C    0.106881
    15  O   -0.172533
    16  O   -0.296845
    17  N   -0.266382
    18  C    0.129058
    19  C   -0.160201
    20  C    0.042347
    21  C    0.104047
    22  C    0.204445
    23  C   -0.105708
    24  O   -0.135561
    25  C    0.143004
    26  N   -0.175533
    27  C   -0.044683
    28  C   -0.019905
    29  C    0.072939
    30  C    0.015705
    31  C    0.158749
    32  C    0.090169
    33  C    0.067148
    34  N   -0.202040
    35  C    0.062945
    36  C   -0.172028
    37  C    0.150385
    38  C    0.020108
    39  C    0.166838
    40  C   -0.129640
    41  O   -0.121518
    42  C    0.107950
    43  C    0.103359
    44  O   -0.163984
    45  O   -0.283839
    46  C    0.214478
    47  C    0.369265
    48  C   -0.140169
    49  C   -0.101052
    50  C    0.128760
    51  C    0.154073
    52  C    0.050389
    53  C    0.120452
    54  C   -0.092326
    55  C    0.106437
    56  C    0.145977
    57  C    0.032836
    58  C    0.125727
    59  C   -0.095755
    60  C    0.116084
    61  C    0.106421
    62  C    0.040085
    63  C    0.103152
    64  C   -0.062438
    65  C    0.091977
    66  C    0.109769
    67  H   -0.057460
    68  H   -0.106030
    69  H   -0.077863
    70  H   -0.031375
    71  H   -0.022153
    72  H   -0.004643
    73  H    0.005332
    74  H   -0.007401
    75  H   -0.006447
    76  H   -0.029274
    77  H    0.018760
    78  H    0.015658
    79  H   -0.031322
    80  H    0.014836
    81  H    0.001658
    82  H    0.016629
    83  H    0.010123
    84  H   -0.010016
    85  H   -0.020981
    86  H   -0.034047
    87  H   -0.000848
    88  H   -0.006621
    89  H   -0.004986
    90  H   -0.017319
    91  H   -0.018987
    92  H    0.001326
    93  H   -0.001623
    94  H    0.000813
    95  H   -0.020383
    96  H    0.008654
    97  H    0.007288
    98  H   -0.012754
    99  H    0.033131
   100  H    0.032851
   101  H    0.013614
   102  H   -0.010022
   103  H   -0.003702
   104  H   -0.024924
   105  H   -0.035193
   106  H    0.005427
   107  H   -0.000497
   108  H   -0.052873
   109  H   -0.048894
   110  H   -0.022442
   111  H   -0.034082
   112  H   -0.046743
   113  H   -0.030651
   114  H   -0.045785
   115  H   -0.013921
   116  H   -0.020432
   117  H   -0.027945
   118  H   -0.038503
   119  H   -0.026047
   120  H   -0.033912
   121  H   -0.035534
   122  H   -0.032977
   123  H   -0.042192
   124  H   -0.033973
   125  H   -0.028285
   126  H   -0.028477
   127  H   -0.012125
   128  H   -0.027793
   129  H   -0.038005
   130  H   -0.035390
   131  H   -0.008594
   132  H   -0.041313
   133  H   -0.059805
   134  H   -0.035208
   135  H   -0.018069
   136  H   -0.018372
   137  H   -0.016340
   138  H   -0.013173
   139  H   -0.020562
   140  H   -0.011155
 Sum of Mulliken charges =  -0.00000

 Dipole moment (field-independent basis, Debye):
    X=              2.9938    Y=              5.7037    Z=              0.8038  Tot=              6.4917
 Quadrupole moment (field-independent basis, Debye-Ang):
   XX=           -360.5577   YY=           -432.4932   ZZ=           -410.1694
   XY=             20.0976   XZ=              3.6700   YZ=             32.8885

 Normal termination of Gaussian 16 at Fri Apr 29 15:07:02 2022.
