 Gaussian 16, Revision A.03,
 Gaussian 16:  ES64L-G16RevA.03 25-Dec-2016

 -----------------------------------
 #p cam-b3lyp/Def2SVP td=(nstates=5)
 -----------------------------------

 -------------------------------------------------------
 step_351_chromophore_14 TDDFT with cam-b3lyp functional
 -------------------------------------------------------
 Symbolic Z-matrix:
 Charge =  0 Multiplicity = 1

                         Standard orientation:
 ---------------------------------------------------------------------
 Center     Atomic      Atomic             Coordinates (Angstroms)
 Number     Number       Type             X           Y           Z
 ---------------------------------------------------------------------
      1         12           0        4.982867    1.037147   -0.230113
      2          6           0        4.800906   -2.445882    0.451402
      3          6           0        3.765784    0.257895   -3.412203
      4          6           0        4.633702    4.305374   -0.689823
      5          6           0        5.793174    1.566770    3.066153
      6          7           0        4.155040   -0.895856   -1.251087
      7          6           0        4.301121   -2.168834   -0.818109
      8          6           0        3.957192   -3.146016   -1.911058
      9          6           0        4.074104   -2.329875   -3.231463
     10          6           0        4.038009   -0.868449   -2.665485
     11          6           0        5.382924   -2.507219   -4.064257
     12          6           0        2.657017   -4.012069   -1.726877
     13          6           0        1.556492   -3.578909   -0.797468
     14          6           0        0.095788   -4.052990   -1.023466
     15          8           0       -0.308828   -5.023324   -1.641977
     16          8           0       -0.772116   -3.120832   -0.413949
     17          7           0        4.324867    2.163456   -1.869908
     18          6           0        3.809050    1.666779   -3.041672
     19          6           0        3.277143    2.784339   -3.832094
     20          6           0        3.516424    3.934151   -3.089976
     21          6           0        4.235815    3.502296   -1.836392
     22          6           0        2.754028    2.709792   -5.281561
     23          6           0        3.107133    5.351998   -3.421955
     24          8           0        2.534919    5.445772   -4.455208
     25          6           0        3.295641    6.615747   -2.542100
     26          7           0        5.147667    2.728299    1.024856
     27          6           0        5.037286    3.958351    0.613437
     28          6           0        5.192448    5.016003    1.713038
     29          6           0        5.541454    4.125016    2.852340
     30          6           0        5.500883    2.713668    2.321414
     31          6           0        6.152236    6.233394    1.484173
     32          6           0        4.746075    4.434456    4.181681
     33          6           0        5.605945    4.599565    5.472566
     34          7           0        5.406138   -0.194872    1.454360
     35          6           0        5.765023    0.187923    2.720889
     36          6           0        5.899934   -1.001695    3.557085
     37          6           0        5.518857   -2.046675    2.713864
     38          6           0        5.203592   -1.479227    1.444461
     39          6           0        6.356805   -1.019174    4.968174
     40          6           0        5.368209   -3.449471    2.568337
     41          8           0        5.394053   -4.299027    3.429920
     42          6           0        4.931940   -3.755633    1.103202
     43          6           0        6.017351   -4.609935    0.457039
     44          8           0        5.765965   -5.757914    0.156485
     45          8           0        7.230534   -4.017306    0.422474
     46          6           0        8.443388   -4.885267    0.436113
     47          6           0       -2.186112   -3.342628   -0.789018
     48          6           0       -2.796857   -2.001847   -0.726464
     49          6           0       -3.558276   -1.280538   -1.599580
     50          6           0       -4.256013   -1.661054   -2.894169
     51          6           0       -4.102376    0.068602   -1.098442
     52          6           0       -5.487604    0.076650   -0.578478
     53          6           0       -5.729934    0.584978    0.849069
     54          6           0       -7.240250    0.557441    1.064303
     55          6           0       -7.497733    1.245804    2.432069
     56          6           0       -8.016641   -0.755263    0.909024
     57          6           0       -9.060544   -0.815270   -0.253484
     58          6           0      -10.289890   -1.700185    0.102069
     59          6           0      -11.397886   -0.845747    0.856407
     60          6           0      -11.559939   -1.227819    2.300123
     61          6           0      -12.810579   -0.856117    0.158701
     62          6           0      -13.755373    0.075141    0.906507
     63          6           0      -15.032386    0.424557    0.082979
     64          6           0      -15.878590    1.544785    0.750682
     65          6           0      -17.374469    1.124108    0.821223
     66          6           0      -15.865253    2.886711    0.018403
     67          1           0        3.481332   -0.024127   -4.428238
     68          1           0        4.555623    5.386710   -0.816260
     69          1           0        6.040997    1.679262    4.123768
     70          1           0        4.756142   -3.882267   -1.819935
     71          1           0        3.134086   -2.462391   -3.767153
     72          1           0        5.074755   -2.857351   -5.049493
     73          1           0        6.124514   -3.177984   -3.631341
     74          1           0        5.856651   -1.544898   -4.255895
     75          1           0        3.016502   -5.020265   -1.517171
     76          1           0        2.206580   -4.077877   -2.717401
     77          1           0        1.623731   -2.503076   -0.959211
     78          1           0        1.797631   -3.884579    0.220325
     79          1           0        2.928540    1.698709   -5.649947
     80          1           0        3.250646    3.469113   -5.885467
     81          1           0        1.674583    2.859465   -5.305411
     82          1           0        4.363595    6.806997   -2.441635
     83          1           0        2.895036    6.484518   -1.536933
     84          1           0        2.777405    7.468245   -2.981638
     85          1           0        4.191315    5.411304    1.888966
     86          1           0        6.617616    4.232064    2.985298
     87          1           0        5.595279    7.059720    1.927268
     88          1           0        6.225611    6.335528    0.401423
     89          1           0        7.131185    6.027618    1.915713
     90          1           0        4.107203    3.551166    4.182604
     91          1           0        4.102726    5.306356    4.070052
     92          1           0        5.231530    4.051913    6.337262
     93          1           0        5.544128    5.673543    5.645700
     94          1           0        6.620188    4.259778    5.259295
     95          1           0        7.021961   -0.162767    5.085516
     96          1           0        6.936979   -1.925467    5.142053
     97          1           0        5.627238   -0.858356    5.761725
     98          1           0        3.952488   -4.230722    1.158740
     99          1           0        8.998233   -4.614485   -0.461909
    100          1           0        8.126510   -5.900244    0.678129
    101          1           0        9.027086   -4.633061    1.321569
    102          1           0       -2.686667   -3.911705   -0.005652
    103          1           0       -2.489323   -3.804901   -1.728094
    104          1           0       -2.298255   -1.431430    0.057532
    105          1           0       -3.967166   -2.659565   -3.224667
    106          1           0       -4.086324   -1.002216   -3.745895
    107          1           0       -5.321315   -1.851650   -2.762697
    108          1           0       -4.157241    0.871282   -1.833592
    109          1           0       -3.425416    0.473706   -0.346442
    110          1           0       -5.794093   -0.965085   -0.671934
    111          1           0       -5.988937    0.705529   -1.313182
    112          1           0       -5.459528    1.639863    0.844270
    113          1           0       -5.209888    0.116484    1.684967
    114          1           0       -7.639064    1.315531    0.390571
    115          1           0       -7.024175    0.753868    3.282085
    116          1           0       -8.580116    1.319374    2.541762
    117          1           0       -7.108893    2.259547    2.336347
    118          1           0       -8.559656   -0.898637    1.843355
    119          1           0       -7.332261   -1.586636    0.743317
    120          1           0       -8.688731   -1.161869   -1.217762
    121          1           0       -9.436020    0.188310   -0.453599
    122          1           0       -9.902277   -2.472669    0.765734
    123          1           0      -10.687571   -2.104274   -0.829201
    124          1           0      -10.994131    0.165993    0.904500
    125          1           0      -10.811603   -1.949056    2.628239
    126          1           0      -12.468636   -1.812505    2.442788
    127          1           0      -11.562477   -0.372872    2.976873
    128          1           0      -13.204020   -1.869481    0.077913
    129          1           0      -12.623003   -0.491306   -0.850268
    130          1           0      -13.164902    0.990879    0.903999
    131          1           0      -13.981957   -0.192041    1.938084
    132          1           0      -15.600814   -0.438866   -0.262774
    133          1           0      -14.666691    0.766631   -0.884243
    134          1           0      -15.439087    1.597222    1.746465
    135          1           0      -17.666794    1.557732    1.777656
    136          1           0      -17.455761    0.037170    0.779853
    137          1           0      -18.045998    1.540633    0.071425
    138          1           0      -16.140792    2.698117   -1.019554
    139          1           0      -14.820895    3.178344    0.121580
    140          1           0      -16.528746    3.675514    0.373724
 ---------------------------------------------------------------------

 SCF Done:  E(RCAM-B3LYP) =  -3007.17633445     A.U. after   18 cycles

 Excitation energies and oscillator strengths:

 Excited State   1:      Singlet-A      1.7088 eV  725.55 nm  f=0.3773  <S**2>=0.000
     245 -> 248       -0.17477
     246 -> 247        0.68606
     245 <- 248       -0.10704
 This state for optimization and/or second-order correction.
 Total Energy, E(TD-HF/TD-DFT) =  -3007.11353630
 Copying the excited state density for this state as the 1-particle RhoCI density.

 Excited State   2:      Singlet-A      2.1775 eV  569.38 nm  f=0.1349  <S**2>=0.000
     245 -> 247        0.65398
     246 -> 248        0.25652

 Excited State   3:      Singlet-A      3.3758 eV  367.27 nm  f=0.0046  <S**2>=0.000
     241 -> 247       -0.16427
     242 -> 247        0.20348
     242 -> 249       -0.16701
     243 -> 247        0.54307
     243 -> 249       -0.18114
     246 -> 248       -0.13077

 Excited State   4:      Singlet-A      3.5032 eV  353.92 nm  f=0.0018  <S**2>=0.000
     242 -> 247        0.62453
     243 -> 247       -0.27641

 Excited State   5:      Singlet-A      3.5908 eV  345.28 nm  f=0.1448  <S**2>=0.000
     239 -> 247        0.16755
     240 -> 247       -0.12457
     241 -> 247        0.48185
     243 -> 247        0.12082
     245 -> 247        0.11812
     246 -> 248       -0.40606

 The electronic state is 1-A.
 Alpha  occ. eigenvalues --  -46.90155 -19.25269 -19.24662 -19.20404 -19.19388
 Alpha  occ. eigenvalues --  -19.18728 -19.18325 -14.42388 -14.41781 -14.40372
 Alpha  occ. eigenvalues --  -14.39327 -10.39805 -10.39347 -10.34962 -10.34021
 Alpha  occ. eigenvalues --  -10.32699 -10.31202 -10.31074 -10.31073 -10.31061
 Alpha  occ. eigenvalues --  -10.30957 -10.30943 -10.30548 -10.29736 -10.28647
 Alpha  occ. eigenvalues --  -10.28594 -10.28220 -10.28188 -10.27939 -10.27761
 Alpha  occ. eigenvalues --  -10.27581 -10.27546 -10.27529 -10.27383 -10.27325
 Alpha  occ. eigenvalues --  -10.27289 -10.27269 -10.27261 -10.27236 -10.27126
 Alpha  occ. eigenvalues --  -10.26824 -10.26815 -10.26521 -10.26518 -10.26315
 Alpha  occ. eigenvalues --  -10.26175 -10.25856 -10.25804 -10.25382 -10.25350
 Alpha  occ. eigenvalues --  -10.25191 -10.24868 -10.24816 -10.24793 -10.24720
 Alpha  occ. eigenvalues --  -10.24670 -10.24641 -10.24599 -10.24575 -10.24335
 Alpha  occ. eigenvalues --  -10.24331 -10.24189 -10.24113 -10.24083 -10.23811
 Alpha  occ. eigenvalues --  -10.23647  -3.18498  -1.93408  -1.92949  -1.92795
 Alpha  occ. eigenvalues --   -1.16532  -1.15241  -1.12421  -1.10058  -1.08012
 Alpha  occ. eigenvalues --   -1.07428  -1.06746  -1.04757  -1.03555  -1.02361
 Alpha  occ. eigenvalues --   -0.92990  -0.90595  -0.90270  -0.89614  -0.89255
 Alpha  occ. eigenvalues --   -0.88690  -0.88516  -0.87699  -0.87403  -0.86917
 Alpha  occ. eigenvalues --   -0.85980  -0.85471  -0.84428  -0.83913  -0.83469
 Alpha  occ. eigenvalues --   -0.82884  -0.81993  -0.81031  -0.80830  -0.80525
 Alpha  occ. eigenvalues --   -0.79970  -0.78453  -0.78176  -0.77383  -0.76619
 Alpha  occ. eigenvalues --   -0.75809  -0.75345  -0.74811  -0.74638  -0.73979
 Alpha  occ. eigenvalues --   -0.73515  -0.72850  -0.71774  -0.70453  -0.70055
 Alpha  occ. eigenvalues --   -0.68778  -0.67874  -0.67181  -0.66758  -0.65589
 Alpha  occ. eigenvalues --   -0.65232  -0.64888  -0.64790  -0.64480  -0.63710
 Alpha  occ. eigenvalues --   -0.63287  -0.63059  -0.62708  -0.62289  -0.60518
 Alpha  occ. eigenvalues --   -0.60064  -0.59471  -0.59342  -0.58161  -0.57958
 Alpha  occ. eigenvalues --   -0.57512  -0.57189  -0.56621  -0.56263  -0.55824
 Alpha  occ. eigenvalues --   -0.55549  -0.55328  -0.55045  -0.54127  -0.54120
 Alpha  occ. eigenvalues --   -0.53885  -0.53570  -0.53407  -0.53149  -0.53039
 Alpha  occ. eigenvalues --   -0.52425  -0.52233  -0.52193  -0.51906  -0.51671
 Alpha  occ. eigenvalues --   -0.51643  -0.51365  -0.51193  -0.50774  -0.50751
 Alpha  occ. eigenvalues --   -0.50455  -0.50027  -0.49939  -0.49887  -0.49712
 Alpha  occ. eigenvalues --   -0.49562  -0.49352  -0.49276  -0.49096  -0.48933
 Alpha  occ. eigenvalues --   -0.48631  -0.48570  -0.48319  -0.47994  -0.47786
 Alpha  occ. eigenvalues --   -0.47613  -0.47286  -0.47127  -0.46999  -0.46897
 Alpha  occ. eigenvalues --   -0.46574  -0.46508  -0.46314  -0.46214  -0.45839
 Alpha  occ. eigenvalues --   -0.45631  -0.45448  -0.45044  -0.45034  -0.44851
 Alpha  occ. eigenvalues --   -0.44731  -0.44664  -0.44626  -0.44331  -0.44042
 Alpha  occ. eigenvalues --   -0.43980  -0.43767  -0.43583  -0.43434  -0.43334
 Alpha  occ. eigenvalues --   -0.43217  -0.43008  -0.42767  -0.42684  -0.42451
 Alpha  occ. eigenvalues --   -0.42246  -0.41814  -0.41687  -0.41522  -0.41439
 Alpha  occ. eigenvalues --   -0.41211  -0.40468  -0.40227  -0.39856  -0.39823
 Alpha  occ. eigenvalues --   -0.39710  -0.39315  -0.38851  -0.38779  -0.38611
 Alpha  occ. eigenvalues --   -0.38231  -0.37915  -0.37701  -0.37687  -0.37347
 Alpha  occ. eigenvalues --   -0.37198  -0.36925  -0.36831  -0.36521  -0.36251
 Alpha  occ. eigenvalues --   -0.36122  -0.35621  -0.35154  -0.34791  -0.34154
 Alpha  occ. eigenvalues --   -0.34046  -0.33994  -0.33051  -0.31209  -0.30807
 Alpha  occ. eigenvalues --   -0.30522  -0.30471  -0.30028  -0.29708  -0.23901
 Alpha  occ. eigenvalues --   -0.21393
 Alpha virt. eigenvalues --   -0.08951  -0.01493   0.00993   0.02000   0.02788
 Alpha virt. eigenvalues --    0.04665   0.05118   0.05669   0.06015   0.06512
 Alpha virt. eigenvalues --    0.07646   0.08419   0.08672   0.08750   0.09308

 Mulliken charges:
               1
     1  Mg   0.818667
     2  C   -0.024761
     3  C   -0.048653
     4  C   -0.061461
     5  C   -0.086005
     6  N   -0.275311
     7  C   -0.064781
     8  C   -0.013816
     9  C   -0.029515
    10  C   -0.019598
    11  C    0.084639
    12  C    0.051756
    13  C    0.036639
    14  C    0.190553
    15  O   -0.213551
    16  O   -0.361852
    17  N   -0.355467
    18  C    0.137294
    19  C   -0.162331
    20  C   -0.026056
    21  C    0.135347
    22  C    0.153492
    23  C   -0.032977
    24  O   -0.175112
    25  C    0.063653
    26  N   -0.253413
    27  C   -0.015665
    28  C   -0.073312
    29  C    0.012254
    30  C    0.033937
    31  C    0.103315
    32  C    0.032278
    33  C    0.006507
    34  N   -0.293364
    35  C    0.066837
    36  C   -0.165404
    37  C    0.068440
    38  C    0.062331
    39  C    0.116037
    40  C   -0.029885
    41  O   -0.160662
    42  C    0.027449
    43  C    0.190556
    44  O   -0.203913
    45  O   -0.346146
    46  C    0.177528
    47  C    0.331791
    48  C   -0.153104
    49  C   -0.130795
    50  C    0.067818
    51  C    0.091990
    52  C    0.000625
    53  C    0.067152
    54  C   -0.152100
    55  C    0.054228
    56  C    0.084697
    57  C   -0.014708
    58  C    0.071482
    59  C   -0.146882
    60  C    0.049673
    61  C    0.056107
    62  C   -0.018357
    63  C    0.051724
    64  C   -0.124280
    65  C    0.032227
    66  C    0.051447
    67  H   -0.022835
    68  H   -0.071388
    69  H   -0.042459
    70  H    0.005074
    71  H    0.013304
    72  H    0.019872
    73  H    0.029966
    74  H    0.018977
    75  H    0.024517
    76  H    0.002399
    77  H    0.049585
    78  H    0.043442
    79  H   -0.006418
    80  H    0.041657
    81  H    0.029875
    82  H    0.041757
    83  H    0.037435
    84  H    0.026755
    85  H    0.013634
    86  H    0.000843
    87  H    0.023343
    88  H    0.016189
    89  H    0.020146
    90  H    0.012907
    91  H    0.008756
    92  H    0.025300
    93  H    0.020769
    94  H    0.021406
    95  H    0.003305
    96  H    0.035332
    97  H    0.034116
    98  H    0.028589
    99  H    0.054654
   100  H    0.058693
   101  H    0.035705
   102  H    0.018290
   103  H    0.025865
   104  H    0.008557
   105  H   -0.009264
   106  H    0.030494
   107  H    0.023419
   108  H   -0.020563
   109  H   -0.016537
   110  H    0.001055
   111  H   -0.005716
   112  H   -0.017123
   113  H   -0.002091
   114  H   -0.013426
   115  H    0.009711
   116  H    0.001775
   117  H   -0.003131
   118  H   -0.010013
   119  H    0.003235
   120  H   -0.006056
   121  H   -0.008614
   122  H   -0.004414
   123  H   -0.010980
   124  H   -0.005197
   125  H   -0.002574
   126  H   -0.002276
   127  H    0.012435
   128  H   -0.000431
   129  H   -0.009385
   130  H   -0.008704
   131  H    0.017742
   132  H   -0.011642
   133  H   -0.029327
   134  H   -0.003134
   135  H    0.006365
   136  H    0.005760
   137  H    0.007623
   138  H    0.009382
   139  H    0.002755
   140  H    0.013697
 Sum of Mulliken charges =  -0.00000

 Dipole moment (field-independent basis, Debye):
    X=              3.1851    Y=              6.3274    Z=              0.4960  Tot=              7.1012
 Quadrupole moment (field-independent basis, Debye-Ang):
   XX=           -359.5414   YY=           -429.3060   ZZ=           -408.3597
   XY=             21.7187   XZ=              3.5086   YZ=             33.1367

 Normal termination of Gaussian 16 at Fri Apr 29 14:03:18 2022.
