 Gaussian 16, Revision A.03,
 Gaussian 16:  ES64L-G16RevA.03 25-Dec-2016

 ---------------------------------
 #p PBE1PBE/Def2SVP td=(nstates=5)
 ---------------------------------

 -----------------------------------------------------
 step_351_chromophore_14 TDDFT with PBE1PBE functional
 -----------------------------------------------------
 Symbolic Z-matrix:
 Charge =  0 Multiplicity = 1

                         Standard orientation:
 ---------------------------------------------------------------------
 Center     Atomic      Atomic             Coordinates (Angstroms)
 Number     Number       Type             X           Y           Z
 ---------------------------------------------------------------------
      1         12           0        4.982867    1.037147   -0.230113
      2          6           0        4.800906   -2.445882    0.451402
      3          6           0        3.765784    0.257895   -3.412203
      4          6           0        4.633702    4.305374   -0.689823
      5          6           0        5.793174    1.566770    3.066153
      6          7           0        4.155040   -0.895856   -1.251087
      7          6           0        4.301121   -2.168834   -0.818109
      8          6           0        3.957192   -3.146016   -1.911058
      9          6           0        4.074104   -2.329875   -3.231463
     10          6           0        4.038009   -0.868449   -2.665485
     11          6           0        5.382924   -2.507219   -4.064257
     12          6           0        2.657017   -4.012069   -1.726877
     13          6           0        1.556492   -3.578909   -0.797468
     14          6           0        0.095788   -4.052990   -1.023466
     15          8           0       -0.308828   -5.023324   -1.641977
     16          8           0       -0.772116   -3.120832   -0.413949
     17          7           0        4.324867    2.163456   -1.869908
     18          6           0        3.809050    1.666779   -3.041672
     19          6           0        3.277143    2.784339   -3.832094
     20          6           0        3.516424    3.934151   -3.089976
     21          6           0        4.235815    3.502296   -1.836392
     22          6           0        2.754028    2.709792   -5.281561
     23          6           0        3.107133    5.351998   -3.421955
     24          8           0        2.534919    5.445772   -4.455208
     25          6           0        3.295641    6.615747   -2.542100
     26          7           0        5.147667    2.728299    1.024856
     27          6           0        5.037286    3.958351    0.613437
     28          6           0        5.192448    5.016003    1.713038
     29          6           0        5.541454    4.125016    2.852340
     30          6           0        5.500883    2.713668    2.321414
     31          6           0        6.152236    6.233394    1.484173
     32          6           0        4.746075    4.434456    4.181681
     33          6           0        5.605945    4.599565    5.472566
     34          7           0        5.406138   -0.194872    1.454360
     35          6           0        5.765023    0.187923    2.720889
     36          6           0        5.899934   -1.001695    3.557085
     37          6           0        5.518857   -2.046675    2.713864
     38          6           0        5.203592   -1.479227    1.444461
     39          6           0        6.356805   -1.019174    4.968174
     40          6           0        5.368209   -3.449471    2.568337
     41          8           0        5.394053   -4.299027    3.429920
     42          6           0        4.931940   -3.755633    1.103202
     43          6           0        6.017351   -4.609935    0.457039
     44          8           0        5.765965   -5.757914    0.156485
     45          8           0        7.230534   -4.017306    0.422474
     46          6           0        8.443388   -4.885267    0.436113
     47          6           0       -2.186112   -3.342628   -0.789018
     48          6           0       -2.796857   -2.001847   -0.726464
     49          6           0       -3.558276   -1.280538   -1.599580
     50          6           0       -4.256013   -1.661054   -2.894169
     51          6           0       -4.102376    0.068602   -1.098442
     52          6           0       -5.487604    0.076650   -0.578478
     53          6           0       -5.729934    0.584978    0.849069
     54          6           0       -7.240250    0.557441    1.064303
     55          6           0       -7.497733    1.245804    2.432069
     56          6           0       -8.016641   -0.755263    0.909024
     57          6           0       -9.060544   -0.815270   -0.253484
     58          6           0      -10.289890   -1.700185    0.102069
     59          6           0      -11.397886   -0.845747    0.856407
     60          6           0      -11.559939   -1.227819    2.300123
     61          6           0      -12.810579   -0.856117    0.158701
     62          6           0      -13.755373    0.075141    0.906507
     63          6           0      -15.032386    0.424557    0.082979
     64          6           0      -15.878590    1.544785    0.750682
     65          6           0      -17.374469    1.124108    0.821223
     66          6           0      -15.865253    2.886711    0.018403
     67          1           0        3.481332   -0.024127   -4.428238
     68          1           0        4.555623    5.386710   -0.816260
     69          1           0        6.040997    1.679262    4.123768
     70          1           0        4.756142   -3.882267   -1.819935
     71          1           0        3.134086   -2.462391   -3.767153
     72          1           0        5.074755   -2.857351   -5.049493
     73          1           0        6.124514   -3.177984   -3.631341
     74          1           0        5.856651   -1.544898   -4.255895
     75          1           0        3.016502   -5.020265   -1.517171
     76          1           0        2.206580   -4.077877   -2.717401
     77          1           0        1.623731   -2.503076   -0.959211
     78          1           0        1.797631   -3.884579    0.220325
     79          1           0        2.928540    1.698709   -5.649947
     80          1           0        3.250646    3.469113   -5.885467
     81          1           0        1.674583    2.859465   -5.305411
     82          1           0        4.363595    6.806997   -2.441635
     83          1           0        2.895036    6.484518   -1.536933
     84          1           0        2.777405    7.468245   -2.981638
     85          1           0        4.191315    5.411304    1.888966
     86          1           0        6.617616    4.232064    2.985298
     87          1           0        5.595279    7.059720    1.927268
     88          1           0        6.225611    6.335528    0.401423
     89          1           0        7.131185    6.027618    1.915713
     90          1           0        4.107203    3.551166    4.182604
     91          1           0        4.102726    5.306356    4.070052
     92          1           0        5.231530    4.051913    6.337262
     93          1           0        5.544128    5.673543    5.645700
     94          1           0        6.620188    4.259778    5.259295
     95          1           0        7.021961   -0.162767    5.085516
     96          1           0        6.936979   -1.925467    5.142053
     97          1           0        5.627238   -0.858356    5.761725
     98          1           0        3.952488   -4.230722    1.158740
     99          1           0        8.998233   -4.614485   -0.461909
    100          1           0        8.126510   -5.900244    0.678129
    101          1           0        9.027086   -4.633061    1.321569
    102          1           0       -2.686667   -3.911705   -0.005652
    103          1           0       -2.489323   -3.804901   -1.728094
    104          1           0       -2.298255   -1.431430    0.057532
    105          1           0       -3.967166   -2.659565   -3.224667
    106          1           0       -4.086324   -1.002216   -3.745895
    107          1           0       -5.321315   -1.851650   -2.762697
    108          1           0       -4.157241    0.871282   -1.833592
    109          1           0       -3.425416    0.473706   -0.346442
    110          1           0       -5.794093   -0.965085   -0.671934
    111          1           0       -5.988937    0.705529   -1.313182
    112          1           0       -5.459528    1.639863    0.844270
    113          1           0       -5.209888    0.116484    1.684967
    114          1           0       -7.639064    1.315531    0.390571
    115          1           0       -7.024175    0.753868    3.282085
    116          1           0       -8.580116    1.319374    2.541762
    117          1           0       -7.108893    2.259547    2.336347
    118          1           0       -8.559656   -0.898637    1.843355
    119          1           0       -7.332261   -1.586636    0.743317
    120          1           0       -8.688731   -1.161869   -1.217762
    121          1           0       -9.436020    0.188310   -0.453599
    122          1           0       -9.902277   -2.472669    0.765734
    123          1           0      -10.687571   -2.104274   -0.829201
    124          1           0      -10.994131    0.165993    0.904500
    125          1           0      -10.811603   -1.949056    2.628239
    126          1           0      -12.468636   -1.812505    2.442788
    127          1           0      -11.562477   -0.372872    2.976873
    128          1           0      -13.204020   -1.869481    0.077913
    129          1           0      -12.623003   -0.491306   -0.850268
    130          1           0      -13.164902    0.990879    0.903999
    131          1           0      -13.981957   -0.192041    1.938084
    132          1           0      -15.600814   -0.438866   -0.262774
    133          1           0      -14.666691    0.766631   -0.884243
    134          1           0      -15.439087    1.597222    1.746465
    135          1           0      -17.666794    1.557732    1.777656
    136          1           0      -17.455761    0.037170    0.779853
    137          1           0      -18.045998    1.540633    0.071425
    138          1           0      -16.140792    2.698117   -1.019554
    139          1           0      -14.820895    3.178344    0.121580
    140          1           0      -16.528746    3.675514    0.373724
 ---------------------------------------------------------------------

 SCF Done:  E(RPBE1PBE) =  -3005.36574651     A.U. after   15 cycles

 Excitation energies and oscillator strengths:

 Excited State   1:      Singlet-A      1.8691 eV  663.34 nm  f=0.3643  <S**2>=0.000
     245 -> 248       -0.16913
     246 -> 247        0.69214
     246 <- 247       -0.10822
 This state for optimization and/or second-order correction.
 Total Energy, E(TD-HF/TD-DFT) =  -3005.29705833
 Copying the excited state density for this state as the 1-particle RhoCI density.

 Excited State   2:      Singlet-A      2.1880 eV  566.66 nm  f=0.1283  <S**2>=0.000
     245 -> 247        0.66304
     246 -> 248        0.22821

 Excited State   3:      Singlet-A      2.8588 eV  433.69 nm  f=0.0014  <S**2>=0.000
     243 -> 247        0.67264
     243 -> 249       -0.14493

 Excited State   4:      Singlet-A      3.0131 eV  411.48 nm  f=0.0000  <S**2>=0.000
     242 -> 247        0.68333
     242 -> 249        0.10396
     242 -> 250        0.11708

 Excited State   5:      Singlet-A      3.1499 eV  393.62 nm  f=0.0032  <S**2>=0.000
     241 -> 247        0.69561

 The electronic state is 1-A.
 Alpha  occ. eigenvalues --  -46.93500 -19.25920 -19.25378 -19.20665 -19.19683
 Alpha  occ. eigenvalues --  -19.18834 -19.18621 -14.41819 -14.41322 -14.39910
 Alpha  occ. eigenvalues --  -14.38965 -10.36855 -10.36434 -10.32045 -10.31224
 Alpha  occ. eigenvalues --  -10.29921 -10.28757 -10.28737 -10.28672 -10.28653
 Alpha  occ. eigenvalues --  -10.28587 -10.28530 -10.28296 -10.27577 -10.26386
 Alpha  occ. eigenvalues --  -10.26378 -10.25928 -10.25809 -10.25718 -10.25583
 Alpha  occ. eigenvalues --  -10.25226 -10.25208 -10.25160 -10.25150 -10.25034
 Alpha  occ. eigenvalues --  -10.25006 -10.24883 -10.24862 -10.24789 -10.24744
 Alpha  occ. eigenvalues --  -10.24442 -10.24135 -10.24068 -10.23980 -10.23763
 Alpha  occ. eigenvalues --  -10.23643 -10.23230 -10.23182 -10.23041 -10.22904
 Alpha  occ. eigenvalues --  -10.22880 -10.22564 -10.22373 -10.22366 -10.22338
 Alpha  occ. eigenvalues --  -10.22263 -10.22223 -10.22187 -10.22182 -10.21900
 Alpha  occ. eigenvalues --  -10.21720 -10.21706 -10.21617 -10.21528 -10.21204
 Alpha  occ. eigenvalues --  -10.21038  -3.15430  -1.88280  -1.87800  -1.87647
 Alpha  occ. eigenvalues --   -1.11327  -1.10032  -1.07112  -1.04878  -1.02886
 Alpha  occ. eigenvalues --   -1.02302  -1.01378  -0.99523  -0.98131  -0.96950
 Alpha  occ. eigenvalues --   -0.87388  -0.84699  -0.84580  -0.83709  -0.83461
 Alpha  occ. eigenvalues --   -0.83001  -0.82642  -0.82028  -0.81513  -0.81270
 Alpha  occ. eigenvalues --   -0.80223  -0.79691  -0.78611  -0.78193  -0.77684
 Alpha  occ. eigenvalues --   -0.77085  -0.76216  -0.75182  -0.75103  -0.74774
 Alpha  occ. eigenvalues --   -0.74135  -0.72760  -0.72479  -0.71619  -0.70962
 Alpha  occ. eigenvalues --   -0.70137  -0.69509  -0.68897  -0.68748  -0.68153
 Alpha  occ. eigenvalues --   -0.67953  -0.67169  -0.66201  -0.64780  -0.64401
 Alpha  occ. eigenvalues --   -0.63277  -0.62065  -0.61618  -0.61171  -0.60070
 Alpha  occ. eigenvalues --   -0.59630  -0.59345  -0.59139  -0.58856  -0.57829
 Alpha  occ. eigenvalues --   -0.57818  -0.57587  -0.56867  -0.56472  -0.55029
 Alpha  occ. eigenvalues --   -0.54459  -0.54104  -0.53901  -0.52714  -0.52454
 Alpha  occ. eigenvalues --   -0.52037  -0.51598  -0.51187  -0.50730  -0.50333
 Alpha  occ. eigenvalues --   -0.50063  -0.49827  -0.49428  -0.48782  -0.48440
 Alpha  occ. eigenvalues --   -0.48339  -0.48236  -0.47984  -0.47796  -0.47534
 Alpha  occ. eigenvalues --   -0.46969  -0.46721  -0.46562  -0.46410  -0.46197
 Alpha  occ. eigenvalues --   -0.46159  -0.45861  -0.45732  -0.45403  -0.45361
 Alpha  occ. eigenvalues --   -0.44969  -0.44592  -0.44480  -0.44404  -0.44259
 Alpha  occ. eigenvalues --   -0.44187  -0.43917  -0.43881  -0.43664  -0.43519
 Alpha  occ. eigenvalues --   -0.43253  -0.43138  -0.42938  -0.42632  -0.42421
 Alpha  occ. eigenvalues --   -0.42220  -0.41911  -0.41807  -0.41636  -0.41568
 Alpha  occ. eigenvalues --   -0.41267  -0.41175  -0.40995  -0.40915  -0.40561
 Alpha  occ. eigenvalues --   -0.40371  -0.40206  -0.39801  -0.39713  -0.39562
 Alpha  occ. eigenvalues --   -0.39424  -0.39379  -0.39197  -0.39001  -0.38884
 Alpha  occ. eigenvalues --   -0.38829  -0.38558  -0.38380  -0.38179  -0.38019
 Alpha  occ. eigenvalues --   -0.37995  -0.37891  -0.37623  -0.37464  -0.37225
 Alpha  occ. eigenvalues --   -0.37150  -0.36552  -0.36519  -0.36255  -0.36226
 Alpha  occ. eigenvalues --   -0.36130  -0.35231  -0.35164  -0.34805  -0.34613
 Alpha  occ. eigenvalues --   -0.34465  -0.34243  -0.33589  -0.33568  -0.33495
 Alpha  occ. eigenvalues --   -0.33027  -0.32739  -0.32648  -0.32496  -0.32358
 Alpha  occ. eigenvalues --   -0.31986  -0.31778  -0.31718  -0.31378  -0.31311
 Alpha  occ. eigenvalues --   -0.31029  -0.30500  -0.30090  -0.29956  -0.29032
 Alpha  occ. eigenvalues --   -0.28982  -0.28906  -0.28647  -0.26791  -0.26073
 Alpha  occ. eigenvalues --   -0.25885  -0.25499  -0.25178  -0.25024  -0.20835
 Alpha  occ. eigenvalues --   -0.19015
 Alpha virt. eigenvalues --   -0.11369  -0.04998  -0.03266  -0.01689  -0.00722
 Alpha virt. eigenvalues --    0.00094   0.00922   0.01206   0.01437   0.02818
 Alpha virt. eigenvalues --    0.03691   0.04586   0.05063   0.05451   0.05862

 Mulliken charges:
               1
     1  Mg   0.958865
     2  C   -0.034708
     3  C   -0.040049
     4  C   -0.064967
     5  C   -0.079692
     6  N   -0.364613
     7  C    0.017283
     8  C   -0.077612
     9  C   -0.114630
    10  C    0.006862
    11  C    0.030161
    12  C    0.009137
    13  C   -0.050511
    14  C    0.256419
    15  O   -0.247279
    16  O   -0.389896
    17  N   -0.474206
    18  C    0.156816
    19  C   -0.182891
    20  C   -0.082586
    21  C    0.175572
    22  C    0.091260
    23  C    0.021222
    24  O   -0.208769
    25  C   -0.014640
    26  N   -0.369694
    27  C    0.031862
    28  C   -0.148906
    29  C   -0.061924
    30  C    0.069533
    31  C    0.043483
    32  C   -0.030322
    33  C   -0.066921
    34  N   -0.425918
    35  C    0.095066
    36  C   -0.181156
    37  C    0.009328
    38  C    0.122851
    39  C    0.065568
    40  C    0.075544
    41  O   -0.206961
    42  C   -0.095397
    43  C    0.282310
    44  O   -0.240793
    45  O   -0.376930
    46  C    0.124882
    47  C    0.286462
    48  C   -0.161439
    49  C   -0.184785
    50  C    0.009127
    51  C    0.033107
    52  C   -0.060131
    53  C    0.008845
    54  C   -0.235978
    55  C   -0.010594
    56  C    0.027160
    57  C   -0.078051
    58  C    0.014631
    59  C   -0.228740
    60  C   -0.008817
    61  C   -0.000723
    62  C   -0.091115
    63  C    0.009289
    64  C   -0.221045
    65  C   -0.028268
    66  C   -0.012668
    67  H    0.008973
    68  H   -0.034436
    69  H   -0.007638
    70  H    0.050650
    71  H    0.048947
    72  H    0.047352
    73  H    0.055788
    74  H    0.047012
    75  H    0.055261
    76  H    0.035368
    77  H    0.084214
    78  H    0.077444
    79  H    0.022279
    80  H    0.068425
    81  H    0.057939
    82  H    0.067719
    83  H    0.063637
    84  H    0.054637
    85  H    0.051955
    86  H    0.040862
    87  H    0.050484
    88  H    0.044104
    89  H    0.046540
    90  H    0.046971
    91  H    0.040420
    92  H    0.052553
    93  H    0.048604
    94  H    0.047664
    95  H    0.030685
    96  H    0.062969
    97  H    0.061316
    98  H    0.069123
    99  H    0.075472
   100  H    0.077909
   101  H    0.057347
   102  H    0.047310
   103  H    0.053308
   104  H    0.037509
   105  H    0.019448
   106  H    0.057262
   107  H    0.049503
   108  H    0.013503
   109  H    0.016451
   110  H    0.036447
   111  H    0.025816
   112  H    0.017407
   113  H    0.029358
   114  H    0.025457
   115  H    0.037763
   116  H    0.031612
   117  H    0.025785
   118  H    0.026352
   119  H    0.036035
   120  H    0.026053
   121  H    0.023974
   122  H    0.028909
   123  H    0.021660
   124  H    0.032817
   125  H    0.024019
   126  H    0.026409
   127  H    0.039617
   128  H    0.032488
   129  H    0.024140
   130  H    0.027399
   131  H    0.048328
   132  H    0.019489
   133  H    0.003652
   134  H    0.034495
   135  H    0.035072
   136  H    0.033100
   137  H    0.034498
   138  H    0.037174
   139  H    0.031958
   140  H    0.041548
 Sum of Mulliken charges =  -0.00000

 Dipole moment (field-independent basis, Debye):
    X=              3.2061    Y=              6.2875    Z=              0.6613  Tot=              7.0887
 Quadrupole moment (field-independent basis, Debye-Ang):
   XX=           -356.0514   YY=           -426.1322   ZZ=           -404.2434
   XY=             21.3555   XZ=              5.1173   YZ=             34.4306

 Normal termination of Gaussian 16 at Fri Apr 29 14:22:01 2022.
