 Gaussian 16, Revision A.03,
 Gaussian 16:  ES64L-G16RevA.03 25-Dec-2016

 --------------------------------
 #p wB97XD/Def2SVP td=(nstates=5)
 --------------------------------

 ----------------------------------------------------
 step_351_chromophore_14 TDDFT with wB97XD functional
 ----------------------------------------------------
 Symbolic Z-matrix:
 Charge =  0 Multiplicity = 1

                         Standard orientation:
 ---------------------------------------------------------------------
 Center     Atomic      Atomic             Coordinates (Angstroms)
 Number     Number       Type             X           Y           Z
 ---------------------------------------------------------------------
      1         12           0        4.982867    1.037147   -0.230113
      2          6           0        4.800906   -2.445882    0.451402
      3          6           0        3.765784    0.257895   -3.412203
      4          6           0        4.633702    4.305374   -0.689823
      5          6           0        5.793174    1.566770    3.066153
      6          7           0        4.155040   -0.895856   -1.251087
      7          6           0        4.301121   -2.168834   -0.818109
      8          6           0        3.957192   -3.146016   -1.911058
      9          6           0        4.074104   -2.329875   -3.231463
     10          6           0        4.038009   -0.868449   -2.665485
     11          6           0        5.382924   -2.507219   -4.064257
     12          6           0        2.657017   -4.012069   -1.726877
     13          6           0        1.556492   -3.578909   -0.797468
     14          6           0        0.095788   -4.052990   -1.023466
     15          8           0       -0.308828   -5.023324   -1.641977
     16          8           0       -0.772116   -3.120832   -0.413949
     17          7           0        4.324867    2.163456   -1.869908
     18          6           0        3.809050    1.666779   -3.041672
     19          6           0        3.277143    2.784339   -3.832094
     20          6           0        3.516424    3.934151   -3.089976
     21          6           0        4.235815    3.502296   -1.836392
     22          6           0        2.754028    2.709792   -5.281561
     23          6           0        3.107133    5.351998   -3.421955
     24          8           0        2.534919    5.445772   -4.455208
     25          6           0        3.295641    6.615747   -2.542100
     26          7           0        5.147667    2.728299    1.024856
     27          6           0        5.037286    3.958351    0.613437
     28          6           0        5.192448    5.016003    1.713038
     29          6           0        5.541454    4.125016    2.852340
     30          6           0        5.500883    2.713668    2.321414
     31          6           0        6.152236    6.233394    1.484173
     32          6           0        4.746075    4.434456    4.181681
     33          6           0        5.605945    4.599565    5.472566
     34          7           0        5.406138   -0.194872    1.454360
     35          6           0        5.765023    0.187923    2.720889
     36          6           0        5.899934   -1.001695    3.557085
     37          6           0        5.518857   -2.046675    2.713864
     38          6           0        5.203592   -1.479227    1.444461
     39          6           0        6.356805   -1.019174    4.968174
     40          6           0        5.368209   -3.449471    2.568337
     41          8           0        5.394053   -4.299027    3.429920
     42          6           0        4.931940   -3.755633    1.103202
     43          6           0        6.017351   -4.609935    0.457039
     44          8           0        5.765965   -5.757914    0.156485
     45          8           0        7.230534   -4.017306    0.422474
     46          6           0        8.443388   -4.885267    0.436113
     47          6           0       -2.186112   -3.342628   -0.789018
     48          6           0       -2.796857   -2.001847   -0.726464
     49          6           0       -3.558276   -1.280538   -1.599580
     50          6           0       -4.256013   -1.661054   -2.894169
     51          6           0       -4.102376    0.068602   -1.098442
     52          6           0       -5.487604    0.076650   -0.578478
     53          6           0       -5.729934    0.584978    0.849069
     54          6           0       -7.240250    0.557441    1.064303
     55          6           0       -7.497733    1.245804    2.432069
     56          6           0       -8.016641   -0.755263    0.909024
     57          6           0       -9.060544   -0.815270   -0.253484
     58          6           0      -10.289890   -1.700185    0.102069
     59          6           0      -11.397886   -0.845747    0.856407
     60          6           0      -11.559939   -1.227819    2.300123
     61          6           0      -12.810579   -0.856117    0.158701
     62          6           0      -13.755373    0.075141    0.906507
     63          6           0      -15.032386    0.424557    0.082979
     64          6           0      -15.878590    1.544785    0.750682
     65          6           0      -17.374469    1.124108    0.821223
     66          6           0      -15.865253    2.886711    0.018403
     67          1           0        3.481332   -0.024127   -4.428238
     68          1           0        4.555623    5.386710   -0.816260
     69          1           0        6.040997    1.679262    4.123768
     70          1           0        4.756142   -3.882267   -1.819935
     71          1           0        3.134086   -2.462391   -3.767153
     72          1           0        5.074755   -2.857351   -5.049493
     73          1           0        6.124514   -3.177984   -3.631341
     74          1           0        5.856651   -1.544898   -4.255895
     75          1           0        3.016502   -5.020265   -1.517171
     76          1           0        2.206580   -4.077877   -2.717401
     77          1           0        1.623731   -2.503076   -0.959211
     78          1           0        1.797631   -3.884579    0.220325
     79          1           0        2.928540    1.698709   -5.649947
     80          1           0        3.250646    3.469113   -5.885467
     81          1           0        1.674583    2.859465   -5.305411
     82          1           0        4.363595    6.806997   -2.441635
     83          1           0        2.895036    6.484518   -1.536933
     84          1           0        2.777405    7.468245   -2.981638
     85          1           0        4.191315    5.411304    1.888966
     86          1           0        6.617616    4.232064    2.985298
     87          1           0        5.595279    7.059720    1.927268
     88          1           0        6.225611    6.335528    0.401423
     89          1           0        7.131185    6.027618    1.915713
     90          1           0        4.107203    3.551166    4.182604
     91          1           0        4.102726    5.306356    4.070052
     92          1           0        5.231530    4.051913    6.337262
     93          1           0        5.544128    5.673543    5.645700
     94          1           0        6.620188    4.259778    5.259295
     95          1           0        7.021961   -0.162767    5.085516
     96          1           0        6.936979   -1.925467    5.142053
     97          1           0        5.627238   -0.858356    5.761725
     98          1           0        3.952488   -4.230722    1.158740
     99          1           0        8.998233   -4.614485   -0.461909
    100          1           0        8.126510   -5.900244    0.678129
    101          1           0        9.027086   -4.633061    1.321569
    102          1           0       -2.686667   -3.911705   -0.005652
    103          1           0       -2.489323   -3.804901   -1.728094
    104          1           0       -2.298255   -1.431430    0.057532
    105          1           0       -3.967166   -2.659565   -3.224667
    106          1           0       -4.086324   -1.002216   -3.745895
    107          1           0       -5.321315   -1.851650   -2.762697
    108          1           0       -4.157241    0.871282   -1.833592
    109          1           0       -3.425416    0.473706   -0.346442
    110          1           0       -5.794093   -0.965085   -0.671934
    111          1           0       -5.988937    0.705529   -1.313182
    112          1           0       -5.459528    1.639863    0.844270
    113          1           0       -5.209888    0.116484    1.684967
    114          1           0       -7.639064    1.315531    0.390571
    115          1           0       -7.024175    0.753868    3.282085
    116          1           0       -8.580116    1.319374    2.541762
    117          1           0       -7.108893    2.259547    2.336347
    118          1           0       -8.559656   -0.898637    1.843355
    119          1           0       -7.332261   -1.586636    0.743317
    120          1           0       -8.688731   -1.161869   -1.217762
    121          1           0       -9.436020    0.188310   -0.453599
    122          1           0       -9.902277   -2.472669    0.765734
    123          1           0      -10.687571   -2.104274   -0.829201
    124          1           0      -10.994131    0.165993    0.904500
    125          1           0      -10.811603   -1.949056    2.628239
    126          1           0      -12.468636   -1.812505    2.442788
    127          1           0      -11.562477   -0.372872    2.976873
    128          1           0      -13.204020   -1.869481    0.077913
    129          1           0      -12.623003   -0.491306   -0.850268
    130          1           0      -13.164902    0.990879    0.903999
    131          1           0      -13.981957   -0.192041    1.938084
    132          1           0      -15.600814   -0.438866   -0.262774
    133          1           0      -14.666691    0.766631   -0.884243
    134          1           0      -15.439087    1.597222    1.746465
    135          1           0      -17.666794    1.557732    1.777656
    136          1           0      -17.455761    0.037170    0.779853
    137          1           0      -18.045998    1.540633    0.071425
    138          1           0      -16.140792    2.698117   -1.019554
    139          1           0      -14.820895    3.178344    0.121580
    140          1           0      -16.528746    3.675514    0.373724
 ---------------------------------------------------------------------

 SCF Done:  E(RwB97XD) =  -3007.87350138     A.U. after   20 cycles

 Excitation energies and oscillator strengths:

 Excited State   1:      Singlet-A      1.6503 eV  751.30 nm  f=0.3760  <S**2>=0.000
     245 -> 248       -0.18043
     246 -> 247        0.68393
     245 <- 248       -0.11665
 This state for optimization and/or second-order correction.
 Total Energy, E(TD-HF/TD-DFT) =  -3007.81285538
 Copying the excited state density for this state as the 1-particle RhoCI density.

 Excited State   2:      Singlet-A      2.1237 eV  583.81 nm  f=0.1316  <S**2>=0.000
     245 -> 247        0.65174
     246 -> 248        0.26075

 Excited State   3:      Singlet-A      3.4111 eV  363.47 nm  f=0.0070  <S**2>=0.000
     242 -> 247        0.11603
     242 -> 249       -0.15676
     243 -> 247        0.57659
     243 -> 249       -0.23817
     246 -> 248       -0.14467

 Excited State   4:      Singlet-A      3.5339 eV  350.84 nm  f=0.0009  <S**2>=0.000
     241 -> 247        0.39745
     242 -> 247        0.52396
     243 -> 247       -0.15023

 Excited State   5:      Singlet-A      3.6134 eV  343.12 nm  f=0.1931  <S**2>=0.000
     239 -> 247       -0.14220
     240 -> 247        0.21211
     241 -> 247       -0.33708
     242 -> 247        0.26569
     242 -> 249       -0.11402
     245 -> 247       -0.13342
     246 -> 248        0.43092

 The electronic state is 1-A.
 Alpha  occ. eigenvalues --  -46.96479 -19.30478 -19.29913 -19.25329 -19.24348
 Alpha  occ. eigenvalues --  -19.23730 -19.23364 -14.46951 -14.46391 -14.44964
 Alpha  occ. eigenvalues --  -14.43871 -10.43621 -10.43220 -10.38926 -10.38012
 Alpha  occ. eigenvalues --  -10.36419 -10.35161 -10.35149 -10.35077 -10.35070
 Alpha  occ. eigenvalues --  -10.35042 -10.34929 -10.34544 -10.33725 -10.32661
 Alpha  occ. eigenvalues --  -10.32609 -10.32385 -10.32286 -10.31968 -10.31822
 Alpha  occ. eigenvalues --  -10.31604 -10.31581 -10.31468 -10.31404 -10.31402
 Alpha  occ. eigenvalues --  -10.31353 -10.31336 -10.31256 -10.31148 -10.31062
 Alpha  occ. eigenvalues --  -10.30943 -10.30699 -10.30475 -10.30390 -10.30130
 Alpha  occ. eigenvalues --  -10.30032 -10.29798 -10.29635 -10.29318 -10.29262
 Alpha  occ. eigenvalues --  -10.29168 -10.28833 -10.28736 -10.28713 -10.28641
 Alpha  occ. eigenvalues --  -10.28587 -10.28576 -10.28560 -10.28522 -10.28258
 Alpha  occ. eigenvalues --  -10.28143 -10.28105 -10.27992 -10.27942 -10.27624
 Alpha  occ. eigenvalues --  -10.27471  -3.22289  -1.95884  -1.95405  -1.95249
 Alpha  occ. eigenvalues --   -1.18705  -1.17399  -1.14639  -1.12283  -1.10217
 Alpha  occ. eigenvalues --   -1.09632  -1.08748  -1.06768  -1.05611  -1.04368
 Alpha  occ. eigenvalues --   -0.94963  -0.92360  -0.92125  -0.91371  -0.91089
 Alpha  occ. eigenvalues --   -0.90620  -0.90300  -0.89631  -0.89170  -0.88848
 Alpha  occ. eigenvalues --   -0.87956  -0.87359  -0.86272  -0.85786  -0.85351
 Alpha  occ. eigenvalues --   -0.84738  -0.83904  -0.82923  -0.82741  -0.82418
 Alpha  occ. eigenvalues --   -0.81792  -0.80364  -0.80085  -0.79328  -0.78566
 Alpha  occ. eigenvalues --   -0.77763  -0.77176  -0.76596  -0.76435  -0.75809
 Alpha  occ. eigenvalues --   -0.75487  -0.74769  -0.73750  -0.72381  -0.71956
 Alpha  occ. eigenvalues --   -0.70773  -0.69716  -0.69203  -0.68659  -0.67581
 Alpha  occ. eigenvalues --   -0.67151  -0.66822  -0.66715  -0.66413  -0.65506
 Alpha  occ. eigenvalues --   -0.65254  -0.65026  -0.64520  -0.64110  -0.62470
 Alpha  occ. eigenvalues --   -0.61969  -0.61489  -0.61328  -0.60107  -0.59897
 Alpha  occ. eigenvalues --   -0.59518  -0.59072  -0.58603  -0.58176  -0.57746
 Alpha  occ. eigenvalues --   -0.57445  -0.57253  -0.56908  -0.56092  -0.55946
 Alpha  occ. eigenvalues --   -0.55769  -0.55546  -0.55343  -0.55060  -0.54954
 Alpha  occ. eigenvalues --   -0.54327  -0.54174  -0.54079  -0.53807  -0.53603
 Alpha  occ. eigenvalues --   -0.53567  -0.53241  -0.53078  -0.52708  -0.52652
 Alpha  occ. eigenvalues --   -0.52322  -0.51915  -0.51894  -0.51761  -0.51612
 Alpha  occ. eigenvalues --   -0.51475  -0.51320  -0.51197  -0.50999  -0.50845
 Alpha  occ. eigenvalues --   -0.50527  -0.50436  -0.50205  -0.49893  -0.49669
 Alpha  occ. eigenvalues --   -0.49476  -0.49218  -0.49068  -0.48901  -0.48826
 Alpha  occ. eigenvalues --   -0.48529  -0.48427  -0.48207  -0.48114  -0.47750
 Alpha  occ. eigenvalues --   -0.47561  -0.47405  -0.46969  -0.46893  -0.46738
 Alpha  occ. eigenvalues --   -0.46636  -0.46554  -0.46461  -0.46190  -0.45978
 Alpha  occ. eigenvalues --   -0.45890  -0.45725  -0.45569  -0.45417  -0.45182
 Alpha  occ. eigenvalues --   -0.45137  -0.44971  -0.44693  -0.44570  -0.44344
 Alpha  occ. eigenvalues --   -0.44137  -0.43661  -0.43578  -0.43384  -0.43362
 Alpha  occ. eigenvalues --   -0.43170  -0.42325  -0.42124  -0.41726  -0.41662
 Alpha  occ. eigenvalues --   -0.41552  -0.41226  -0.40679  -0.40625  -0.40504
 Alpha  occ. eigenvalues --   -0.40064  -0.39789  -0.39638  -0.39526  -0.39360
 Alpha  occ. eigenvalues --   -0.39022  -0.38819  -0.38744  -0.38354  -0.38297
 Alpha  occ. eigenvalues --   -0.38069  -0.37451  -0.36990  -0.36781  -0.36063
 Alpha  occ. eigenvalues --   -0.35962  -0.35871  -0.35316  -0.33412  -0.32744
 Alpha  occ. eigenvalues --   -0.32709  -0.32553  -0.32086  -0.31720  -0.25813
 Alpha  occ. eigenvalues --   -0.23196
 Alpha virt. eigenvalues --   -0.07306   0.00427   0.03043   0.04850   0.05188
 Alpha virt. eigenvalues --    0.06880   0.07707   0.07866   0.08269   0.09159
 Alpha virt. eigenvalues --    0.10372   0.11336   0.11792   0.12166   0.12564

 Mulliken charges:
               1
     1  Mg   0.952634
     2  C   -0.036648
     3  C   -0.060867
     4  C   -0.070605
     5  C   -0.094211
     6  N   -0.335614
     7  C   -0.022265
     8  C   -0.052288
     9  C   -0.085290
    10  C    0.000415
    11  C    0.038257
    12  C    0.012761
    13  C   -0.024526
    14  C    0.248121
    15  O   -0.245070
    16  O   -0.390110
    17  N   -0.440868
    18  C    0.152639
    19  C   -0.177358
    20  C   -0.070809
    21  C    0.164321
    22  C    0.106074
    23  C    0.013835
    24  O   -0.205250
    25  C    0.000902
    26  N   -0.331772
    27  C    0.015905
    28  C   -0.123762
    29  C   -0.035827
    30  C    0.058044
    31  C    0.055873
    32  C   -0.015195
    33  C   -0.049580
    34  N   -0.385153
    35  C    0.082388
    36  C   -0.178418
    37  C    0.016968
    38  C    0.100716
    39  C    0.075225
    40  C    0.052925
    41  O   -0.197940
    42  C   -0.046850
    43  C    0.256789
    44  O   -0.235026
    45  O   -0.376593
    46  C    0.140214
    47  C    0.300756
    48  C   -0.170286
    49  C   -0.164610
    50  C    0.020359
    51  C    0.047711
    52  C   -0.037515
    53  C    0.022390
    54  C   -0.205915
    55  C    0.006044
    56  C    0.041140
    57  C   -0.056394
    58  C    0.029795
    59  C   -0.198858
    60  C    0.001333
    61  C    0.015208
    62  C   -0.066252
    63  C    0.017134
    64  C   -0.190206
    65  C   -0.015919
    66  C    0.001520
    67  H    0.002955
    68  H   -0.052761
    69  H   -0.016232
    70  H    0.033389
    71  H    0.039631
    72  H    0.042313
    73  H    0.051874
    74  H    0.039939
    75  H    0.050967
    76  H    0.027057
    77  H    0.073479
    78  H    0.069261
    79  H    0.016169
    80  H    0.064400
    81  H    0.054357
    82  H    0.062479
    83  H    0.058310
    84  H    0.054070
    85  H    0.040306
    86  H    0.024581
    87  H    0.045544
    88  H    0.037015
    89  H    0.042028
    90  H    0.037049
    91  H    0.032842
    92  H    0.047676
    93  H    0.042634
    94  H    0.040903
    95  H    0.023488
    96  H    0.059131
    97  H    0.057435
    98  H    0.059771
    99  H    0.072319
   100  H    0.074680
   101  H    0.053194
   102  H    0.042514
   103  H    0.046740
   104  H    0.033455
   105  H    0.012936
   106  H    0.052958
   107  H    0.044030
   108  H    0.006370
   109  H    0.007850
   110  H    0.016830
   111  H    0.017800
   112  H    0.007958
   113  H    0.022349
   114  H    0.011079
   115  H    0.031709
   116  H    0.023659
   117  H    0.018953
   118  H    0.011039
   119  H    0.028296
   120  H    0.019090
   121  H    0.011694
   122  H    0.018183
   123  H    0.015199
   124  H    0.015853
   125  H    0.017940
   126  H    0.018642
   127  H    0.034721
   128  H    0.023936
   129  H    0.014749
   130  H    0.013870
   131  H    0.039110
   132  H    0.011759
   133  H   -0.006592
   134  H    0.023463
   135  H    0.028692
   136  H    0.026798
   137  H    0.028802
   138  H    0.029517
   139  H    0.024767
   140  H    0.036482
 Sum of Mulliken charges =  -0.00000

 Dipole moment (field-independent basis, Debye):
    X=              3.2018    Y=              6.4849    Z=              0.4381  Tot=              7.2455
 Quadrupole moment (field-independent basis, Debye-Ang):
   XX=           -355.3322   YY=           -425.3436   ZZ=           -403.9078
   XY=             21.7143   XZ=              3.9690   YZ=             33.5185

 Normal termination of Gaussian 16 at Fri Apr 29 14:54:02 2022.
