 Gaussian 16, Revision A.03,
 Gaussian 16:  ES64L-G16RevA.03 25-Dec-2016

 --------------------
 #p ZINDO=(nstates=5)
 --------------------

 -----------------------------
 step_351_chromophore_14 ZINDO
 -----------------------------
 Symbolic Z-matrix:
 Charge =  0 Multiplicity = 1

                         Standard orientation:
 ---------------------------------------------------------------------
 Center     Atomic      Atomic             Coordinates (Angstroms)
 Number     Number       Type             X           Y           Z
 ---------------------------------------------------------------------
      1         12           0        4.982867    1.037147   -0.230113
      2          6           0        4.800906   -2.445882    0.451402
      3          6           0        3.765784    0.257895   -3.412203
      4          6           0        4.633702    4.305374   -0.689823
      5          6           0        5.793174    1.566770    3.066153
      6          7           0        4.155040   -0.895856   -1.251087
      7          6           0        4.301121   -2.168834   -0.818109
      8          6           0        3.957192   -3.146016   -1.911058
      9          6           0        4.074104   -2.329875   -3.231463
     10          6           0        4.038009   -0.868449   -2.665485
     11          6           0        5.382924   -2.507219   -4.064257
     12          6           0        2.657017   -4.012069   -1.726877
     13          6           0        1.556492   -3.578909   -0.797468
     14          6           0        0.095788   -4.052990   -1.023466
     15          8           0       -0.308828   -5.023324   -1.641977
     16          8           0       -0.772116   -3.120832   -0.413949
     17          7           0        4.324867    2.163456   -1.869908
     18          6           0        3.809050    1.666779   -3.041672
     19          6           0        3.277143    2.784339   -3.832094
     20          6           0        3.516424    3.934151   -3.089976
     21          6           0        4.235815    3.502296   -1.836392
     22          6           0        2.754028    2.709792   -5.281561
     23          6           0        3.107133    5.351998   -3.421955
     24          8           0        2.534919    5.445772   -4.455208
     25          6           0        3.295641    6.615747   -2.542100
     26          7           0        5.147667    2.728299    1.024856
     27          6           0        5.037286    3.958351    0.613437
     28          6           0        5.192448    5.016003    1.713038
     29          6           0        5.541454    4.125016    2.852340
     30          6           0        5.500883    2.713668    2.321414
     31          6           0        6.152236    6.233394    1.484173
     32          6           0        4.746075    4.434456    4.181681
     33          6           0        5.605945    4.599565    5.472566
     34          7           0        5.406138   -0.194872    1.454360
     35          6           0        5.765023    0.187923    2.720889
     36          6           0        5.899934   -1.001695    3.557085
     37          6           0        5.518857   -2.046675    2.713864
     38          6           0        5.203592   -1.479227    1.444461
     39          6           0        6.356805   -1.019174    4.968174
     40          6           0        5.368209   -3.449471    2.568337
     41          8           0        5.394053   -4.299027    3.429920
     42          6           0        4.931940   -3.755633    1.103202
     43          6           0        6.017351   -4.609935    0.457039
     44          8           0        5.765965   -5.757914    0.156485
     45          8           0        7.230534   -4.017306    0.422474
     46          6           0        8.443388   -4.885267    0.436113
     47          6           0       -2.186112   -3.342628   -0.789018
     48          6           0       -2.796857   -2.001847   -0.726464
     49          6           0       -3.558276   -1.280538   -1.599580
     50          6           0       -4.256013   -1.661054   -2.894169
     51          6           0       -4.102376    0.068602   -1.098442
     52          6           0       -5.487604    0.076650   -0.578478
     53          6           0       -5.729934    0.584978    0.849069
     54          6           0       -7.240250    0.557441    1.064303
     55          6           0       -7.497733    1.245804    2.432069
     56          6           0       -8.016641   -0.755263    0.909024
     57          6           0       -9.060544   -0.815270   -0.253484
     58          6           0      -10.289890   -1.700185    0.102069
     59          6           0      -11.397886   -0.845747    0.856407
     60          6           0      -11.559939   -1.227819    2.300123
     61          6           0      -12.810579   -0.856117    0.158701
     62          6           0      -13.755373    0.075141    0.906507
     63          6           0      -15.032386    0.424557    0.082979
     64          6           0      -15.878590    1.544785    0.750682
     65          6           0      -17.374469    1.124108    0.821223
     66          6           0      -15.865253    2.886711    0.018403
     67          1           0        3.481332   -0.024127   -4.428238
     68          1           0        4.555623    5.386710   -0.816260
     69          1           0        6.040997    1.679262    4.123768
     70          1           0        4.756142   -3.882267   -1.819935
     71          1           0        3.134086   -2.462391   -3.767153
     72          1           0        5.074755   -2.857351   -5.049493
     73          1           0        6.124514   -3.177984   -3.631341
     74          1           0        5.856651   -1.544898   -4.255895
     75          1           0        3.016502   -5.020265   -1.517171
     76          1           0        2.206580   -4.077877   -2.717401
     77          1           0        1.623731   -2.503076   -0.959211
     78          1           0        1.797631   -3.884579    0.220325
     79          1           0        2.928540    1.698709   -5.649947
     80          1           0        3.250646    3.469113   -5.885467
     81          1           0        1.674583    2.859465   -5.305411
     82          1           0        4.363595    6.806997   -2.441635
     83          1           0        2.895036    6.484518   -1.536933
     84          1           0        2.777405    7.468245   -2.981638
     85          1           0        4.191315    5.411304    1.888966
     86          1           0        6.617616    4.232064    2.985298
     87          1           0        5.595279    7.059720    1.927268
     88          1           0        6.225611    6.335528    0.401423
     89          1           0        7.131185    6.027618    1.915713
     90          1           0        4.107203    3.551166    4.182604
     91          1           0        4.102726    5.306356    4.070052
     92          1           0        5.231530    4.051913    6.337262
     93          1           0        5.544128    5.673543    5.645700
     94          1           0        6.620188    4.259778    5.259295
     95          1           0        7.021961   -0.162767    5.085516
     96          1           0        6.936979   -1.925467    5.142053
     97          1           0        5.627238   -0.858356    5.761725
     98          1           0        3.952488   -4.230722    1.158740
     99          1           0        8.998233   -4.614485   -0.461909
    100          1           0        8.126510   -5.900244    0.678129
    101          1           0        9.027086   -4.633061    1.321569
    102          1           0       -2.686667   -3.911705   -0.005652
    103          1           0       -2.489323   -3.804901   -1.728094
    104          1           0       -2.298255   -1.431430    0.057532
    105          1           0       -3.967166   -2.659565   -3.224667
    106          1           0       -4.086324   -1.002216   -3.745895
    107          1           0       -5.321315   -1.851650   -2.762697
    108          1           0       -4.157241    0.871282   -1.833592
    109          1           0       -3.425416    0.473706   -0.346442
    110          1           0       -5.794093   -0.965085   -0.671934
    111          1           0       -5.988937    0.705529   -1.313182
    112          1           0       -5.459528    1.639863    0.844270
    113          1           0       -5.209888    0.116484    1.684967
    114          1           0       -7.639064    1.315531    0.390571
    115          1           0       -7.024175    0.753868    3.282085
    116          1           0       -8.580116    1.319374    2.541762
    117          1           0       -7.108893    2.259547    2.336347
    118          1           0       -8.559656   -0.898637    1.843355
    119          1           0       -7.332261   -1.586636    0.743317
    120          1           0       -8.688731   -1.161869   -1.217762
    121          1           0       -9.436020    0.188310   -0.453599
    122          1           0       -9.902277   -2.472669    0.765734
    123          1           0      -10.687571   -2.104274   -0.829201
    124          1           0      -10.994131    0.165993    0.904500
    125          1           0      -10.811603   -1.949056    2.628239
    126          1           0      -12.468636   -1.812505    2.442788
    127          1           0      -11.562477   -0.372872    2.976873
    128          1           0      -13.204020   -1.869481    0.077913
    129          1           0      -12.623003   -0.491306   -0.850268
    130          1           0      -13.164902    0.990879    0.903999
    131          1           0      -13.981957   -0.192041    1.938084
    132          1           0      -15.600814   -0.438866   -0.262774
    133          1           0      -14.666691    0.766631   -0.884243
    134          1           0      -15.439087    1.597222    1.746465
    135          1           0      -17.666794    1.557732    1.777656
    136          1           0      -17.455761    0.037170    0.779853
    137          1           0      -18.045998    1.540633    0.071425
    138          1           0      -16.140792    2.698117   -1.019554
    139          1           0      -14.820895    3.178344    0.121580
    140          1           0      -16.528746    3.675514    0.373724
 ---------------------------------------------------------------------

 SCF Done:  E(RZINDO/S) =  -474.527559515     A.U. after   20 cycles

 Excitation energies and oscillator strengths:

 Excited State   1:      Singlet-A      1.2439 eV  996.78 nm  f=0.6111  <S**2>=0.000
     175 ->178         0.18799
     176 ->177         0.66332
 This state for optimization and/or second-order correction.
 Total Energy, E(CIS/TDA) =  -474.481848836
 Copying the excited state density for this state as the 1-particle RhoCI density.

 Excited State   2:      Singlet-A      1.8826 eV  658.60 nm  f=0.0802  <S**2>=0.000
     175 ->177         0.57739
     176 ->178        -0.38004

 Excited State   3:      Singlet-A      2.9224 eV  424.25 nm  f=0.0099  <S**2>=0.000
     168 ->177        -0.26333
     168 ->178         0.13141
     168 ->179         0.26896
     168 ->180        -0.17055
     168 ->181         0.29755
     168 ->186        -0.20298
     168 ->194        -0.10359
     170 ->177         0.17258
     170 ->179         0.16160
     170 ->181        -0.10285

 Excited State   4:      Singlet-A      2.9311 eV  423.00 nm  f=0.0127  <S**2>=0.000
     168 ->177         0.17097
     168 ->179        -0.10833
     168 ->180         0.11218
     168 ->181        -0.18779
     170 ->177         0.26754
     170 ->179         0.34133
     170 ->180         0.12215
     170 ->181        -0.14326
     170 ->186        -0.14796
     170 ->201        -0.11777

 Excited State   5:      Singlet-A      3.0464 eV  406.98 nm  f=1.1210  <S**2>=0.000
     172 ->177         0.11023
     175 ->177         0.35021
     176 ->178         0.55106

 The electronic state is 1-A.
 Alpha  occ. eigenvalues --   -1.86623  -1.84313  -1.79699  -1.72861  -1.72378
 Alpha  occ. eigenvalues --   -1.70382  -1.66304  -1.62439  -1.62206  -1.59267
 Alpha  occ. eigenvalues --   -1.55878  -1.51696  -1.49090  -1.48065  -1.47323
 Alpha  occ. eigenvalues --   -1.46894  -1.43059  -1.41023  -1.40084  -1.37568
 Alpha  occ. eigenvalues --   -1.35987  -1.34131  -1.32067  -1.30637  -1.28434
 Alpha  occ. eigenvalues --   -1.27724  -1.27033  -1.22916  -1.22162  -1.17947
 Alpha  occ. eigenvalues --   -1.16638  -1.14160  -1.13951  -1.13698  -1.13161
 Alpha  occ. eigenvalues --   -1.12772  -1.10464  -1.10303  -1.06588  -1.04970
 Alpha  occ. eigenvalues --   -1.03286  -1.02537  -0.99123  -0.98075  -0.97360
 Alpha  occ. eigenvalues --   -0.97215  -0.94164  -0.92549  -0.92163  -0.91891
 Alpha  occ. eigenvalues --   -0.91381  -0.89188  -0.88371  -0.87442  -0.86451
 Alpha  occ. eigenvalues --   -0.85777  -0.85200  -0.83559  -0.82987  -0.81547
 Alpha  occ. eigenvalues --   -0.80781  -0.79033  -0.77501  -0.76946  -0.76700
 Alpha  occ. eigenvalues --   -0.76146  -0.75597  -0.74470  -0.73887  -0.73743
 Alpha  occ. eigenvalues --   -0.73326  -0.72588  -0.71784  -0.71213  -0.71114
 Alpha  occ. eigenvalues --   -0.70424  -0.69303  -0.68773  -0.67800  -0.67505
 Alpha  occ. eigenvalues --   -0.67035  -0.66799  -0.66175  -0.65953  -0.65647
 Alpha  occ. eigenvalues --   -0.64914  -0.64520  -0.64444  -0.63975  -0.63401
 Alpha  occ. eigenvalues --   -0.63228  -0.63121  -0.62848  -0.62675  -0.62495
 Alpha  occ. eigenvalues --   -0.62049  -0.61660  -0.61367  -0.60559  -0.60323
 Alpha  occ. eigenvalues --   -0.59975  -0.59334  -0.59209  -0.58645  -0.58481
 Alpha  occ. eigenvalues --   -0.57823  -0.57653  -0.57313  -0.56626  -0.56488
 Alpha  occ. eigenvalues --   -0.55852  -0.55748  -0.55406  -0.54867  -0.54421
 Alpha  occ. eigenvalues --   -0.53956  -0.53742  -0.53637  -0.53240  -0.52930
 Alpha  occ. eigenvalues --   -0.52719  -0.52317  -0.51809  -0.51760  -0.51491
 Alpha  occ. eigenvalues --   -0.51028  -0.50908  -0.50744  -0.50632  -0.50505
 Alpha  occ. eigenvalues --   -0.50200  -0.49345  -0.48988  -0.48828  -0.48543
 Alpha  occ. eigenvalues --   -0.48429  -0.48000  -0.47953  -0.47631  -0.47527
 Alpha  occ. eigenvalues --   -0.47235  -0.47124  -0.47024  -0.46909  -0.46610
 Alpha  occ. eigenvalues --   -0.46261  -0.46170  -0.45854  -0.45480  -0.45387
 Alpha  occ. eigenvalues --   -0.45286  -0.44760  -0.44645  -0.44155  -0.43990
 Alpha  occ. eigenvalues --   -0.43774  -0.43600  -0.43037  -0.42721  -0.42335
 Alpha  occ. eigenvalues --   -0.42034  -0.41803  -0.41540  -0.38977  -0.38815
 Alpha  occ. eigenvalues --   -0.38034  -0.37293  -0.35171  -0.34835  -0.34329
 Alpha  occ. eigenvalues --   -0.33930  -0.32782  -0.32563  -0.31871  -0.26623
 Alpha  occ. eigenvalues --   -0.22023
 Alpha virt. eigenvalues --   -0.08859  -0.01915  -0.00161   0.01342   0.01506
 Alpha virt. eigenvalues --    0.01960   0.02794   0.03001   0.04515   0.04865
 Alpha virt. eigenvalues --    0.06268   0.06712   0.06928   0.07619   0.07995

 Mulliken charges:
               1
     1  Mg   0.430436
     2  C   -0.064119
     3  C   -0.078893
     4  C   -0.100521
     5  C   -0.063242
     6  N   -0.324550
     7  C    0.132151
     8  C    0.005718
     9  C    0.006959
    10  C    0.127471
    11  C   -0.044222
    12  C   -0.020959
    13  C    0.011706
    14  C    0.460886
    15  O   -0.499137
    16  O   -0.270855
    17  N   -0.300279
    18  C    0.117622
    19  C    0.034940
    20  C   -0.037161
    21  C    0.111442
    22  C   -0.033967
    23  C    0.322363
    24  O   -0.502407
    25  C   -0.026594
    26  N   -0.244649
    27  C    0.143244
    28  C   -0.001612
    29  C    0.004848
    30  C    0.105480
    31  C   -0.054597
    32  C   -0.038127
    33  C   -0.058136
    34  N   -0.303231
    35  C    0.066437
    36  C    0.036768
    37  C   -0.062919
    38  C    0.116545
    39  C   -0.035619
    40  C    0.331700
    41  O   -0.525063
    42  C    0.058992
    43  C    0.491788
    44  O   -0.525481
    45  O   -0.278183
    46  C    0.071836
    47  C    0.108697
    48  C   -0.078520
    49  C   -0.011407
    50  C   -0.042232
    51  C   -0.029483
    52  C   -0.030164
    53  C   -0.027017
    54  C   -0.017583
    55  C   -0.063245
    56  C   -0.026588
    57  C   -0.040823
    58  C   -0.042291
    59  C   -0.018688
    60  C   -0.055014
    61  C   -0.027885
    62  C   -0.035915
    63  C   -0.042976
    64  C   -0.012596
    65  C   -0.063382
    66  C   -0.052267
    67  H    0.028254
    68  H    0.021180
    69  H    0.019439
    70  H    0.027691
    71  H    0.038253
    72  H    0.018612
    73  H    0.033263
    74  H    0.023580
    75  H    0.029236
    76  H    0.021138
    77  H    0.043330
    78  H    0.049800
    79  H    0.017221
    80  H    0.044909
    81  H    0.039461
    82  H    0.036109
    83  H    0.033444
    84  H    0.038367
    85  H    0.028315
    86  H    0.024668
    87  H    0.027656
    88  H    0.023989
    89  H    0.032850
    90  H    0.022263
    91  H    0.022764
    92  H    0.026678
    93  H    0.021911
    94  H    0.023776
    95  H    0.014271
    96  H    0.034434
    97  H    0.039658
    98  H    0.058381
    99  H    0.049887
   100  H    0.063930
   101  H    0.032891
   102  H    0.044197
   103  H    0.060169
   104  H    0.028065
   105  H    0.007724
   106  H    0.034619
   107  H    0.028747
   108  H    0.013784
   109  H    0.008316
   110  H    0.020580
   111  H    0.021487
   112  H    0.013562
   113  H    0.031176
   114  H    0.014330
   115  H    0.023454
   116  H    0.012437
   117  H    0.011732
   118  H    0.022150
   119  H    0.020712
   120  H    0.016784
   121  H    0.015248
   122  H    0.023797
   123  H    0.019053
   124  H    0.020836
   125  H    0.010858
   126  H    0.012251
   127  H    0.019789
   128  H    0.021743
   129  H    0.014364
   130  H    0.014247
   131  H    0.032204
   132  H    0.022563
   133  H    0.007617
   134  H    0.023866
   135  H    0.013926
   136  H    0.018140
   137  H    0.023038
   138  H    0.020602
   139  H    0.011940
   140  H    0.022856
 Sum of Mulliken charges =  -0.00000

 Dipole moment (field-independent basis, Debye):
    X=              3.4105    Y=              9.4517    Z=              0.1910  Tot=             10.0500
 N-N= 4.317648437518D+03 E-N= 0.000000000000D+00  KE=-9.309658680272D+03
 Leave Link  601 at Fri Apr 29 15:07:09 2022, MaxMem=  6710886400 cpu:               1.0 elap:               0.1
 (Enter /sw/apps/gaussian-16.0/g16/l9999.exe)
 1\1\GINC-BP1-COMPUTE156\SP\RZINDO CIS\STO-3G\C55H74Mg1N4O6\OF15641\29-
 Apr-2022\0\\#p ZINDO=(nstates=5)\\step_351_chromophore_14 ZINDO\\0,1\M
 g,0,45.939,44.772,43.358\C,0,42.529,43.78,43.228\C,0,46.711,41.438,42.
 649\C,0,49.072,45.784,42.94\C,0,44.904,48.034,43.659\N,0,44.697,42.881
 ,42.77\C,0,43.362,42.712,42.906\C,0,42.992,41.259,42.766\C,0,44.312,40
 .48,43.038\C,0,45.362,41.63,42.858\C,0,44.493,39.861,44.46\C,0,42.172,
 40.839,41.491\C,0,42.17,41.689,40.25\C,0,41.889,41.06,38.859\O,0,41.31

 Normal termination of Gaussian 16 at Fri Apr 29 15:07:09 2022.
