 Gaussian 16, Revision A.03,
 Gaussian 16:  ES64L-G16RevA.03 25-Dec-2016

 ------------------------------
 #p blyp/Def2SVP td=(nstates=5)
 ------------------------------

 -------------------------------------------------
 step_451_chromophore_7 TDDFT with blyp functional
 -------------------------------------------------
 Symbolic Z-matrix:
 Charge =  0 Multiplicity = 1

                         Standard orientation:
 ---------------------------------------------------------------------
 Center     Atomic      Atomic             Coordinates (Angstroms)
 Number     Number       Type             X           Y           Z
 ---------------------------------------------------------------------
      1         12           0        5.878087    0.550900    0.159246
      2          6           0        3.608926   -2.153392    0.233675
      3          6           0        3.623608    2.503213   -1.257700
      4          6           0        8.360762    2.929113   -0.055749
      5          6           0        8.396176   -1.674409    1.113403
      6          7           0        3.762408    0.173084   -0.445968
      7          6           0        3.006247   -1.032028   -0.276047
      8          6           0        1.577257   -0.753884   -0.760425
      9          6           0        1.711392    0.713670   -1.407635
     10          6           0        3.127910    1.198643   -1.010077
     11          6           0        1.596015    0.784670   -2.965080
     12          6           0        0.652063   -0.878942    0.491927
     13          6           0       -0.485581   -1.895166    0.421401
     14          6           0       -1.947940   -1.251579    0.691261
     15          8           0       -2.235260   -0.267888    1.378020
     16          8           0       -2.843987   -1.880310   -0.173694
     17          7           0        5.877552    2.449599   -0.477558
     18          6           0        4.865955    3.120099   -1.081963
     19          6           0        5.262759    4.399664   -1.551197
     20          6           0        6.691294    4.568983   -1.247468
     21          6           0        7.034806    3.319280   -0.542349
     22          6           0        4.306436    5.392814   -2.238184
     23          6           0        7.641461    5.650392   -1.638211
     24          8           0        8.854896    5.657788   -1.323038
     25          6           0        7.172987    6.907976   -2.402424
     26          7           0        8.024349    0.641937    0.648893
     27          6           0        8.835524    1.725341    0.468670
     28          6           0       10.334754    1.456472    0.956679
     29          6           0       10.230556    0.000397    1.448773
     30          6           0        8.789552   -0.373878    1.050748
     31          6           0       11.392485    1.677514   -0.120150
     32          6           0       10.440227   -0.133672    3.007211
     33          6           0       10.791033   -1.555387    3.506298
     34          7           0        6.039809   -1.424450    0.654740
     35          6           0        7.141782   -2.232886    0.939457
     36          6           0        6.641241   -3.564046    1.229970
     37          6           0        5.317281   -3.601016    0.973913
     38          6           0        4.970559   -2.260762    0.655376
     39          6           0        7.463848   -4.682609    1.688221
     40          6           0        4.170344   -4.438485    0.857108
     41          8           0        4.055792   -5.634360    1.146558
     42          6           0        2.967448   -3.555272    0.463195
     43          6           0        2.284130   -4.011033   -0.781657
     44          8           0        2.745882   -3.746076   -1.865672
     45          8           0        1.253535   -4.893872   -0.564743
     46          6           0        0.715804   -5.412052   -1.804179
     47          6           0       -4.180644   -1.269985   -0.051720
     48          6           0       -5.287939   -2.034365   -0.574816
     49          6           0       -6.420174   -1.674458   -1.224874
     50          6           0       -6.896099   -0.241681   -1.670024
     51          6           0       -7.479197   -2.662292   -1.671238
     52          6           0       -8.991591   -2.619137   -1.345469
     53          6           0       -9.790889   -1.975945   -2.496772
     54          6           0      -11.285889   -1.805239   -1.937941
     55          6           0      -12.182693   -2.557383   -2.820039
     56          6           0      -11.696194   -0.272721   -1.767346
     57          6           0      -12.080575    0.144212   -0.244794
     58          6           0      -13.509619    0.712354   -0.125689
     59          6           0      -13.908361    1.181502    1.323765
     60          6           0      -15.217361    0.481560    1.843954
     61          6           0      -14.053980    2.747851    1.556155
     62          6           0      -13.058288    3.327031    2.581217
     63          6           0      -11.734632    3.813090    1.967968
     64          6           0      -10.477232    3.368952    2.797706
     65          6           0      -10.101807    4.506736    3.760144
     66          6           0       -9.318540    2.842718    1.886334
     67          1           0        2.922259    3.076033   -1.868237
     68          1           0        9.124873    3.694618   -0.209532
     69          1           0        9.122564   -2.447345    1.371197
     70          1           0        1.336127   -1.501533   -1.517189
     71          1           0        0.962299    1.292637   -0.866853
     72          1           0        1.641612   -0.202868   -3.424762
     73          1           0        2.401652    1.414439   -3.340813
     74          1           0        0.710076    1.308208   -3.326145
     75          1           0        0.245977    0.104868    0.729835
     76          1           0        1.261918   -1.071089    1.375431
     77          1           0       -0.304809   -2.803331    0.997225
     78          1           0       -0.466073   -2.297593   -0.591260
     79          1           0        3.315715    5.011351   -2.487401
     80          1           0        4.810699    5.681215   -3.160942
     81          1           0        4.298459    6.335349   -1.690403
     82          1           0        6.473530    7.538457   -1.853177
     83          1           0        6.708538    6.640451   -3.351325
     84          1           0        8.032641    7.537867   -2.630922
     85          1           0       10.573719    2.026350    1.854935
     86          1           0       10.909984   -0.655452    0.904246
     87          1           0       11.004615    1.578279   -1.134504
     88          1           0       12.195527    1.003552    0.179192
     89          1           0       11.844642    2.662506   -0.013830
     90          1           0        9.458857   -0.001255    3.462287
     91          1           0       11.205603    0.550750    3.372323
     92          1           0       11.783575   -1.422269    3.937359
     93          1           0       10.938603   -2.129626    2.592019
     94          1           0        9.988125   -2.086852    4.017709
     95          1           0        8.542010   -4.544511    1.609202
     96          1           0        7.200644   -5.537866    1.065145
     97          1           0        7.265036   -4.889508    2.739036
     98          1           0        2.228424   -3.502952    1.263385
     99          1           0        0.215315   -6.354831   -1.584302
    100          1           0        1.418862   -5.621043   -2.610062
    101          1           0       -0.046087   -4.705589   -2.135149
    102          1           0       -3.991442   -0.374292   -0.644521
    103          1           0       -4.503656   -0.889710    0.917114
    104          1           0       -5.250115   -3.093386   -0.316565
    105          1           0       -7.902687   -0.005340   -1.324408
    106          1           0       -6.964479   -0.160965   -2.754673
    107          1           0       -6.094641    0.412899   -1.328503
    108          1           0       -7.141033   -3.632113   -1.305706
    109          1           0       -7.396853   -2.766553   -2.752431
    110          1           0       -9.295990   -2.126373   -0.422514
    111          1           0       -9.328076   -3.607925   -1.031167
    112          1           0       -9.797149   -2.685266   -3.324591
    113          1           0       -9.326515   -1.107174   -2.963631
    114          1           0      -11.261786   -2.184762   -0.916008
    115          1           0      -13.066354   -2.952609   -2.317800
    116          1           0      -11.797300   -3.544624   -3.075211
    117          1           0      -12.534927   -2.045851   -3.715570
    118          1           0      -12.496653   -0.019459   -2.463200
    119          1           0      -10.820040    0.330299   -2.003505
    120          1           0      -11.447799    0.992817    0.014642
    121          1           0      -12.100630   -0.663570    0.486985
    122          1           0      -14.129885   -0.107305   -0.487894
    123          1           0      -13.622791    1.509273   -0.860009
    124          1           0      -13.214348    0.944186    2.130313
    125          1           0      -15.522789   -0.402801    1.285267
    126          1           0      -16.061333    1.148006    1.662939
    127          1           0      -15.072889    0.273083    2.904663
    128          1           0      -15.092416    2.964620    1.805507
    129          1           0      -13.824739    3.239272    0.610260
    130          1           0      -12.943995    2.652948    3.429848
    131          1           0      -13.479659    4.152273    3.155166
    132          1           0      -11.699520    4.900573    1.899719
    133          1           0      -11.690413    3.389691    0.964610
    134          1           0      -10.742112    2.546554    3.462657
    135          1           0      -10.502644    5.502718    3.571583
    136          1           0       -9.044597    4.771398    3.797866
    137          1           0      -10.291319    4.194050    4.786945
    138          1           0       -9.095143    1.794737    2.086951
    139          1           0       -8.405937    3.392612    2.118213
    140          1           0       -9.587975    2.799169    0.831906
 ---------------------------------------------------------------------

 SCF Done:  E(RB-LYP) =  -3007.37118101     A.U. after   21 cycles

 Excitation energies and oscillator strengths:

 Excited State   1:      Singlet-A      1.7938 eV  691.20 nm  f=0.2784  <S**2>=0.000
     245 -> 248       -0.15170
     245 -> 249        0.11465
     246 -> 247        0.68845
     246 <- 247       -0.15366
 This state for optimization and/or second-order correction.
 Total Energy, E(TD-HF/TD-DFT) =  -3007.30526175
 Copying the excited state density for this state as the 1-particle RhoCI density.

 Excited State   2:      Singlet-A      1.9152 eV  647.35 nm  f=0.0017  <S**2>=0.000
     244 -> 247        0.70071

 Excited State   3:      Singlet-A      1.9893 eV  623.27 nm  f=0.0925  <S**2>=0.000
     243 -> 247        0.31412
     245 -> 247        0.58488
     246 -> 248        0.16535
     246 -> 249       -0.10228

 Excited State   4:      Singlet-A      2.0861 eV  594.33 nm  f=0.0204  <S**2>=0.000
     243 -> 247        0.62966
     245 -> 247       -0.28132
     246 -> 248       -0.11289

 Excited State   5:      Singlet-A      2.3942 eV  517.84 nm  f=0.0000  <S**2>=0.000
     242 -> 247        0.70413

 The electronic state is 1-A.
 Alpha  occ. eigenvalues --  -46.26408 -18.83062 -18.83056 -18.78316 -18.77128
 Alpha  occ. eigenvalues --  -18.75841 -18.75480 -14.02897 -14.02825 -14.01218
 Alpha  occ. eigenvalues --  -14.00988 -10.05356 -10.04192 -10.00250  -9.99954
 Alpha  occ. eigenvalues --   -9.97750  -9.97684  -9.96756  -9.96675  -9.96567
 Alpha  occ. eigenvalues --   -9.96238  -9.95697  -9.95445  -9.95122  -9.94884
 Alpha  occ. eigenvalues --   -9.94531  -9.94528  -9.94413  -9.94403  -9.94349
 Alpha  occ. eigenvalues --   -9.93822  -9.93634  -9.93629  -9.93623  -9.93448
 Alpha  occ. eigenvalues --   -9.93258  -9.93087  -9.93054  -9.92759  -9.92741
 Alpha  occ. eigenvalues --   -9.92423  -9.92385  -9.92265  -9.92230  -9.92108
 Alpha  occ. eigenvalues --   -9.92102  -9.92092  -9.92076  -9.92000  -9.91951
 Alpha  occ. eigenvalues --   -9.91928  -9.91839  -9.91820  -9.91766  -9.91752
 Alpha  occ. eigenvalues --   -9.91738  -9.91473  -9.91244  -9.91100  -9.91065
 Alpha  occ. eigenvalues --   -9.90927  -9.90791  -9.90777  -9.90748  -9.90714
 Alpha  occ. eigenvalues --   -9.90603  -2.91136  -1.71572  -1.71005  -1.70861
 Alpha  occ. eigenvalues --   -0.98978  -0.97902  -0.91214  -0.90882  -0.90293
 Alpha  occ. eigenvalues --   -0.89992  -0.86585  -0.85686  -0.84857  -0.83918
 Alpha  occ. eigenvalues --   -0.75626  -0.73506  -0.72527  -0.72421  -0.72306
 Alpha  occ. eigenvalues --   -0.71849  -0.71408  -0.71059  -0.70433  -0.70162
 Alpha  occ. eigenvalues --   -0.69884  -0.68872  -0.68174  -0.67752  -0.67221
 Alpha  occ. eigenvalues --   -0.66784  -0.65938  -0.65047  -0.64895  -0.64289
 Alpha  occ. eigenvalues --   -0.64235  -0.62671  -0.62242  -0.61779  -0.61052
 Alpha  occ. eigenvalues --   -0.60605  -0.60267  -0.59696  -0.59403  -0.58663
 Alpha  occ. eigenvalues --   -0.57979  -0.57748  -0.56509  -0.55425  -0.54694
 Alpha  occ. eigenvalues --   -0.54024  -0.53431  -0.53013  -0.52794  -0.51453
 Alpha  occ. eigenvalues --   -0.51302  -0.51224  -0.50841  -0.50518  -0.50279
 Alpha  occ. eigenvalues --   -0.49821  -0.49637  -0.48928  -0.48590  -0.46845
 Alpha  occ. eigenvalues --   -0.46715  -0.46163  -0.45441  -0.45052  -0.44986
 Alpha  occ. eigenvalues --   -0.44365  -0.44038  -0.43076  -0.42885  -0.42547
 Alpha  occ. eigenvalues --   -0.42042  -0.41882  -0.41609  -0.41550  -0.41346
 Alpha  occ. eigenvalues --   -0.40909  -0.40837  -0.40665  -0.40338  -0.39890
 Alpha  occ. eigenvalues --   -0.39848  -0.39683  -0.39549  -0.39329  -0.38891
 Alpha  occ. eigenvalues --   -0.38852  -0.38758  -0.38714  -0.38617  -0.38301
 Alpha  occ. eigenvalues --   -0.37872  -0.37665  -0.37426  -0.37295  -0.37161
 Alpha  occ. eigenvalues --   -0.36869  -0.36788  -0.36613  -0.36339  -0.36263
 Alpha  occ. eigenvalues --   -0.36234  -0.35932  -0.35819  -0.35681  -0.35422
 Alpha  occ. eigenvalues --   -0.35180  -0.35068  -0.34735  -0.34526  -0.34466
 Alpha  occ. eigenvalues --   -0.34396  -0.34178  -0.34085  -0.34013  -0.33873
 Alpha  occ. eigenvalues --   -0.33817  -0.33699  -0.33402  -0.33283  -0.33271
 Alpha  occ. eigenvalues --   -0.33039  -0.32910  -0.32660  -0.32607  -0.32374
 Alpha  occ. eigenvalues --   -0.32278  -0.32057  -0.31804  -0.31739  -0.31624
 Alpha  occ. eigenvalues --   -0.31394  -0.31285  -0.31111  -0.30933  -0.30764
 Alpha  occ. eigenvalues --   -0.30688  -0.30537  -0.30223  -0.29807  -0.29797
 Alpha  occ. eigenvalues --   -0.29760  -0.29481  -0.29325  -0.28899  -0.28536
 Alpha  occ. eigenvalues --   -0.28431  -0.28307  -0.28195  -0.28005  -0.27842
 Alpha  occ. eigenvalues --   -0.27466  -0.26994  -0.26991  -0.26766  -0.26450
 Alpha  occ. eigenvalues --   -0.26422  -0.26057  -0.25837  -0.25822  -0.25479
 Alpha  occ. eigenvalues --   -0.25418  -0.25152  -0.24727  -0.23793  -0.23720
 Alpha  occ. eigenvalues --   -0.23401  -0.23159  -0.22508  -0.22260  -0.21200
 Alpha  occ. eigenvalues --   -0.20513  -0.20429  -0.19103  -0.18583  -0.17284
 Alpha  occ. eigenvalues --   -0.15818
 Alpha virt. eigenvalues --   -0.11632  -0.07096  -0.06503  -0.04931  -0.03902
 Alpha virt. eigenvalues --   -0.03250  -0.02053  -0.01344  -0.00695   0.00260
 Alpha virt. eigenvalues --    0.01185   0.01498   0.01566   0.02834   0.03095

 Mulliken charges:
               1
     1  Mg   0.700006
     2  C    0.014085
     3  C   -0.052481
     4  C   -0.039263
     5  C   -0.080196
     6  N   -0.229747
     7  C   -0.106595
     8  C   -0.004592
     9  C    0.026132
    10  C   -0.007884
    11  C    0.125488
    12  C    0.128187
    13  C    0.082082
    14  C    0.124379
    15  O   -0.190883
    16  O   -0.276614
    17  N   -0.347639
    18  C    0.178365
    19  C   -0.149138
    20  C    0.064410
    21  C    0.088132
    22  C    0.192115
    23  C   -0.063207
    24  O   -0.188885
    25  C    0.103998
    26  N   -0.172389
    27  C    0.019765
    28  C    0.045097
    29  C   -0.001837
    30  C    0.039330
    31  C    0.142134
    32  C    0.063442
    33  C    0.088605
    34  N   -0.281726
    35  C    0.103280
    36  C   -0.183431
    37  C    0.141415
    38  C    0.084964
    39  C    0.169736
    40  C   -0.054139
    41  O   -0.142733
    42  C    0.111217
    43  C    0.078414
    44  O   -0.175379
    45  O   -0.253068
    46  C    0.215560
    47  C    0.305620
    48  C   -0.079353
    49  C   -0.132986
    50  C    0.127306
    51  C    0.156391
    52  C    0.031257
    53  C    0.079735
    54  C   -0.046215
    55  C    0.124655
    56  C    0.125029
    57  C    0.020568
    58  C    0.092640
    59  C   -0.056708
    60  C    0.079242
    61  C    0.103932
    62  C    0.062010
    63  C    0.115911
    64  C   -0.088683
    65  C    0.089214
    66  C    0.104124
    67  H   -0.076757
    68  H   -0.046579
    69  H   -0.088465
    70  H   -0.005631
    71  H   -0.023838
    72  H    0.006564
    73  H   -0.010091
    74  H   -0.012047
    75  H   -0.015667
    76  H   -0.016202
    77  H    0.016447
    78  H   -0.007736
    79  H   -0.000538
    80  H   -0.014288
    81  H    0.002263
    82  H    0.009660
    83  H    0.001888
    84  H   -0.008780
    85  H   -0.025893
    86  H   -0.029553
    87  H    0.009294
    88  H   -0.016799
    89  H   -0.005545
    90  H   -0.014411
    91  H   -0.009883
    92  H   -0.008195
    93  H   -0.024288
    94  H    0.006145
    95  H   -0.023728
    96  H    0.011210
    97  H    0.006105
    98  H   -0.001661
    99  H    0.010817
   100  H    0.025965
   101  H    0.006486
   102  H   -0.014444
   103  H    0.025756
   104  H   -0.039858
   105  H    0.015472
   106  H   -0.005332
   107  H   -0.020134
   108  H   -0.058801
   109  H   -0.022512
   110  H   -0.029210
   111  H   -0.029860
   112  H   -0.039698
   113  H   -0.028887
   114  H   -0.031839
   115  H   -0.038875
   116  H   -0.031943
   117  H   -0.008009
   118  H   -0.029910
   119  H   -0.038424
   120  H   -0.020556
   121  H   -0.009329
   122  H   -0.034777
   123  H   -0.032634
   124  H   -0.034796
   125  H   -0.021555
   126  H   -0.019309
   127  H   -0.007590
   128  H   -0.036710
   129  H   -0.037145
   130  H   -0.039649
   131  H   -0.048168
   132  H   -0.023198
   133  H   -0.033965
   134  H   -0.028653
   135  H   -0.015635
   136  H   -0.033904
   137  H   -0.015297
   138  H   -0.020616
   139  H   -0.016213
   140  H   -0.012261
 Sum of Mulliken charges =  -0.00000

 Dipole moment (field-independent basis, Debye):
    X=             -2.8697    Y=              0.9827    Z=             -1.1364  Tot=              3.2392
 Quadrupole moment (field-independent basis, Debye-Ang):
   XX=           -386.1775   YY=           -423.3204   ZZ=           -400.3275
   XY=             -1.8557   XZ=             18.2714   YZ=             -0.5052

 Normal termination of Gaussian 16 at Wed May  4 23:36:55 2022.
