 Gaussian 16, Revision A.03,
 Gaussian 16:  ES64L-G16RevA.03 25-Dec-2016

 -----------------------------------
 #p cam-b3lyp/Def2SVP td=(nstates=5)
 -----------------------------------

 ------------------------------------------------------
 step_451_chromophore_7 TDDFT with cam-b3lyp functional
 ------------------------------------------------------
 Symbolic Z-matrix:
 Charge =  0 Multiplicity = 1

                         Standard orientation:
 ---------------------------------------------------------------------
 Center     Atomic      Atomic             Coordinates (Angstroms)
 Number     Number       Type             X           Y           Z
 ---------------------------------------------------------------------
      1         12           0        5.878087    0.550900    0.159246
      2          6           0        3.608926   -2.153392    0.233675
      3          6           0        3.623608    2.503213   -1.257700
      4          6           0        8.360762    2.929113   -0.055749
      5          6           0        8.396176   -1.674409    1.113403
      6          7           0        3.762408    0.173084   -0.445968
      7          6           0        3.006247   -1.032028   -0.276047
      8          6           0        1.577257   -0.753884   -0.760425
      9          6           0        1.711392    0.713670   -1.407635
     10          6           0        3.127910    1.198643   -1.010077
     11          6           0        1.596015    0.784670   -2.965080
     12          6           0        0.652063   -0.878942    0.491927
     13          6           0       -0.485581   -1.895166    0.421401
     14          6           0       -1.947940   -1.251579    0.691261
     15          8           0       -2.235260   -0.267888    1.378020
     16          8           0       -2.843987   -1.880310   -0.173694
     17          7           0        5.877552    2.449599   -0.477558
     18          6           0        4.865955    3.120099   -1.081963
     19          6           0        5.262759    4.399664   -1.551197
     20          6           0        6.691294    4.568983   -1.247468
     21          6           0        7.034806    3.319280   -0.542349
     22          6           0        4.306436    5.392814   -2.238184
     23          6           0        7.641461    5.650392   -1.638211
     24          8           0        8.854896    5.657788   -1.323038
     25          6           0        7.172987    6.907976   -2.402424
     26          7           0        8.024349    0.641937    0.648893
     27          6           0        8.835524    1.725341    0.468670
     28          6           0       10.334754    1.456472    0.956679
     29          6           0       10.230556    0.000397    1.448773
     30          6           0        8.789552   -0.373878    1.050748
     31          6           0       11.392485    1.677514   -0.120150
     32          6           0       10.440227   -0.133672    3.007211
     33          6           0       10.791033   -1.555387    3.506298
     34          7           0        6.039809   -1.424450    0.654740
     35          6           0        7.141782   -2.232886    0.939457
     36          6           0        6.641241   -3.564046    1.229970
     37          6           0        5.317281   -3.601016    0.973913
     38          6           0        4.970559   -2.260762    0.655376
     39          6           0        7.463848   -4.682609    1.688221
     40          6           0        4.170344   -4.438485    0.857108
     41          8           0        4.055792   -5.634360    1.146558
     42          6           0        2.967448   -3.555272    0.463195
     43          6           0        2.284130   -4.011033   -0.781657
     44          8           0        2.745882   -3.746076   -1.865672
     45          8           0        1.253535   -4.893872   -0.564743
     46          6           0        0.715804   -5.412052   -1.804179
     47          6           0       -4.180644   -1.269985   -0.051720
     48          6           0       -5.287939   -2.034365   -0.574816
     49          6           0       -6.420174   -1.674458   -1.224874
     50          6           0       -6.896099   -0.241681   -1.670024
     51          6           0       -7.479197   -2.662292   -1.671238
     52          6           0       -8.991591   -2.619137   -1.345469
     53          6           0       -9.790889   -1.975945   -2.496772
     54          6           0      -11.285889   -1.805239   -1.937941
     55          6           0      -12.182693   -2.557383   -2.820039
     56          6           0      -11.696194   -0.272721   -1.767346
     57          6           0      -12.080575    0.144212   -0.244794
     58          6           0      -13.509619    0.712354   -0.125689
     59          6           0      -13.908361    1.181502    1.323765
     60          6           0      -15.217361    0.481560    1.843954
     61          6           0      -14.053980    2.747851    1.556155
     62          6           0      -13.058288    3.327031    2.581217
     63          6           0      -11.734632    3.813090    1.967968
     64          6           0      -10.477232    3.368952    2.797706
     65          6           0      -10.101807    4.506736    3.760144
     66          6           0       -9.318540    2.842718    1.886334
     67          1           0        2.922259    3.076033   -1.868237
     68          1           0        9.124873    3.694618   -0.209532
     69          1           0        9.122564   -2.447345    1.371197
     70          1           0        1.336127   -1.501533   -1.517189
     71          1           0        0.962299    1.292637   -0.866853
     72          1           0        1.641612   -0.202868   -3.424762
     73          1           0        2.401652    1.414439   -3.340813
     74          1           0        0.710076    1.308208   -3.326145
     75          1           0        0.245977    0.104868    0.729835
     76          1           0        1.261918   -1.071089    1.375431
     77          1           0       -0.304809   -2.803331    0.997225
     78          1           0       -0.466073   -2.297593   -0.591260
     79          1           0        3.315715    5.011351   -2.487401
     80          1           0        4.810699    5.681215   -3.160942
     81          1           0        4.298459    6.335349   -1.690403
     82          1           0        6.473530    7.538457   -1.853177
     83          1           0        6.708538    6.640451   -3.351325
     84          1           0        8.032641    7.537867   -2.630922
     85          1           0       10.573719    2.026350    1.854935
     86          1           0       10.909984   -0.655452    0.904246
     87          1           0       11.004615    1.578279   -1.134504
     88          1           0       12.195527    1.003552    0.179192
     89          1           0       11.844642    2.662506   -0.013830
     90          1           0        9.458857   -0.001255    3.462287
     91          1           0       11.205603    0.550750    3.372323
     92          1           0       11.783575   -1.422269    3.937359
     93          1           0       10.938603   -2.129626    2.592019
     94          1           0        9.988125   -2.086852    4.017709
     95          1           0        8.542010   -4.544511    1.609202
     96          1           0        7.200644   -5.537866    1.065145
     97          1           0        7.265036   -4.889508    2.739036
     98          1           0        2.228424   -3.502952    1.263385
     99          1           0        0.215315   -6.354831   -1.584302
    100          1           0        1.418862   -5.621043   -2.610062
    101          1           0       -0.046087   -4.705589   -2.135149
    102          1           0       -3.991442   -0.374292   -0.644521
    103          1           0       -4.503656   -0.889710    0.917114
    104          1           0       -5.250115   -3.093386   -0.316565
    105          1           0       -7.902687   -0.005340   -1.324408
    106          1           0       -6.964479   -0.160965   -2.754673
    107          1           0       -6.094641    0.412899   -1.328503
    108          1           0       -7.141033   -3.632113   -1.305706
    109          1           0       -7.396853   -2.766553   -2.752431
    110          1           0       -9.295990   -2.126373   -0.422514
    111          1           0       -9.328076   -3.607925   -1.031167
    112          1           0       -9.797149   -2.685266   -3.324591
    113          1           0       -9.326515   -1.107174   -2.963631
    114          1           0      -11.261786   -2.184762   -0.916008
    115          1           0      -13.066354   -2.952609   -2.317800
    116          1           0      -11.797300   -3.544624   -3.075211
    117          1           0      -12.534927   -2.045851   -3.715570
    118          1           0      -12.496653   -0.019459   -2.463200
    119          1           0      -10.820040    0.330299   -2.003505
    120          1           0      -11.447799    0.992817    0.014642
    121          1           0      -12.100630   -0.663570    0.486985
    122          1           0      -14.129885   -0.107305   -0.487894
    123          1           0      -13.622791    1.509273   -0.860009
    124          1           0      -13.214348    0.944186    2.130313
    125          1           0      -15.522789   -0.402801    1.285267
    126          1           0      -16.061333    1.148006    1.662939
    127          1           0      -15.072889    0.273083    2.904663
    128          1           0      -15.092416    2.964620    1.805507
    129          1           0      -13.824739    3.239272    0.610260
    130          1           0      -12.943995    2.652948    3.429848
    131          1           0      -13.479659    4.152273    3.155166
    132          1           0      -11.699520    4.900573    1.899719
    133          1           0      -11.690413    3.389691    0.964610
    134          1           0      -10.742112    2.546554    3.462657
    135          1           0      -10.502644    5.502718    3.571583
    136          1           0       -9.044597    4.771398    3.797866
    137          1           0      -10.291319    4.194050    4.786945
    138          1           0       -9.095143    1.794737    2.086951
    139          1           0       -8.405937    3.392612    2.118213
    140          1           0       -9.587975    2.799169    0.831906
 ---------------------------------------------------------------------

 SCF Done:  E(RCAM-B3LYP) =  -3007.15413081     A.U. after   16 cycles

 Excitation energies and oscillator strengths:

 Excited State   1:      Singlet-A      1.6956 eV  731.20 nm  f=0.3869  <S**2>=0.000
     245 -> 248       -0.17101
     246 -> 247        0.68531
     245 <- 248       -0.10276
 This state for optimization and/or second-order correction.
 Total Energy, E(TD-HF/TD-DFT) =  -3007.09181797
 Copying the excited state density for this state as the 1-particle RhoCI density.

 Excited State   2:      Singlet-A      2.2254 eV  557.13 nm  f=0.1354  <S**2>=0.000
     245 -> 247        0.64297
     246 -> 248        0.27011

 Excited State   3:      Singlet-A      3.3779 eV  367.04 nm  f=0.0369  <S**2>=0.000
     244 -> 247        0.63392
     246 -> 248       -0.27705

 Excited State   4:      Singlet-A      3.4992 eV  354.33 nm  f=0.0262  <S**2>=0.000
     240 -> 247       -0.26871
     240 -> 248        0.13375
     240 -> 249        0.12335
     240 -> 250       -0.13012
     241 -> 247        0.43494
     241 -> 248       -0.22372
     241 -> 249       -0.22513
     241 -> 250        0.20460
     246 -> 248        0.13054

 Excited State   5:      Singlet-A      3.5498 eV  349.27 nm  f=0.5108  <S**2>=0.000
     239 -> 247       -0.11009
     240 -> 249       -0.12494
     241 -> 247       -0.17277
     244 -> 247        0.26115
     245 -> 247       -0.23370
     246 -> 248        0.52640

 The electronic state is 1-A.
 Alpha  occ. eigenvalues --  -46.87862 -19.26072 -19.25881 -19.21309 -19.20373
 Alpha  occ. eigenvalues --  -19.19043 -19.18814 -14.41783 -14.41662 -14.39678
 Alpha  occ. eigenvalues --  -14.39413 -10.40821 -10.39734 -10.35642 -10.35292
 Alpha  occ. eigenvalues --  -10.31710 -10.31652 -10.31374 -10.31182 -10.31050
 Alpha  occ. eigenvalues --  -10.30735 -10.29930 -10.29771 -10.29281 -10.29225
 Alpha  occ. eigenvalues --  -10.29191 -10.28942 -10.28540 -10.28501 -10.28398
 Alpha  occ. eigenvalues --  -10.28117 -10.28074 -10.27826 -10.27581 -10.27448
 Alpha  occ. eigenvalues --  -10.27384 -10.27155 -10.26986 -10.26824 -10.26424
 Alpha  occ. eigenvalues --  -10.26249 -10.26212 -10.26174 -10.26129 -10.26088
 Alpha  occ. eigenvalues --  -10.26028 -10.25883 -10.25872 -10.25790 -10.25782
 Alpha  occ. eigenvalues --  -10.25718 -10.25559 -10.25471 -10.25457 -10.25442
 Alpha  occ. eigenvalues --  -10.25361 -10.25195 -10.24940 -10.24784 -10.24723
 Alpha  occ. eigenvalues --  -10.24675 -10.24550 -10.24389 -10.24379 -10.24304
 Alpha  occ. eigenvalues --  -10.24177  -3.16500  -1.91411  -1.90931  -1.90836
 Alpha  occ. eigenvalues --   -1.17643  -1.16304  -1.09431  -1.09124  -1.08438
 Alpha  occ. eigenvalues --   -1.08110  -1.04274  -1.03273  -1.02467  -1.01410
 Alpha  occ. eigenvalues --   -0.92772  -0.90365  -0.89291  -0.89084  -0.89059
 Alpha  occ. eigenvalues --   -0.88522  -0.88029  -0.87684  -0.86969  -0.86668
 Alpha  occ. eigenvalues --   -0.86580  -0.85169  -0.84468  -0.83921  -0.83386
 Alpha  occ. eigenvalues --   -0.82869  -0.81955  -0.80996  -0.80726  -0.80346
 Alpha  occ. eigenvalues --   -0.80046  -0.78422  -0.77870  -0.77293  -0.76475
 Alpha  occ. eigenvalues --   -0.75990  -0.75622  -0.74953  -0.74669  -0.73875
 Alpha  occ. eigenvalues --   -0.73008  -0.72745  -0.71356  -0.70218  -0.69399
 Alpha  occ. eigenvalues --   -0.68652  -0.67954  -0.67489  -0.67128  -0.65628
 Alpha  occ. eigenvalues --   -0.65558  -0.65348  -0.64958  -0.64407  -0.64188
 Alpha  occ. eigenvalues --   -0.63764  -0.63582  -0.62849  -0.62313  -0.60479
 Alpha  occ. eigenvalues --   -0.60333  -0.59795  -0.59019  -0.58787  -0.58281
 Alpha  occ. eigenvalues --   -0.57709  -0.57468  -0.56421  -0.55934  -0.55719
 Alpha  occ. eigenvalues --   -0.55243  -0.54986  -0.54814  -0.54570  -0.54114
 Alpha  occ. eigenvalues --   -0.53845  -0.53807  -0.53433  -0.53131  -0.52775
 Alpha  occ. eigenvalues --   -0.52396  -0.52291  -0.52083  -0.51888  -0.51648
 Alpha  occ. eigenvalues --   -0.51615  -0.51261  -0.51121  -0.50959  -0.50739
 Alpha  occ. eigenvalues --   -0.50192  -0.50102  -0.49900  -0.49576  -0.49353
 Alpha  occ. eigenvalues --   -0.49211  -0.48996  -0.48882  -0.48801  -0.48726
 Alpha  occ. eigenvalues --   -0.48619  -0.48284  -0.48046  -0.47776  -0.47501
 Alpha  occ. eigenvalues --   -0.47308  -0.47025  -0.46594  -0.46458  -0.46377
 Alpha  occ. eigenvalues --   -0.46199  -0.45977  -0.45935  -0.45909  -0.45720
 Alpha  occ. eigenvalues --   -0.45505  -0.45465  -0.45204  -0.45076  -0.45007
 Alpha  occ. eigenvalues --   -0.44694  -0.44591  -0.44392  -0.44343  -0.44062
 Alpha  occ. eigenvalues --   -0.43967  -0.43752  -0.43452  -0.43350  -0.43247
 Alpha  occ. eigenvalues --   -0.43049  -0.42835  -0.42765  -0.42559  -0.42210
 Alpha  occ. eigenvalues --   -0.42114  -0.41813  -0.41652  -0.41170  -0.41023
 Alpha  occ. eigenvalues --   -0.40992  -0.40785  -0.40508  -0.39934  -0.39562
 Alpha  occ. eigenvalues --   -0.39452  -0.39258  -0.39115  -0.39057  -0.38766
 Alpha  occ. eigenvalues --   -0.38274  -0.38264  -0.37774  -0.37550  -0.37478
 Alpha  occ. eigenvalues --   -0.37352  -0.37163  -0.36938  -0.36505  -0.36210
 Alpha  occ. eigenvalues --   -0.36142  -0.36029  -0.35291  -0.35214  -0.34990
 Alpha  occ. eigenvalues --   -0.34227  -0.34070  -0.33009  -0.31756  -0.31126
 Alpha  occ. eigenvalues --   -0.31038  -0.30492  -0.30051  -0.29825  -0.24028
 Alpha  occ. eigenvalues --   -0.21095
 Alpha virt. eigenvalues --   -0.08801  -0.01633  -0.00141   0.01766   0.03717
 Alpha virt. eigenvalues --    0.04000   0.04501   0.05408   0.05889   0.06781
 Alpha virt. eigenvalues --    0.07517   0.07911   0.08630   0.09094   0.09424

 Mulliken charges:
               1
     1  Mg   0.834654
     2  C   -0.018724
     3  C   -0.069131
     4  C   -0.057977
     5  C   -0.089934
     6  N   -0.301337
     7  C   -0.060981
     8  C   -0.051057
     9  C   -0.023036
    10  C    0.013674
    11  C    0.064972
    12  C    0.068612
    13  C    0.021224
    14  C    0.202653
    15  O   -0.233708
    16  O   -0.340267
    17  N   -0.437533
    18  C    0.188016
    19  C   -0.153996
    20  C   -0.008553
    21  C    0.114717
    22  C    0.137687
    23  C    0.012026
    24  O   -0.230176
    25  C    0.028735
    26  N   -0.242565
    27  C    0.033259
    28  C   -0.004940
    29  C   -0.055798
    30  C    0.056011
    31  C    0.080639
    32  C    0.011776
    33  C    0.024931
    34  N   -0.369748
    35  C    0.113585
    36  C   -0.185336
    37  C    0.058126
    38  C    0.125132
    39  C    0.117041
    40  C    0.045439
    41  O   -0.180626
    42  C    0.041103
    43  C    0.162547
    44  O   -0.209372
    45  O   -0.314893
    46  C    0.172923
    47  C    0.268663
    48  C   -0.107524
    49  C   -0.148111
    50  C    0.074155
    51  C    0.090124
    52  C   -0.021037
    53  C    0.026427
    54  C   -0.104017
    55  C    0.062554
    56  C    0.073120
    57  C   -0.023469
    58  C    0.044386
    59  C   -0.118487
    60  C    0.026684
    61  C    0.050454
    62  C    0.009227
    63  C    0.061916
    64  C   -0.150421
    65  C    0.030670
    66  C    0.049661
    67  H   -0.045191
    68  H   -0.004749
    69  H   -0.052167
    70  H    0.026104
    71  H    0.011423
    72  H    0.031497
    73  H    0.015611
    74  H    0.013209
    75  H    0.018926
    76  H    0.016737
    77  H    0.046692
    78  H    0.023697
    79  H    0.027551
    80  H    0.010416
    81  H    0.028509
    82  H    0.036922
    83  H    0.028430
    84  H    0.027244
    85  H    0.010416
    86  H    0.005737
    87  H    0.034645
    88  H    0.007611
    89  H    0.019310
    90  H    0.015153
    91  H    0.017099
    92  H    0.017026
    93  H   -0.003760
    94  H    0.029985
    95  H    0.001520
    96  H    0.037154
    97  H    0.032817
    98  H    0.039187
    99  H    0.035077
   100  H    0.051658
   101  H    0.027049
   102  H    0.013976
   103  H    0.055341
   104  H   -0.004307
   105  H    0.035019
   106  H    0.018896
   107  H    0.003810
   108  H   -0.025586
   109  H    0.007031
   110  H   -0.002519
   111  H    0.000707
   112  H   -0.009536
   113  H   -0.002489
   114  H   -0.000468
   115  H   -0.012249
   116  H   -0.005871
   117  H    0.016054
   118  H   -0.001634
   119  H   -0.009694
   120  H   -0.000165
   121  H    0.015063
   122  H   -0.007869
   123  H   -0.005501
   124  H   -0.003527
   125  H    0.003040
   126  H    0.003032
   127  H    0.015292
   128  H   -0.006109
   129  H   -0.008890
   130  H   -0.012773
   131  H   -0.016864
   132  H    0.005047
   133  H   -0.009638
   134  H    0.003044
   135  H    0.007639
   136  H   -0.008463
   137  H    0.008617
   138  H    0.002810
   139  H    0.007930
   140  H    0.008490
 Sum of Mulliken charges =  -0.00000

 Dipole moment (field-independent basis, Debye):
    X=             -2.9188    Y=              1.4453    Z=             -1.4495  Tot=              3.5650
 Quadrupole moment (field-independent basis, Debye-Ang):
   XX=           -384.0331   YY=           -418.7632   ZZ=           -399.5495
   XY=              1.6924   XZ=             17.7584   YZ=             -2.2565

 Normal termination of Gaussian 16 at Wed May  4 22:37:20 2022.
