 Gaussian 16, Revision A.03,
 Gaussian 16:  ES64L-G16RevA.03 25-Dec-2016

 ---------------------------------
 #p PBE1PBE/Def2SVP td=(nstates=5)
 ---------------------------------

 ----------------------------------------------------
 step_451_chromophore_7 TDDFT with PBE1PBE functional
 ----------------------------------------------------
 Symbolic Z-matrix:
 Charge =  0 Multiplicity = 1

                         Standard orientation:
 ---------------------------------------------------------------------
 Center     Atomic      Atomic             Coordinates (Angstroms)
 Number     Number       Type             X           Y           Z
 ---------------------------------------------------------------------
      1         12           0        5.878087    0.550900    0.159246
      2          6           0        3.608926   -2.153392    0.233675
      3          6           0        3.623608    2.503213   -1.257700
      4          6           0        8.360762    2.929113   -0.055749
      5          6           0        8.396176   -1.674409    1.113403
      6          7           0        3.762408    0.173084   -0.445968
      7          6           0        3.006247   -1.032028   -0.276047
      8          6           0        1.577257   -0.753884   -0.760425
      9          6           0        1.711392    0.713670   -1.407635
     10          6           0        3.127910    1.198643   -1.010077
     11          6           0        1.596015    0.784670   -2.965080
     12          6           0        0.652063   -0.878942    0.491927
     13          6           0       -0.485581   -1.895166    0.421401
     14          6           0       -1.947940   -1.251579    0.691261
     15          8           0       -2.235260   -0.267888    1.378020
     16          8           0       -2.843987   -1.880310   -0.173694
     17          7           0        5.877552    2.449599   -0.477558
     18          6           0        4.865955    3.120099   -1.081963
     19          6           0        5.262759    4.399664   -1.551197
     20          6           0        6.691294    4.568983   -1.247468
     21          6           0        7.034806    3.319280   -0.542349
     22          6           0        4.306436    5.392814   -2.238184
     23          6           0        7.641461    5.650392   -1.638211
     24          8           0        8.854896    5.657788   -1.323038
     25          6           0        7.172987    6.907976   -2.402424
     26          7           0        8.024349    0.641937    0.648893
     27          6           0        8.835524    1.725341    0.468670
     28          6           0       10.334754    1.456472    0.956679
     29          6           0       10.230556    0.000397    1.448773
     30          6           0        8.789552   -0.373878    1.050748
     31          6           0       11.392485    1.677514   -0.120150
     32          6           0       10.440227   -0.133672    3.007211
     33          6           0       10.791033   -1.555387    3.506298
     34          7           0        6.039809   -1.424450    0.654740
     35          6           0        7.141782   -2.232886    0.939457
     36          6           0        6.641241   -3.564046    1.229970
     37          6           0        5.317281   -3.601016    0.973913
     38          6           0        4.970559   -2.260762    0.655376
     39          6           0        7.463848   -4.682609    1.688221
     40          6           0        4.170344   -4.438485    0.857108
     41          8           0        4.055792   -5.634360    1.146558
     42          6           0        2.967448   -3.555272    0.463195
     43          6           0        2.284130   -4.011033   -0.781657
     44          8           0        2.745882   -3.746076   -1.865672
     45          8           0        1.253535   -4.893872   -0.564743
     46          6           0        0.715804   -5.412052   -1.804179
     47          6           0       -4.180644   -1.269985   -0.051720
     48          6           0       -5.287939   -2.034365   -0.574816
     49          6           0       -6.420174   -1.674458   -1.224874
     50          6           0       -6.896099   -0.241681   -1.670024
     51          6           0       -7.479197   -2.662292   -1.671238
     52          6           0       -8.991591   -2.619137   -1.345469
     53          6           0       -9.790889   -1.975945   -2.496772
     54          6           0      -11.285889   -1.805239   -1.937941
     55          6           0      -12.182693   -2.557383   -2.820039
     56          6           0      -11.696194   -0.272721   -1.767346
     57          6           0      -12.080575    0.144212   -0.244794
     58          6           0      -13.509619    0.712354   -0.125689
     59          6           0      -13.908361    1.181502    1.323765
     60          6           0      -15.217361    0.481560    1.843954
     61          6           0      -14.053980    2.747851    1.556155
     62          6           0      -13.058288    3.327031    2.581217
     63          6           0      -11.734632    3.813090    1.967968
     64          6           0      -10.477232    3.368952    2.797706
     65          6           0      -10.101807    4.506736    3.760144
     66          6           0       -9.318540    2.842718    1.886334
     67          1           0        2.922259    3.076033   -1.868237
     68          1           0        9.124873    3.694618   -0.209532
     69          1           0        9.122564   -2.447345    1.371197
     70          1           0        1.336127   -1.501533   -1.517189
     71          1           0        0.962299    1.292637   -0.866853
     72          1           0        1.641612   -0.202868   -3.424762
     73          1           0        2.401652    1.414439   -3.340813
     74          1           0        0.710076    1.308208   -3.326145
     75          1           0        0.245977    0.104868    0.729835
     76          1           0        1.261918   -1.071089    1.375431
     77          1           0       -0.304809   -2.803331    0.997225
     78          1           0       -0.466073   -2.297593   -0.591260
     79          1           0        3.315715    5.011351   -2.487401
     80          1           0        4.810699    5.681215   -3.160942
     81          1           0        4.298459    6.335349   -1.690403
     82          1           0        6.473530    7.538457   -1.853177
     83          1           0        6.708538    6.640451   -3.351325
     84          1           0        8.032641    7.537867   -2.630922
     85          1           0       10.573719    2.026350    1.854935
     86          1           0       10.909984   -0.655452    0.904246
     87          1           0       11.004615    1.578279   -1.134504
     88          1           0       12.195527    1.003552    0.179192
     89          1           0       11.844642    2.662506   -0.013830
     90          1           0        9.458857   -0.001255    3.462287
     91          1           0       11.205603    0.550750    3.372323
     92          1           0       11.783575   -1.422269    3.937359
     93          1           0       10.938603   -2.129626    2.592019
     94          1           0        9.988125   -2.086852    4.017709
     95          1           0        8.542010   -4.544511    1.609202
     96          1           0        7.200644   -5.537866    1.065145
     97          1           0        7.265036   -4.889508    2.739036
     98          1           0        2.228424   -3.502952    1.263385
     99          1           0        0.215315   -6.354831   -1.584302
    100          1           0        1.418862   -5.621043   -2.610062
    101          1           0       -0.046087   -4.705589   -2.135149
    102          1           0       -3.991442   -0.374292   -0.644521
    103          1           0       -4.503656   -0.889710    0.917114
    104          1           0       -5.250115   -3.093386   -0.316565
    105          1           0       -7.902687   -0.005340   -1.324408
    106          1           0       -6.964479   -0.160965   -2.754673
    107          1           0       -6.094641    0.412899   -1.328503
    108          1           0       -7.141033   -3.632113   -1.305706
    109          1           0       -7.396853   -2.766553   -2.752431
    110          1           0       -9.295990   -2.126373   -0.422514
    111          1           0       -9.328076   -3.607925   -1.031167
    112          1           0       -9.797149   -2.685266   -3.324591
    113          1           0       -9.326515   -1.107174   -2.963631
    114          1           0      -11.261786   -2.184762   -0.916008
    115          1           0      -13.066354   -2.952609   -2.317800
    116          1           0      -11.797300   -3.544624   -3.075211
    117          1           0      -12.534927   -2.045851   -3.715570
    118          1           0      -12.496653   -0.019459   -2.463200
    119          1           0      -10.820040    0.330299   -2.003505
    120          1           0      -11.447799    0.992817    0.014642
    121          1           0      -12.100630   -0.663570    0.486985
    122          1           0      -14.129885   -0.107305   -0.487894
    123          1           0      -13.622791    1.509273   -0.860009
    124          1           0      -13.214348    0.944186    2.130313
    125          1           0      -15.522789   -0.402801    1.285267
    126          1           0      -16.061333    1.148006    1.662939
    127          1           0      -15.072889    0.273083    2.904663
    128          1           0      -15.092416    2.964620    1.805507
    129          1           0      -13.824739    3.239272    0.610260
    130          1           0      -12.943995    2.652948    3.429848
    131          1           0      -13.479659    4.152273    3.155166
    132          1           0      -11.699520    4.900573    1.899719
    133          1           0      -11.690413    3.389691    0.964610
    134          1           0      -10.742112    2.546554    3.462657
    135          1           0      -10.502644    5.502718    3.571583
    136          1           0       -9.044597    4.771398    3.797866
    137          1           0      -10.291319    4.194050    4.786945
    138          1           0       -9.095143    1.794737    2.086951
    139          1           0       -8.405937    3.392612    2.118213
    140          1           0       -9.587975    2.799169    0.831906
 ---------------------------------------------------------------------

 SCF Done:  E(RPBE1PBE) =  -3005.34276618     A.U. after   15 cycles

 Excitation energies and oscillator strengths:

 Excited State   1:      Singlet-A      1.8525 eV  669.30 nm  f=0.3672  <S**2>=0.000
     245 -> 248       -0.15758
     246 -> 247        0.69367
     246 <- 247       -0.11310
 This state for optimization and/or second-order correction.
 Total Energy, E(TD-HF/TD-DFT) =  -3005.27468956
 Copying the excited state density for this state as the 1-particle RhoCI density.

 Excited State   2:      Singlet-A      2.2284 eV  556.38 nm  f=0.1344  <S**2>=0.000
     245 -> 247        0.65512
     246 -> 248        0.23560

 Excited State   3:      Singlet-A      3.0209 eV  410.43 nm  f=0.0001  <S**2>=0.000
     242 -> 247        0.60724
     242 -> 248       -0.16797
     242 -> 249       -0.11491
     242 -> 250        0.11278
     243 -> 247        0.26274

 Excited State   4:      Singlet-A      3.0939 eV  400.74 nm  f=0.0025  <S**2>=0.000
     242 -> 247       -0.25535
     243 -> 247        0.61264
     246 -> 248       -0.20450

 Excited State   5:      Singlet-A      3.1277 eV  396.41 nm  f=0.0068  <S**2>=0.000
     240 -> 247        0.26176
     240 -> 249        0.12227
     241 -> 247        0.59603
     241 -> 249        0.16406

 The electronic state is 1-A.
 Alpha  occ. eigenvalues --  -46.91295 -19.26696 -19.26639 -19.21655 -19.20574
 Alpha  occ. eigenvalues --  -19.19310 -19.19008 -14.41256 -14.41228 -14.39382
 Alpha  occ. eigenvalues --  -14.39119 -10.37944 -10.36716 -10.32736 -10.32447
 Alpha  occ. eigenvalues --  -10.29123 -10.29111 -10.28879 -10.28873 -10.28858
 Alpha  occ. eigenvalues --  -10.28472 -10.27714 -10.27380 -10.27041 -10.26952
 Alpha  occ. eigenvalues --  -10.26916 -10.26560 -10.26357 -10.26211 -10.26049
 Alpha  occ. eigenvalues --  -10.25936 -10.25816 -10.25500 -10.25388 -10.25076
 Alpha  occ. eigenvalues --  -10.25025 -10.24851 -10.24639 -10.24511 -10.24105
 Alpha  occ. eigenvalues --  -10.23902 -10.23757 -10.23692 -10.23618 -10.23604
 Alpha  occ. eigenvalues --  -10.23481 -10.23478 -10.23468 -10.23451 -10.23358
 Alpha  occ. eigenvalues --  -10.23327 -10.23030 -10.23027 -10.23019 -10.22914
 Alpha  occ. eigenvalues --  -10.22843 -10.22812 -10.22493 -10.22444 -10.22369
 Alpha  occ. eigenvalues --  -10.22286 -10.22096 -10.21804 -10.21769 -10.21681
 Alpha  occ. eigenvalues --  -10.21571  -3.13511  -1.86364  -1.85860  -1.85771
 Alpha  occ. eigenvalues --   -1.12393  -1.11157  -1.04201  -1.03919  -1.03105
 Alpha  occ. eigenvalues --   -1.03029  -0.98924  -0.97960  -0.97075  -0.96049
 Alpha  occ. eigenvalues --   -0.87152  -0.84492  -0.83468  -0.83380  -0.83203
 Alpha  occ. eigenvalues --   -0.82662  -0.82393  -0.82030  -0.81079  -0.80986
 Alpha  occ. eigenvalues --   -0.80827  -0.79387  -0.78710  -0.78192  -0.77619
 Alpha  occ. eigenvalues --   -0.77073  -0.76261  -0.75269  -0.74934  -0.74559
 Alpha  occ. eigenvalues --   -0.74211  -0.72710  -0.72151  -0.71620  -0.70789
 Alpha  occ. eigenvalues --   -0.70121  -0.69706  -0.69323  -0.68839  -0.68041
 Alpha  occ. eigenvalues --   -0.67439  -0.67111  -0.65819  -0.64544  -0.63849
 Alpha  occ. eigenvalues --   -0.63029  -0.62187  -0.61925  -0.61357  -0.60054
 Alpha  occ. eigenvalues --   -0.59771  -0.59740  -0.59531  -0.59004  -0.58571
 Alpha  occ. eigenvalues --   -0.58041  -0.57811  -0.57061  -0.56914  -0.54977
 Alpha  occ. eigenvalues --   -0.54742  -0.54352  -0.53586  -0.53180  -0.52891
 Alpha  occ. eigenvalues --   -0.52343  -0.51938  -0.50877  -0.50518  -0.50245
 Alpha  occ. eigenvalues --   -0.49810  -0.49609  -0.49379  -0.49146  -0.48469
 Alpha  occ. eigenvalues --   -0.48438  -0.48305  -0.47861  -0.47706  -0.47352
 Alpha  occ. eigenvalues --   -0.46941  -0.46837  -0.46634  -0.46468  -0.46141
 Alpha  occ. eigenvalues --   -0.45946  -0.45878  -0.45660  -0.45433  -0.45356
 Alpha  occ. eigenvalues --   -0.44831  -0.44669  -0.44516  -0.44215  -0.43927
 Alpha  occ. eigenvalues --   -0.43747  -0.43613  -0.43461  -0.43368  -0.43334
 Alpha  occ. eigenvalues --   -0.43157  -0.42825  -0.42744  -0.42451  -0.42224
 Alpha  occ. eigenvalues --   -0.41942  -0.41691  -0.41240  -0.41131  -0.41016
 Alpha  occ. eigenvalues --   -0.40903  -0.40689  -0.40650  -0.40582  -0.40469
 Alpha  occ. eigenvalues --   -0.40271  -0.40106  -0.39962  -0.39832  -0.39716
 Alpha  occ. eigenvalues --   -0.39458  -0.39275  -0.39176  -0.39090  -0.38888
 Alpha  occ. eigenvalues --   -0.38635  -0.38448  -0.38305  -0.38143  -0.38113
 Alpha  occ. eigenvalues --   -0.37841  -0.37664  -0.37557  -0.37327  -0.36958
 Alpha  occ. eigenvalues --   -0.36927  -0.36705  -0.36499  -0.36054  -0.35818
 Alpha  occ. eigenvalues --   -0.35719  -0.35687  -0.35461  -0.34700  -0.34401
 Alpha  occ. eigenvalues --   -0.34356  -0.34035  -0.34032  -0.33998  -0.33760
 Alpha  occ. eigenvalues --   -0.33296  -0.33098  -0.32545  -0.32379  -0.32350
 Alpha  occ. eigenvalues --   -0.32255  -0.32040  -0.32002  -0.31381  -0.31241
 Alpha  occ. eigenvalues --   -0.31066  -0.30922  -0.30216  -0.30132  -0.29711
 Alpha  occ. eigenvalues --   -0.29419  -0.29098  -0.28667  -0.27261  -0.26318
 Alpha  occ. eigenvalues --   -0.25975  -0.25759  -0.25454  -0.25374  -0.20973
 Alpha  occ. eigenvalues --   -0.18757
 Alpha virt. eigenvalues --   -0.11248  -0.05267  -0.04337  -0.02540  -0.00692
 Alpha virt. eigenvalues --   -0.00209   0.00941   0.01049   0.01998   0.02990
 Alpha virt. eigenvalues --    0.03902   0.04335   0.04553   0.05737   0.06103

 Mulliken charges:
               1
     1  Mg   0.989394
     2  C   -0.035562
     3  C   -0.064062
     4  C   -0.051631
     5  C   -0.090106
     6  N   -0.402772
     7  C    0.012621
     8  C   -0.120587
     9  C   -0.097481
    10  C    0.052913
    11  C    0.007248
    12  C    0.026084
    13  C   -0.054954
    14  C    0.260500
    15  O   -0.264239
    16  O   -0.368038
    17  N   -0.553004
    18  C    0.210047
    19  C   -0.179654
    20  C   -0.058532
    21  C    0.144149
    22  C    0.078150
    23  C    0.056248
    24  O   -0.266032
    25  C   -0.041864
    26  N   -0.347665
    27  C    0.063652
    28  C   -0.079133
    29  C   -0.130233
    30  C    0.092433
    31  C    0.020203
    32  C   -0.046002
    33  C   -0.047833
    34  N   -0.496630
    35  C    0.151379
    36  C   -0.219321
    37  C    0.010435
    38  C    0.176246
    39  C    0.068286
    40  C    0.144464
    41  O   -0.226471
    42  C   -0.067097
    43  C    0.252584
    44  O   -0.241826
    45  O   -0.349345
    46  C    0.115909
    47  C    0.227318
    48  C   -0.127584
    49  C   -0.184004
    50  C    0.010538
    51  C    0.022288
    52  C   -0.082088
    53  C   -0.027004
    54  C   -0.194438
    55  C    0.003576
    56  C    0.026344
    57  C   -0.097669
    58  C   -0.009007
    59  C   -0.201213
    60  C   -0.031609
    61  C   -0.005207
    62  C   -0.049178
    63  C    0.001611
    64  C   -0.242911
    65  C   -0.024007
    66  C   -0.009699
    67  H   -0.010561
    68  H    0.027887
    69  H   -0.015597
    70  H    0.063632
    71  H    0.047587
    72  H    0.058332
    73  H    0.043855
    74  H    0.040941
    75  H    0.050045
    76  H    0.050258
    77  H    0.077566
    78  H    0.058716
    79  H    0.053365
    80  H    0.039675
    81  H    0.056795
    82  H    0.062746
    83  H    0.054592
    84  H    0.054556
    85  H    0.047120
    86  H    0.042029
    87  H    0.061774
    88  H    0.036374
    89  H    0.047161
    90  H    0.049366
    91  H    0.048820
    92  H    0.045860
    93  H    0.024109
    94  H    0.057000
    95  H    0.028065
    96  H    0.064554
    97  H    0.060873
    98  H    0.076098
    99  H    0.057322
   100  H    0.073017
   101  H    0.050009
   102  H    0.042171
   103  H    0.081714
   104  H    0.026140
   105  H    0.063830
   106  H    0.046012
   107  H    0.032964
   108  H    0.007927
   109  H    0.041377
   110  H    0.030897
   111  H    0.032881
   112  H    0.023570
   113  H    0.028244
   114  H    0.037066
   115  H    0.016666
   116  H    0.022374
   117  H    0.042909
   118  H    0.028890
   119  H    0.023060
   120  H    0.040103
   121  H    0.046011
   122  H    0.025495
   123  H    0.026084
   124  H    0.034784
   125  H    0.030341
   126  H    0.029930
   127  H    0.042442
   128  H    0.025570
   129  H    0.024408
   130  H    0.018046
   131  H    0.016685
   132  H    0.037658
   133  H    0.023889
   134  H    0.040336
   135  H    0.033302
   136  H    0.018475
   137  H    0.035709
   138  H    0.030179
   139  H    0.034979
   140  H    0.034014
 Sum of Mulliken charges =  -0.00000

 Dipole moment (field-independent basis, Debye):
    X=             -2.8943    Y=              1.3003    Z=             -1.3831  Tot=              3.4613
 Quadrupole moment (field-independent basis, Debye-Ang):
   XX=           -378.0311   YY=           -416.2046   ZZ=           -396.8464
   XY=              0.6540   XZ=             19.1676   YZ=             -2.3268

 Normal termination of Gaussian 16 at Wed May  4 22:54:48 2022.
