 Gaussian 16, Revision A.03,
 Gaussian 16:  ES64L-G16RevA.03 25-Dec-2016

 --------------------------------
 #p wB97XD/Def2SVP td=(nstates=5)
 --------------------------------

 ---------------------------------------------------
 step_451_chromophore_7 TDDFT with wB97XD functional
 ---------------------------------------------------
 Symbolic Z-matrix:
 Charge =  0 Multiplicity = 1

                         Standard orientation:
 ---------------------------------------------------------------------
 Center     Atomic      Atomic             Coordinates (Angstroms)
 Number     Number       Type             X           Y           Z
 ---------------------------------------------------------------------
      1         12           0        5.878087    0.550900    0.159246
      2          6           0        3.608926   -2.153392    0.233675
      3          6           0        3.623608    2.503213   -1.257700
      4          6           0        8.360762    2.929113   -0.055749
      5          6           0        8.396176   -1.674409    1.113403
      6          7           0        3.762408    0.173084   -0.445968
      7          6           0        3.006247   -1.032028   -0.276047
      8          6           0        1.577257   -0.753884   -0.760425
      9          6           0        1.711392    0.713670   -1.407635
     10          6           0        3.127910    1.198643   -1.010077
     11          6           0        1.596015    0.784670   -2.965080
     12          6           0        0.652063   -0.878942    0.491927
     13          6           0       -0.485581   -1.895166    0.421401
     14          6           0       -1.947940   -1.251579    0.691261
     15          8           0       -2.235260   -0.267888    1.378020
     16          8           0       -2.843987   -1.880310   -0.173694
     17          7           0        5.877552    2.449599   -0.477558
     18          6           0        4.865955    3.120099   -1.081963
     19          6           0        5.262759    4.399664   -1.551197
     20          6           0        6.691294    4.568983   -1.247468
     21          6           0        7.034806    3.319280   -0.542349
     22          6           0        4.306436    5.392814   -2.238184
     23          6           0        7.641461    5.650392   -1.638211
     24          8           0        8.854896    5.657788   -1.323038
     25          6           0        7.172987    6.907976   -2.402424
     26          7           0        8.024349    0.641937    0.648893
     27          6           0        8.835524    1.725341    0.468670
     28          6           0       10.334754    1.456472    0.956679
     29          6           0       10.230556    0.000397    1.448773
     30          6           0        8.789552   -0.373878    1.050748
     31          6           0       11.392485    1.677514   -0.120150
     32          6           0       10.440227   -0.133672    3.007211
     33          6           0       10.791033   -1.555387    3.506298
     34          7           0        6.039809   -1.424450    0.654740
     35          6           0        7.141782   -2.232886    0.939457
     36          6           0        6.641241   -3.564046    1.229970
     37          6           0        5.317281   -3.601016    0.973913
     38          6           0        4.970559   -2.260762    0.655376
     39          6           0        7.463848   -4.682609    1.688221
     40          6           0        4.170344   -4.438485    0.857108
     41          8           0        4.055792   -5.634360    1.146558
     42          6           0        2.967448   -3.555272    0.463195
     43          6           0        2.284130   -4.011033   -0.781657
     44          8           0        2.745882   -3.746076   -1.865672
     45          8           0        1.253535   -4.893872   -0.564743
     46          6           0        0.715804   -5.412052   -1.804179
     47          6           0       -4.180644   -1.269985   -0.051720
     48          6           0       -5.287939   -2.034365   -0.574816
     49          6           0       -6.420174   -1.674458   -1.224874
     50          6           0       -6.896099   -0.241681   -1.670024
     51          6           0       -7.479197   -2.662292   -1.671238
     52          6           0       -8.991591   -2.619137   -1.345469
     53          6           0       -9.790889   -1.975945   -2.496772
     54          6           0      -11.285889   -1.805239   -1.937941
     55          6           0      -12.182693   -2.557383   -2.820039
     56          6           0      -11.696194   -0.272721   -1.767346
     57          6           0      -12.080575    0.144212   -0.244794
     58          6           0      -13.509619    0.712354   -0.125689
     59          6           0      -13.908361    1.181502    1.323765
     60          6           0      -15.217361    0.481560    1.843954
     61          6           0      -14.053980    2.747851    1.556155
     62          6           0      -13.058288    3.327031    2.581217
     63          6           0      -11.734632    3.813090    1.967968
     64          6           0      -10.477232    3.368952    2.797706
     65          6           0      -10.101807    4.506736    3.760144
     66          6           0       -9.318540    2.842718    1.886334
     67          1           0        2.922259    3.076033   -1.868237
     68          1           0        9.124873    3.694618   -0.209532
     69          1           0        9.122564   -2.447345    1.371197
     70          1           0        1.336127   -1.501533   -1.517189
     71          1           0        0.962299    1.292637   -0.866853
     72          1           0        1.641612   -0.202868   -3.424762
     73          1           0        2.401652    1.414439   -3.340813
     74          1           0        0.710076    1.308208   -3.326145
     75          1           0        0.245977    0.104868    0.729835
     76          1           0        1.261918   -1.071089    1.375431
     77          1           0       -0.304809   -2.803331    0.997225
     78          1           0       -0.466073   -2.297593   -0.591260
     79          1           0        3.315715    5.011351   -2.487401
     80          1           0        4.810699    5.681215   -3.160942
     81          1           0        4.298459    6.335349   -1.690403
     82          1           0        6.473530    7.538457   -1.853177
     83          1           0        6.708538    6.640451   -3.351325
     84          1           0        8.032641    7.537867   -2.630922
     85          1           0       10.573719    2.026350    1.854935
     86          1           0       10.909984   -0.655452    0.904246
     87          1           0       11.004615    1.578279   -1.134504
     88          1           0       12.195527    1.003552    0.179192
     89          1           0       11.844642    2.662506   -0.013830
     90          1           0        9.458857   -0.001255    3.462287
     91          1           0       11.205603    0.550750    3.372323
     92          1           0       11.783575   -1.422269    3.937359
     93          1           0       10.938603   -2.129626    2.592019
     94          1           0        9.988125   -2.086852    4.017709
     95          1           0        8.542010   -4.544511    1.609202
     96          1           0        7.200644   -5.537866    1.065145
     97          1           0        7.265036   -4.889508    2.739036
     98          1           0        2.228424   -3.502952    1.263385
     99          1           0        0.215315   -6.354831   -1.584302
    100          1           0        1.418862   -5.621043   -2.610062
    101          1           0       -0.046087   -4.705589   -2.135149
    102          1           0       -3.991442   -0.374292   -0.644521
    103          1           0       -4.503656   -0.889710    0.917114
    104          1           0       -5.250115   -3.093386   -0.316565
    105          1           0       -7.902687   -0.005340   -1.324408
    106          1           0       -6.964479   -0.160965   -2.754673
    107          1           0       -6.094641    0.412899   -1.328503
    108          1           0       -7.141033   -3.632113   -1.305706
    109          1           0       -7.396853   -2.766553   -2.752431
    110          1           0       -9.295990   -2.126373   -0.422514
    111          1           0       -9.328076   -3.607925   -1.031167
    112          1           0       -9.797149   -2.685266   -3.324591
    113          1           0       -9.326515   -1.107174   -2.963631
    114          1           0      -11.261786   -2.184762   -0.916008
    115          1           0      -13.066354   -2.952609   -2.317800
    116          1           0      -11.797300   -3.544624   -3.075211
    117          1           0      -12.534927   -2.045851   -3.715570
    118          1           0      -12.496653   -0.019459   -2.463200
    119          1           0      -10.820040    0.330299   -2.003505
    120          1           0      -11.447799    0.992817    0.014642
    121          1           0      -12.100630   -0.663570    0.486985
    122          1           0      -14.129885   -0.107305   -0.487894
    123          1           0      -13.622791    1.509273   -0.860009
    124          1           0      -13.214348    0.944186    2.130313
    125          1           0      -15.522789   -0.402801    1.285267
    126          1           0      -16.061333    1.148006    1.662939
    127          1           0      -15.072889    0.273083    2.904663
    128          1           0      -15.092416    2.964620    1.805507
    129          1           0      -13.824739    3.239272    0.610260
    130          1           0      -12.943995    2.652948    3.429848
    131          1           0      -13.479659    4.152273    3.155166
    132          1           0      -11.699520    4.900573    1.899719
    133          1           0      -11.690413    3.389691    0.964610
    134          1           0      -10.742112    2.546554    3.462657
    135          1           0      -10.502644    5.502718    3.571583
    136          1           0       -9.044597    4.771398    3.797866
    137          1           0      -10.291319    4.194050    4.786945
    138          1           0       -9.095143    1.794737    2.086951
    139          1           0       -8.405937    3.392612    2.118213
    140          1           0       -9.587975    2.799169    0.831906
 ---------------------------------------------------------------------

 SCF Done:  E(RwB97XD) =  -3007.85012698     A.U. after   17 cycles

 Excitation energies and oscillator strengths:

 Excited State   1:      Singlet-A      1.6369 eV  757.41 nm  f=0.3858  <S**2>=0.000
     245 -> 248       -0.17773
     246 -> 247        0.68291
     245 <- 248       -0.11238
 This state for optimization and/or second-order correction.
 Total Energy, E(TD-HF/TD-DFT) =  -3007.78997039
 Copying the excited state density for this state as the 1-particle RhoCI density.

 Excited State   2:      Singlet-A      2.1677 eV  571.97 nm  f=0.1311  <S**2>=0.000
     245 -> 247        0.64110
     246 -> 248        0.27311

 Excited State   3:      Singlet-A      3.3909 eV  365.64 nm  f=0.0413  <S**2>=0.000
     244 -> 247        0.62350
     246 -> 248       -0.27870

 Excited State   4:      Singlet-A      3.5107 eV  353.16 nm  f=0.0181  <S**2>=0.000
     240 -> 247       -0.10224
     241 -> 247        0.48777
     241 -> 248       -0.25712
     241 -> 249       -0.27666
     241 -> 250        0.24762
     246 -> 248        0.10613

 Excited State   5:      Singlet-A      3.5754 eV  346.77 nm  f=0.5546  <S**2>=0.000
     240 -> 247       -0.16468
     240 -> 249       -0.12906
     241 -> 247       -0.10859
     242 -> 247       -0.12122
     244 -> 247        0.26181
     245 -> 247       -0.23987
     246 -> 248        0.52884

 The electronic state is 1-A.
 Alpha  occ. eigenvalues --  -46.94210 -19.31285 -19.31171 -19.26284 -19.25292
 Alpha  occ. eigenvalues --  -19.24107 -19.23879 -14.46396 -14.46270 -14.44340
 Alpha  occ. eigenvalues --  -14.44027 -10.44693 -10.43570 -10.39653 -10.39306
 Alpha  occ. eigenvalues --  -10.35610 -10.35498 -10.35382 -10.35216 -10.35097
 Alpha  occ. eigenvalues --  -10.34795 -10.33902 -10.33822 -10.33489 -10.33223
 Alpha  occ. eigenvalues --  -10.33193 -10.32984 -10.32588 -10.32470 -10.32456
 Alpha  occ. eigenvalues --  -10.32265 -10.32186 -10.31869 -10.31619 -10.31464
 Alpha  occ. eigenvalues --  -10.31420 -10.31201 -10.30971 -10.30908 -10.30356
 Alpha  occ. eigenvalues --  -10.30337 -10.30115 -10.30100 -10.30034 -10.29994
 Alpha  occ. eigenvalues --  -10.29955 -10.29889 -10.29885 -10.29740 -10.29738
 Alpha  occ. eigenvalues --  -10.29679 -10.29409 -10.29400 -10.29396 -10.29316
 Alpha  occ. eigenvalues --  -10.29202 -10.29173 -10.28871 -10.28718 -10.28689
 Alpha  occ. eigenvalues --  -10.28647 -10.28457 -10.28226 -10.28186 -10.28131
 Alpha  occ. eigenvalues --  -10.27988  -3.20275  -1.93880  -1.93376  -1.93280
 Alpha  occ. eigenvalues --   -1.19801  -1.18513  -1.11653  -1.11324  -1.10673
 Alpha  occ. eigenvalues --   -1.10349  -1.06280  -1.05298  -1.04488  -1.03468
 Alpha  occ. eigenvalues --   -0.94748  -0.92181  -0.91113  -0.90939  -0.90864
 Alpha  occ. eigenvalues --   -0.90326  -0.89965  -0.89614  -0.88744  -0.88625
 Alpha  occ. eigenvalues --   -0.88555  -0.87041  -0.86363  -0.85798  -0.85260
 Alpha  occ. eigenvalues --   -0.84724  -0.83893  -0.82947  -0.82593  -0.82299
 Alpha  occ. eigenvalues --   -0.81880  -0.80384  -0.79803  -0.79230  -0.78391
 Alpha  occ. eigenvalues --   -0.77829  -0.77398  -0.76902  -0.76515  -0.75706
 Alpha  occ. eigenvalues --   -0.74993  -0.74702  -0.73338  -0.72157  -0.71393
 Alpha  occ. eigenvalues --   -0.70614  -0.69823  -0.69471  -0.68998  -0.67572
 Alpha  occ. eigenvalues --   -0.67415  -0.67267  -0.66976  -0.66419  -0.66099
 Alpha  occ. eigenvalues --   -0.65645  -0.65448  -0.64689  -0.64303  -0.62437
 Alpha  occ. eigenvalues --   -0.62252  -0.61805  -0.61003  -0.60728  -0.60264
 Alpha  occ. eigenvalues --   -0.59695  -0.59396  -0.58324  -0.57913  -0.57672
 Alpha  occ. eigenvalues --   -0.57188  -0.56980  -0.56763  -0.56506  -0.55949
 Alpha  occ. eigenvalues --   -0.55795  -0.55724  -0.55279  -0.55068  -0.54730
 Alpha  occ. eigenvalues --   -0.54297  -0.54199  -0.53975  -0.53800  -0.53597
 Alpha  occ. eigenvalues --   -0.53557  -0.53176  -0.53016  -0.52801  -0.52653
 Alpha  occ. eigenvalues --   -0.52156  -0.51986  -0.51824  -0.51484  -0.51250
 Alpha  occ. eigenvalues --   -0.51178  -0.50941  -0.50807  -0.50736  -0.50639
 Alpha  occ. eigenvalues --   -0.50574  -0.50143  -0.49978  -0.49691  -0.49440
 Alpha  occ. eigenvalues --   -0.49198  -0.48976  -0.48547  -0.48375  -0.48288
 Alpha  occ. eigenvalues --   -0.48107  -0.47882  -0.47861  -0.47785  -0.47636
 Alpha  occ. eigenvalues --   -0.47421  -0.47335  -0.47129  -0.47024  -0.46900
 Alpha  occ. eigenvalues --   -0.46649  -0.46464  -0.46319  -0.46270  -0.46006
 Alpha  occ. eigenvalues --   -0.45891  -0.45625  -0.45425  -0.45264  -0.45207
 Alpha  occ. eigenvalues --   -0.44983  -0.44755  -0.44661  -0.44468  -0.44114
 Alpha  occ. eigenvalues --   -0.44085  -0.43756  -0.43565  -0.43165  -0.42882
 Alpha  occ. eigenvalues --   -0.42862  -0.42712  -0.42424  -0.41772  -0.41449
 Alpha  occ. eigenvalues --   -0.41352  -0.41111  -0.41024  -0.40965  -0.40658
 Alpha  occ. eigenvalues --   -0.40179  -0.40138  -0.39606  -0.39478  -0.39420
 Alpha  occ. eigenvalues --   -0.39324  -0.39107  -0.39011  -0.38363  -0.38105
 Alpha  occ. eigenvalues --   -0.38044  -0.37868  -0.37229  -0.37085  -0.36890
 Alpha  occ. eigenvalues --   -0.36221  -0.35927  -0.35298  -0.33906  -0.33181
 Alpha  occ. eigenvalues --   -0.33005  -0.32651  -0.32094  -0.32033  -0.25951
 Alpha  occ. eigenvalues --   -0.22907
 Alpha virt. eigenvalues --   -0.07171   0.00286   0.01893   0.03853   0.06132
 Alpha virt. eigenvalues --    0.06627   0.06870   0.07598   0.08592   0.09285
 Alpha virt. eigenvalues --    0.10507   0.10963   0.11387   0.12451   0.12824

 Mulliken charges:
               1
     1  Mg   0.978105
     2  C   -0.034413
     3  C   -0.081369
     4  C   -0.065927
     5  C   -0.095622
     6  N   -0.370080
     7  C   -0.016980
     8  C   -0.094272
     9  C   -0.073398
    10  C    0.042283
    11  C    0.018171
    12  C    0.033983
    13  C   -0.036215
    14  C    0.254102
    15  O   -0.263174
    16  O   -0.368692
    17  N   -0.524121
    18  C    0.205147
    19  C   -0.171240
    20  C   -0.052344
    21  C    0.137069
    22  C    0.091860
    23  C    0.054344
    24  O   -0.260430
    25  C   -0.030731
    26  N   -0.313125
    27  C    0.050490
    28  C   -0.054930
    29  C   -0.102083
    30  C    0.078712
    31  C    0.030302
    32  C   -0.033380
    33  C   -0.031571
    34  N   -0.460271
    35  C    0.135385
    36  C   -0.208049
    37  C    0.014529
    38  C    0.158537
    39  C    0.075445
    40  C    0.123027
    41  O   -0.216349
    42  C   -0.028599
    43  C    0.228086
    44  O   -0.236704
    45  O   -0.346424
    46  C    0.131544
    47  C    0.242346
    48  C   -0.133010
    49  C   -0.176191
    50  C    0.027762
    51  C    0.044884
    52  C   -0.063955
    53  C   -0.013139
    54  C   -0.160243
    55  C    0.014985
    56  C    0.035872
    57  C   -0.068743
    58  C    0.006466
    59  C   -0.175125
    60  C   -0.017309
    61  C    0.012074
    62  C   -0.033950
    63  C    0.022984
    64  C   -0.213702
    65  C   -0.014493
    66  C    0.004601
    67  H   -0.022061
    68  H    0.022951
    69  H   -0.031047
    70  H    0.047697
    71  H    0.038372
    72  H    0.054089
    73  H    0.035601
    74  H    0.035910
    75  H    0.042157
    76  H    0.041375
    77  H    0.072466
    78  H    0.048666
    79  H    0.051496
    80  H    0.031492
    81  H    0.051510
    82  H    0.058435
    83  H    0.048902
    84  H    0.053637
    85  H    0.037933
    86  H    0.030229
    87  H    0.056975
    88  H    0.029525
    89  H    0.041958
    90  H    0.039829
    91  H    0.041045
    92  H    0.041313
    93  H    0.014571
    94  H    0.052427
    95  H    0.023623
    96  H    0.060103
    97  H    0.056240
    98  H    0.068439
    99  H    0.053918
   100  H    0.069084
   101  H    0.045158
   102  H    0.035131
   103  H    0.076902
   104  H    0.023324
   105  H    0.054990
   106  H    0.040582
   107  H    0.026476
   108  H    0.000154
   109  H    0.031714
   110  H    0.018684
   111  H    0.025826
   112  H    0.013801
   113  H    0.017900
   114  H    0.021238
   115  H    0.010761
   116  H    0.015127
   117  H    0.037656
   118  H    0.020824
   119  H    0.014618
   120  H    0.022588
   121  H    0.036744
   122  H    0.014649
   123  H    0.017321
   124  H    0.018567
   125  H    0.024418
   126  H    0.022328
   127  H    0.037316
   128  H    0.017980
   129  H    0.013387
   130  H    0.007543
   131  H    0.009706
   132  H    0.029199
   133  H    0.007378
   134  H    0.028273
   135  H    0.027028
   136  H    0.012069
   137  H    0.030434
   138  H    0.024256
   139  H    0.028981
   140  H    0.027369
 Sum of Mulliken charges =  -0.00000

 Dipole moment (field-independent basis, Debye):
    X=             -2.9560    Y=              1.5127    Z=             -1.5101  Tot=              3.6478
 Quadrupole moment (field-independent basis, Debye-Ang):
   XX=           -378.6480   YY=           -414.2837   ZZ=           -396.4175
   XY=              2.3955   XZ=             18.3580   YZ=             -2.8327

 Normal termination of Gaussian 16 at Wed May  4 23:25:26 2022.
