 Gaussian 16, Revision A.03,
 Gaussian 16:  ES64L-G16RevA.03 25-Dec-2016

 --------------------
 #p ZINDO=(nstates=5)
 --------------------

 ----------------------------
 step_451_chromophore_7 ZINDO
 ----------------------------
 Symbolic Z-matrix:
 Charge =  0 Multiplicity = 1

                         Standard orientation:
 ---------------------------------------------------------------------
 Center     Atomic      Atomic             Coordinates (Angstroms)
 Number     Number       Type             X           Y           Z
 ---------------------------------------------------------------------
      1         12           0        5.878087    0.550900    0.159246
      2          6           0        3.608926   -2.153392    0.233675
      3          6           0        3.623608    2.503213   -1.257700
      4          6           0        8.360762    2.929113   -0.055749
      5          6           0        8.396176   -1.674409    1.113403
      6          7           0        3.762408    0.173084   -0.445968
      7          6           0        3.006247   -1.032028   -0.276047
      8          6           0        1.577257   -0.753884   -0.760425
      9          6           0        1.711392    0.713670   -1.407635
     10          6           0        3.127910    1.198643   -1.010077
     11          6           0        1.596015    0.784670   -2.965080
     12          6           0        0.652063   -0.878942    0.491927
     13          6           0       -0.485581   -1.895166    0.421401
     14          6           0       -1.947940   -1.251579    0.691261
     15          8           0       -2.235260   -0.267888    1.378020
     16          8           0       -2.843987   -1.880310   -0.173694
     17          7           0        5.877552    2.449599   -0.477558
     18          6           0        4.865955    3.120099   -1.081963
     19          6           0        5.262759    4.399664   -1.551197
     20          6           0        6.691294    4.568983   -1.247468
     21          6           0        7.034806    3.319280   -0.542349
     22          6           0        4.306436    5.392814   -2.238184
     23          6           0        7.641461    5.650392   -1.638211
     24          8           0        8.854896    5.657788   -1.323038
     25          6           0        7.172987    6.907976   -2.402424
     26          7           0        8.024349    0.641937    0.648893
     27          6           0        8.835524    1.725341    0.468670
     28          6           0       10.334754    1.456472    0.956679
     29          6           0       10.230556    0.000397    1.448773
     30          6           0        8.789552   -0.373878    1.050748
     31          6           0       11.392485    1.677514   -0.120150
     32          6           0       10.440227   -0.133672    3.007211
     33          6           0       10.791033   -1.555387    3.506298
     34          7           0        6.039809   -1.424450    0.654740
     35          6           0        7.141782   -2.232886    0.939457
     36          6           0        6.641241   -3.564046    1.229970
     37          6           0        5.317281   -3.601016    0.973913
     38          6           0        4.970559   -2.260762    0.655376
     39          6           0        7.463848   -4.682609    1.688221
     40          6           0        4.170344   -4.438485    0.857108
     41          8           0        4.055792   -5.634360    1.146558
     42          6           0        2.967448   -3.555272    0.463195
     43          6           0        2.284130   -4.011033   -0.781657
     44          8           0        2.745882   -3.746076   -1.865672
     45          8           0        1.253535   -4.893872   -0.564743
     46          6           0        0.715804   -5.412052   -1.804179
     47          6           0       -4.180644   -1.269985   -0.051720
     48          6           0       -5.287939   -2.034365   -0.574816
     49          6           0       -6.420174   -1.674458   -1.224874
     50          6           0       -6.896099   -0.241681   -1.670024
     51          6           0       -7.479197   -2.662292   -1.671238
     52          6           0       -8.991591   -2.619137   -1.345469
     53          6           0       -9.790889   -1.975945   -2.496772
     54          6           0      -11.285889   -1.805239   -1.937941
     55          6           0      -12.182693   -2.557383   -2.820039
     56          6           0      -11.696194   -0.272721   -1.767346
     57          6           0      -12.080575    0.144212   -0.244794
     58          6           0      -13.509619    0.712354   -0.125689
     59          6           0      -13.908361    1.181502    1.323765
     60          6           0      -15.217361    0.481560    1.843954
     61          6           0      -14.053980    2.747851    1.556155
     62          6           0      -13.058288    3.327031    2.581217
     63          6           0      -11.734632    3.813090    1.967968
     64          6           0      -10.477232    3.368952    2.797706
     65          6           0      -10.101807    4.506736    3.760144
     66          6           0       -9.318540    2.842718    1.886334
     67          1           0        2.922259    3.076033   -1.868237
     68          1           0        9.124873    3.694618   -0.209532
     69          1           0        9.122564   -2.447345    1.371197
     70          1           0        1.336127   -1.501533   -1.517189
     71          1           0        0.962299    1.292637   -0.866853
     72          1           0        1.641612   -0.202868   -3.424762
     73          1           0        2.401652    1.414439   -3.340813
     74          1           0        0.710076    1.308208   -3.326145
     75          1           0        0.245977    0.104868    0.729835
     76          1           0        1.261918   -1.071089    1.375431
     77          1           0       -0.304809   -2.803331    0.997225
     78          1           0       -0.466073   -2.297593   -0.591260
     79          1           0        3.315715    5.011351   -2.487401
     80          1           0        4.810699    5.681215   -3.160942
     81          1           0        4.298459    6.335349   -1.690403
     82          1           0        6.473530    7.538457   -1.853177
     83          1           0        6.708538    6.640451   -3.351325
     84          1           0        8.032641    7.537867   -2.630922
     85          1           0       10.573719    2.026350    1.854935
     86          1           0       10.909984   -0.655452    0.904246
     87          1           0       11.004615    1.578279   -1.134504
     88          1           0       12.195527    1.003552    0.179192
     89          1           0       11.844642    2.662506   -0.013830
     90          1           0        9.458857   -0.001255    3.462287
     91          1           0       11.205603    0.550750    3.372323
     92          1           0       11.783575   -1.422269    3.937359
     93          1           0       10.938603   -2.129626    2.592019
     94          1           0        9.988125   -2.086852    4.017709
     95          1           0        8.542010   -4.544511    1.609202
     96          1           0        7.200644   -5.537866    1.065145
     97          1           0        7.265036   -4.889508    2.739036
     98          1           0        2.228424   -3.502952    1.263385
     99          1           0        0.215315   -6.354831   -1.584302
    100          1           0        1.418862   -5.621043   -2.610062
    101          1           0       -0.046087   -4.705589   -2.135149
    102          1           0       -3.991442   -0.374292   -0.644521
    103          1           0       -4.503656   -0.889710    0.917114
    104          1           0       -5.250115   -3.093386   -0.316565
    105          1           0       -7.902687   -0.005340   -1.324408
    106          1           0       -6.964479   -0.160965   -2.754673
    107          1           0       -6.094641    0.412899   -1.328503
    108          1           0       -7.141033   -3.632113   -1.305706
    109          1           0       -7.396853   -2.766553   -2.752431
    110          1           0       -9.295990   -2.126373   -0.422514
    111          1           0       -9.328076   -3.607925   -1.031167
    112          1           0       -9.797149   -2.685266   -3.324591
    113          1           0       -9.326515   -1.107174   -2.963631
    114          1           0      -11.261786   -2.184762   -0.916008
    115          1           0      -13.066354   -2.952609   -2.317800
    116          1           0      -11.797300   -3.544624   -3.075211
    117          1           0      -12.534927   -2.045851   -3.715570
    118          1           0      -12.496653   -0.019459   -2.463200
    119          1           0      -10.820040    0.330299   -2.003505
    120          1           0      -11.447799    0.992817    0.014642
    121          1           0      -12.100630   -0.663570    0.486985
    122          1           0      -14.129885   -0.107305   -0.487894
    123          1           0      -13.622791    1.509273   -0.860009
    124          1           0      -13.214348    0.944186    2.130313
    125          1           0      -15.522789   -0.402801    1.285267
    126          1           0      -16.061333    1.148006    1.662939
    127          1           0      -15.072889    0.273083    2.904663
    128          1           0      -15.092416    2.964620    1.805507
    129          1           0      -13.824739    3.239272    0.610260
    130          1           0      -12.943995    2.652948    3.429848
    131          1           0      -13.479659    4.152273    3.155166
    132          1           0      -11.699520    4.900573    1.899719
    133          1           0      -11.690413    3.389691    0.964610
    134          1           0      -10.742112    2.546554    3.462657
    135          1           0      -10.502644    5.502718    3.571583
    136          1           0       -9.044597    4.771398    3.797866
    137          1           0      -10.291319    4.194050    4.786945
    138          1           0       -9.095143    1.794737    2.086951
    139          1           0       -8.405937    3.392612    2.118213
    140          1           0       -9.587975    2.799169    0.831906
 ---------------------------------------------------------------------

 SCF Done:  E(RZINDO/S) =  -474.055910488     A.U. after   21 cycles

 Excitation energies and oscillator strengths:

 Excited State   1:      Singlet-A      1.2242 eV 1012.78 nm  f=0.6253  <S**2>=0.000
     175 ->178        -0.18765
     176 ->177         0.66150
 This state for optimization and/or second-order correction.
 Total Energy, E(CIS/TDA) =  -474.010921933
 Copying the excited state density for this state as the 1-particle RhoCI density.

 Excited State   2:      Singlet-A      1.9375 eV  639.92 nm  f=0.0508  <S**2>=0.000
     175 ->177         0.54396
     176 ->178         0.42303

 Excited State   3:      Singlet-A      2.8990 eV  427.68 nm  f=0.0127  <S**2>=0.000
     169 ->177         0.28184
     169 ->178         0.17436
     169 ->179        -0.33423
     169 ->181        -0.30966
     169 ->182        -0.12738
     169 ->186        -0.20562
     169 ->187        -0.12089
     176 ->179         0.24700

 Excited State   4:      Singlet-A      2.9113 eV  425.88 nm  f=0.1158  <S**2>=0.000
     169 ->177        -0.11582
     169 ->179         0.14286
     169 ->181         0.12791
     175 ->177        -0.14116
     176 ->178         0.23653
     176 ->179         0.56121

 Excited State   5:      Singlet-A      2.9739 eV  416.91 nm  f=0.3501  <S**2>=0.000
     168 ->177        -0.23394
     168 ->178        -0.14411
     168 ->179        -0.32603
     168 ->181         0.17771
     168 ->182         0.14347
     168 ->186        -0.11792
     175 ->177        -0.21669
     176 ->178         0.28859
     176 ->179        -0.19998

 The electronic state is 1-A.
 Alpha  occ. eigenvalues --   -1.85021  -1.79826  -1.78406  -1.74212  -1.72391
 Alpha  occ. eigenvalues --   -1.69662  -1.63179  -1.60434  -1.59592  -1.56309
 Alpha  occ. eigenvalues --   -1.52843  -1.50665  -1.50048  -1.48122  -1.47071
 Alpha  occ. eigenvalues --   -1.44077  -1.43187  -1.40303  -1.38733  -1.37609
 Alpha  occ. eigenvalues --   -1.36209  -1.34307  -1.32650  -1.31359  -1.29007
 Alpha  occ. eigenvalues --   -1.28493  -1.24405  -1.21232  -1.20110  -1.18390
 Alpha  occ. eigenvalues --   -1.17208  -1.16425  -1.16195  -1.14917  -1.12344
 Alpha  occ. eigenvalues --   -1.11567  -1.09827  -1.09618  -1.05354  -1.03647
 Alpha  occ. eigenvalues --   -1.01518  -1.01141  -0.98510  -0.97813  -0.97395
 Alpha  occ. eigenvalues --   -0.96341  -0.95816  -0.94316  -0.92245  -0.91774
 Alpha  occ. eigenvalues --   -0.91648  -0.90158  -0.89392  -0.88317  -0.86720
 Alpha  occ. eigenvalues --   -0.86145  -0.83805  -0.83475  -0.82590  -0.80173
 Alpha  occ. eigenvalues --   -0.79709  -0.79253  -0.76921  -0.76771  -0.76376
 Alpha  occ. eigenvalues --   -0.76061  -0.75925  -0.74827  -0.73976  -0.73521
 Alpha  occ. eigenvalues --   -0.73074  -0.73014  -0.72134  -0.71712  -0.70416
 Alpha  occ. eigenvalues --   -0.70199  -0.68829  -0.68681  -0.68407  -0.67868
 Alpha  occ. eigenvalues --   -0.67628  -0.67417  -0.66454  -0.66357  -0.65821
 Alpha  occ. eigenvalues --   -0.64953  -0.64663  -0.64351  -0.64277  -0.63863
 Alpha  occ. eigenvalues --   -0.63273  -0.63093  -0.62751  -0.62664  -0.62166
 Alpha  occ. eigenvalues --   -0.61622  -0.60893  -0.60065  -0.59654  -0.59431
 Alpha  occ. eigenvalues --   -0.59270  -0.58900  -0.58894  -0.58511  -0.58219
 Alpha  occ. eigenvalues --   -0.57849  -0.57563  -0.57168  -0.56930  -0.56478
 Alpha  occ. eigenvalues --   -0.55978  -0.55494  -0.55053  -0.54773  -0.54478
 Alpha  occ. eigenvalues --   -0.54183  -0.53755  -0.53597  -0.53125  -0.52920
 Alpha  occ. eigenvalues --   -0.52677  -0.52477  -0.52165  -0.51861  -0.51582
 Alpha  occ. eigenvalues --   -0.51162  -0.50793  -0.50706  -0.50356  -0.50209
 Alpha  occ. eigenvalues --   -0.50052  -0.49873  -0.49403  -0.49312  -0.49207
 Alpha  occ. eigenvalues --   -0.49091  -0.48278  -0.48067  -0.47753  -0.47607
 Alpha  occ. eigenvalues --   -0.47449  -0.47012  -0.46930  -0.46622  -0.46176
 Alpha  occ. eigenvalues --   -0.45968  -0.45789  -0.45420  -0.45376  -0.45337
 Alpha  occ. eigenvalues --   -0.45185  -0.44948  -0.44495  -0.44195  -0.43879
 Alpha  occ. eigenvalues --   -0.43747  -0.43337  -0.43202  -0.42820  -0.42631
 Alpha  occ. eigenvalues --   -0.42323  -0.41993  -0.41851  -0.40110  -0.38996
 Alpha  occ. eigenvalues --   -0.38720  -0.37131  -0.35815  -0.35115  -0.34698
 Alpha  occ. eigenvalues --   -0.33641  -0.32669  -0.32476  -0.32306  -0.26652
 Alpha  occ. eigenvalues --   -0.21611
 Alpha virt. eigenvalues --   -0.08621  -0.01982  -0.00882   0.00540   0.00914
 Alpha virt. eigenvalues --    0.01991   0.03077   0.03414   0.04583   0.05054
 Alpha virt. eigenvalues --    0.06544   0.06666   0.07146   0.07304   0.07726

 Mulliken charges:
               1
     1  Mg   0.424895
     2  C   -0.042704
     3  C   -0.089181
     4  C   -0.059024
     5  C   -0.056628
     6  N   -0.300259
     7  C    0.118038
     8  C    0.002732
     9  C    0.004612
    10  C    0.152748
    11  C   -0.049850
    12  C   -0.022212
    13  C    0.004207
    14  C    0.455582
    15  O   -0.501573
    16  O   -0.264162
    17  N   -0.333316
    18  C    0.131702
    19  C   -0.000274
    20  C   -0.045816
    21  C    0.115808
    22  C   -0.046606
    23  C    0.329130
    24  O   -0.534867
    25  C   -0.030597
    26  N   -0.259165
    27  C    0.119641
    28  C    0.003420
    29  C   -0.003148
    30  C    0.141905
    31  C   -0.049550
    32  C   -0.035844
    33  C   -0.070992
    34  N   -0.321550
    35  C    0.082675
    36  C    0.058902
    37  C   -0.046624
    38  C    0.117760
    39  C   -0.039525
    40  C    0.345239
    41  O   -0.527106
    42  C    0.053821
    43  C    0.485651
    44  O   -0.519441
    45  O   -0.259809
    46  C    0.079044
    47  C    0.113757
    48  C   -0.066076
    49  C   -0.018930
    50  C   -0.052682
    51  C   -0.026382
    52  C   -0.029909
    53  C   -0.040896
    54  C   -0.010445
    55  C   -0.048449
    56  C   -0.046516
    57  C   -0.047343
    58  C   -0.031812
    59  C   -0.024020
    60  C   -0.064168
    61  C   -0.036024
    62  C   -0.035993
    63  C   -0.030910
    64  C   -0.010134
    65  C   -0.059637
    66  C   -0.061165
    67  H    0.013519
    68  H    0.046107
    69  H    0.020555
    70  H    0.042640
    71  H    0.033876
    72  H    0.030587
    73  H    0.023872
    74  H    0.017886
    75  H    0.031820
    76  H    0.023721
    77  H    0.049115
    78  H    0.034498
    79  H    0.034797
    80  H    0.023195
    81  H    0.031860
    82  H    0.036350
    83  H    0.030789
    84  H    0.034068
    85  H    0.035334
    86  H    0.031533
    87  H    0.036945
    88  H    0.018045
    89  H    0.019578
    90  H    0.024575
    91  H    0.027927
    92  H    0.027493
    93  H    0.009742
    94  H    0.035519
    95  H    0.017825
    96  H    0.035456
    97  H    0.036295
    98  H    0.052646
    99  H    0.027793
   100  H    0.055618
   101  H    0.032474
   102  H    0.033250
   103  H    0.064530
   104  H    0.026593
   105  H    0.036450
   106  H    0.025404
   107  H    0.019432
   108  H    0.001184
   109  H    0.024028
   110  H    0.017850
   111  H    0.022524
   112  H    0.013092
   113  H    0.030908
   114  H    0.027866
   115  H    0.004164
   116  H    0.010433
   117  H    0.025310
   118  H    0.026858
   119  H    0.016615
   120  H    0.021318
   121  H    0.032063
   122  H    0.016071
   123  H    0.018314
   124  H    0.023957
   125  H    0.017444
   126  H    0.015693
   127  H    0.022049
   128  H    0.022042
   129  H    0.014538
   130  H    0.018866
   131  H    0.008242
   132  H    0.024634
   133  H    0.017802
   134  H    0.020954
   135  H    0.021944
   136  H    0.009146
   137  H    0.015409
   138  H    0.011605
   139  H    0.024525
   140  H    0.022879
 Sum of Mulliken charges =  -0.00000

 Dipole moment (field-independent basis, Debye):
    X=             -3.9135    Y=              1.4082    Z=             -1.7926  Tot=              4.5290
 N-N= 4.228257573886D+03 E-N= 0.000000000000D+00  KE=-9.130512625476D+03
 Leave Link  601 at Wed May  4 23:37:02 2022, MaxMem=  6710886400 cpu:               0.8 elap:               0.1
 (Enter /sw/apps/gaussian-16.0/g16/l9999.exe)
 1\1\GINC-BP1-COMPUTE067\SP\RZINDO CIS\STO-3G\C55H74Mg1N4O6\OF15641\04-
 May-2022\0\\#p ZINDO=(nstates=5)\\step_451_chromophore_7 ZINDO\\0,1\Mg
 ,0,25.468,0.974,29.314\C,0,27.465,0.557,32.196\C,0,22.768,1.434,31.158
 \C,0,23.703,1.056,26.357\C,0,28.195,-0.08,27.402\N,0,25.173,1.001,31.5
 27\C,0,26.17,0.844,32.544\C,0,25.482,1.042,33.901\C,0,23.928,1.129,33.
 491\C,0,23.926,1.21,31.944\C,0,23.043,-0.089,33.912\C,0,26.107,2.327,3
 4.532\C,0,26.766,2.183,35.902\C,0,26.157,3.182,37.023\O,0,25.644,4.292

 Normal termination of Gaussian 16 at Wed May  4 23:37:02 2022.
