 Gaussian 16, Revision A.03,
 Gaussian 16:  ES64L-G16RevA.03 25-Dec-2016

 ------------------------------
 #p blyp/Def2SVP td=(nstates=5)
 ------------------------------

 --------------------------------------------------
 step_901_chromophore_22 TDDFT with blyp functional
 --------------------------------------------------
 Symbolic Z-matrix:
 Charge =  0 Multiplicity = 1

                         Standard orientation:
 ---------------------------------------------------------------------
 Center     Atomic      Atomic             Coordinates (Angstroms)
 Number     Number       Type             X           Y           Z
 ---------------------------------------------------------------------
      1         12           0        6.201222    0.727383   -0.056803
      2          6           0        3.987330   -2.149490   -0.244667
      3          6           0        3.714312    2.434698   -1.620709
      4          6           0        8.207937    3.190800    0.151798
      5          6           0        8.744754   -1.583508    0.990794
      6          7           0        4.035880    0.122764   -0.842820
      7          6           0        3.324167   -1.001547   -0.661821
      8          6           0        1.997158   -0.926865   -1.476774
      9          6           0        2.138472    0.458854   -2.289310
     10          6           0        3.345899    1.086094   -1.463998
     11          6           0        2.306185    0.409081   -3.853630
     12          6           0        0.790964   -0.999882   -0.569336
     13          6           0       -0.218866   -1.987328   -1.105159
     14          6           0       -1.537443   -2.214698   -0.294917
     15          8           0       -1.676969   -2.586307    0.867435
     16          8           0       -2.557397   -2.100965   -1.184773
     17          7           0        5.932882    2.642989   -0.419054
     18          6           0        4.863211    3.164967   -1.119094
     19          6           0        5.126182    4.613465   -1.357488
     20          6           0        6.380878    4.874078   -0.788977
     21          6           0        6.884976    3.578942   -0.285226
     22          6           0        4.179351    5.514688   -2.195671
     23          6           0        7.080548    6.162532   -0.678078
     24          8           0        8.195490    6.180271   -0.177353
     25          6           0        6.587652    7.415135   -1.221457
     26          7           0        8.226276    0.765928    0.568204
     27          6           0        8.784742    1.965415    0.622106
     28          6           0       10.286160    1.842774    1.168583
     29          6           0       10.219263    0.357166    1.756617
     30          6           0        8.996199   -0.229872    1.148164
     31          6           0       11.391812    2.149912    0.130050
     32          6           0       10.132045    0.371984    3.333211
     33          6           0       11.253628   -0.438609    4.026974
     34          7           0        6.435886   -1.342320    0.179857
     35          6           0        7.463131   -2.086367    0.658368
     36          6           0        7.087889   -3.493370    0.717510
     37          6           0        5.771805   -3.501051    0.433042
     38          6           0        5.370987   -2.203127    0.085046
     39          6           0        7.924397   -4.598431    1.164438
     40          6           0        4.708210   -4.472957    0.250541
     41          8           0        4.657700   -5.673326    0.465399
     42          6           0        3.428423   -3.583521   -0.196322
     43          6           0        2.369943   -3.905727    0.853474
     44          8           0        2.149054   -3.167276    1.819409
     45          8           0        1.658507   -5.043876    0.566851
     46          6           0        0.499868   -5.330025    1.422809
     47          6           0       -3.844946   -2.666047   -0.748639
     48          6           0       -4.926887   -1.860954   -1.445759
     49          6           0       -6.261803   -2.183184   -1.411778
     50          6           0       -6.947355   -3.202739   -0.552828
     51          6           0       -7.219371   -1.196746   -2.138924
     52          6           0       -8.329742   -1.748696   -2.942638
     53          6           0       -9.613642   -0.917211   -2.837687
     54          6           0      -10.761314   -1.541954   -1.956817
     55          6           0      -11.828062   -2.126877   -2.895278
     56          6           0      -11.383767   -0.465425   -1.052195
     57          6           0      -10.632362   -0.386785    0.262211
     58          6           0      -10.271946    1.119725    0.626665
     59          6           0      -11.249116    1.854202    1.565577
     60          6           0      -10.580932    2.851264    2.518591
     61          6           0      -12.357310    2.617715    0.740053
     62          6           0      -13.337592    3.349762    1.610166
     63          6           0      -14.852430    2.882147    1.463045
     64          6           0      -15.566193    2.398040    2.765603
     65          6           0      -16.376903    1.102854    2.534702
     66          6           0      -16.471827    3.464899    3.400146
     67          1           0        2.909325    2.969074   -2.129989
     68          1           0        8.956765    3.983848    0.095870
     69          1           0        9.555301   -2.289440    1.182177
     70          1           0        2.083529   -1.779710   -2.149473
     71          1           0        1.301918    1.141716   -2.145939
     72          1           0        2.559943   -0.552344   -4.299466
     73          1           0        3.029584    1.144380   -4.207865
     74          1           0        1.351450    0.710095   -4.284301
     75          1           0        0.239965   -0.061345   -0.632957
     76          1           0        1.230844   -1.268895    0.390381
     77          1           0        0.327935   -2.930922   -1.112318
     78          1           0       -0.358738   -1.783492   -2.166344
     79          1           0        3.289885    4.987161   -2.538943
     80          1           0        4.798089    5.821394   -3.039072
     81          1           0        3.907740    6.359833   -1.562578
     82          1           0        6.504375    7.411731   -2.308519
     83          1           0        7.239212    8.207001   -0.852754
     84          1           0        5.607911    7.629891   -0.795766
     85          1           0       10.330546    2.625061    1.925710
     86          1           0       11.060693   -0.190900    1.331793
     87          1           0       11.093646    2.211728   -0.917476
     88          1           0       12.187700    1.418618    0.271203
     89          1           0       11.747637    3.134430    0.433852
     90          1           0        9.157760   -0.035857    3.603967
     91          1           0       10.258703    1.383742    3.717593
     92          1           0       12.087261   -0.405513    3.325485
     93          1           0       10.931613   -1.469046    4.180635
     94          1           0       11.447706   -0.118649    5.050499
     95          1           0        7.503919   -4.988773    2.090737
     96          1           0        8.987106   -4.412096    1.324779
     97          1           0        7.810046   -5.334508    0.369278
     98          1           0        3.089617   -3.905625   -1.180988
     99          1           0        0.286886   -4.669200    2.263135
    100          1           0        0.659671   -6.359605    1.743138
    101          1           0       -0.377015   -5.357454    0.775976
    102          1           0       -4.014629   -2.711725    0.326234
    103          1           0       -3.884705   -3.656527   -1.201874
    104          1           0       -4.579562   -0.970548   -1.968962
    105          1           0       -6.272361   -3.429570    0.272381
    106          1           0       -7.005228   -4.050146   -1.235372
    107          1           0       -7.893752   -2.818917   -0.169692
    108          1           0       -6.666933   -0.603747   -2.868104
    109          1           0       -7.672592   -0.478408   -1.456117
    110          1           0       -8.461780   -2.790802   -2.654568
    111          1           0       -8.046973   -1.740209   -3.995918
    112          1           0       -9.897951   -0.627696   -3.849394
    113          1           0       -9.391289    0.056724   -2.400120
    114          1           0      -10.430241   -2.369486   -1.329845
    115          1           0      -11.371957   -2.255390   -3.877153
    116          1           0      -12.689246   -1.485468   -3.082367
    117          1           0      -12.163166   -3.110008   -2.565878
    118          1           0      -12.340472   -0.906074   -0.771817
    119          1           0      -11.457190    0.509245   -1.535989
    120          1           0       -9.704487   -0.944828    0.140517
    121          1           0      -11.256378   -0.791991    1.058357
    122          1           0      -10.030833    1.775935   -0.210394
    123          1           0       -9.347267    0.902348    1.160871
    124          1           0      -11.822992    1.080931    2.075963
    125          1           0      -10.758067    3.885200    2.221188
    126          1           0       -9.497183    2.738946    2.547370
    127          1           0      -10.920933    2.789824    3.552320
    128          1           0      -12.923219    1.945360    0.094110
    129          1           0      -11.920465    3.337773    0.047206
    130          1           0      -13.342781    4.370049    1.227386
    131          1           0      -12.956787    3.347590    2.631192
    132          1           0      -15.010570    2.057614    0.767831
    133          1           0      -15.383478    3.712146    0.998126
    134          1           0      -14.813756    2.245718    3.539372
    135          1           0      -16.933602    0.833551    3.432813
    136          1           0      -15.637658    0.335567    2.307246
    137          1           0      -17.057966    1.144986    1.685087
    138          1           0      -16.410705    3.448574    4.488166
    139          1           0      -17.538749    3.264002    3.303854
    140          1           0      -16.204873    4.441629    2.996453
 ---------------------------------------------------------------------

 SCF Done:  E(RB-LYP) =  -3007.38361529     A.U. after   21 cycles

 Excitation energies and oscillator strengths:

 Excited State   1:      Singlet-A      1.8501 eV  670.16 nm  f=0.2891  <S**2>=0.000
     245 -> 248       -0.21537
     246 -> 247        0.67896
     246 <- 247       -0.13531
 This state for optimization and/or second-order correction.
 Total Energy, E(TD-HF/TD-DFT) =  -3007.31562678
 Copying the excited state density for this state as the 1-particle RhoCI density.

 Excited State   2:      Singlet-A      1.9709 eV  629.07 nm  f=0.0163  <S**2>=0.000
     244 -> 247        0.58773
     245 -> 247        0.37115
     246 -> 248        0.11116

 Excited State   3:      Singlet-A      2.0695 eV  599.09 nm  f=0.0497  <S**2>=0.000
     243 -> 247        0.14650
     244 -> 247       -0.38415
     245 -> 247        0.51094
     246 -> 248        0.24530

 Excited State   4:      Singlet-A      2.1590 eV  574.26 nm  f=0.0061  <S**2>=0.000
     243 -> 247        0.68849
     245 -> 247       -0.12372

 Excited State   5:      Singlet-A      2.3443 eV  528.88 nm  f=0.0000  <S**2>=0.000
     242 -> 247        0.70709

 The electronic state is 1-A.
 Alpha  occ. eigenvalues --  -46.27043 -18.82412 -18.81683 -18.77024 -18.76256
 Alpha  occ. eigenvalues --  -18.75752 -18.74735 -14.02550 -14.02537 -14.01647
 Alpha  occ. eigenvalues --  -14.00961 -10.04347 -10.03570  -9.99875  -9.98965
 Alpha  occ. eigenvalues --   -9.97964  -9.96524  -9.96423  -9.96415  -9.96388
 Alpha  occ. eigenvalues --   -9.96058  -9.95842  -9.95773  -9.95034  -9.94534
 Alpha  occ. eigenvalues --   -9.94526  -9.94421  -9.94162  -9.93913  -9.93895
 Alpha  occ. eigenvalues --   -9.93816  -9.93571  -9.93568  -9.93242  -9.93232
 Alpha  occ. eigenvalues --   -9.92949  -9.92888  -9.92786  -9.92652  -9.92574
 Alpha  occ. eigenvalues --   -9.92568  -9.92377  -9.92226  -9.92178  -9.92033
 Alpha  occ. eigenvalues --   -9.92027  -9.91925  -9.91872  -9.91870  -9.91868
 Alpha  occ. eigenvalues --   -9.91752  -9.91725  -9.91285  -9.91148  -9.91144
 Alpha  occ. eigenvalues --   -9.91050  -9.91007  -9.90883  -9.90859  -9.90855
 Alpha  occ. eigenvalues --   -9.90852  -9.90526  -9.90491  -9.90411  -9.90230
 Alpha  occ. eigenvalues --   -9.90230  -2.91758  -1.72189  -1.71662  -1.71453
 Alpha  occ. eigenvalues --   -0.98127  -0.96553  -0.91625  -0.91570  -0.89738
 Alpha  occ. eigenvalues --   -0.88514  -0.86692  -0.86016  -0.85847  -0.85135
 Alpha  occ. eigenvalues --   -0.74802  -0.73910  -0.73058  -0.72784  -0.71956
 Alpha  occ. eigenvalues --   -0.71944  -0.71154  -0.70903  -0.70633  -0.70270
 Alpha  occ. eigenvalues --   -0.69998  -0.69172  -0.68088  -0.67123  -0.66992
 Alpha  occ. eigenvalues --   -0.66411  -0.65999  -0.65613  -0.64944  -0.64315
 Alpha  occ. eigenvalues --   -0.64264  -0.62843  -0.62295  -0.61851  -0.60652
 Alpha  occ. eigenvalues --   -0.60360  -0.59843  -0.59674  -0.59491  -0.58899
 Alpha  occ. eigenvalues --   -0.57922  -0.57337  -0.56284  -0.54995  -0.53992
 Alpha  occ. eigenvalues --   -0.53858  -0.53615  -0.52852  -0.51983  -0.51480
 Alpha  occ. eigenvalues --   -0.51381  -0.50609  -0.50481  -0.50191  -0.49827
 Alpha  occ. eigenvalues --   -0.49710  -0.48941  -0.48719  -0.47762  -0.46643
 Alpha  occ. eigenvalues --   -0.46397  -0.46065  -0.45397  -0.44804  -0.44361
 Alpha  occ. eigenvalues --   -0.43663  -0.43043  -0.42905  -0.42495  -0.41970
 Alpha  occ. eigenvalues --   -0.41778  -0.41517  -0.41324  -0.41087  -0.40857
 Alpha  occ. eigenvalues --   -0.40676  -0.40444  -0.40365  -0.40190  -0.39834
 Alpha  occ. eigenvalues --   -0.39705  -0.39519  -0.39386  -0.39165  -0.39003
 Alpha  occ. eigenvalues --   -0.38849  -0.38841  -0.38717  -0.38551  -0.38483
 Alpha  occ. eigenvalues --   -0.38215  -0.37973  -0.37921  -0.37766  -0.37559
 Alpha  occ. eigenvalues --   -0.37147  -0.36799  -0.36692  -0.36548  -0.36402
 Alpha  occ. eigenvalues --   -0.36259  -0.36010  -0.35868  -0.35832  -0.35790
 Alpha  occ. eigenvalues --   -0.35655  -0.35449  -0.35401  -0.35139  -0.34799
 Alpha  occ. eigenvalues --   -0.34514  -0.34399  -0.34218  -0.33918  -0.33701
 Alpha  occ. eigenvalues --   -0.33635  -0.33346  -0.33214  -0.32964  -0.32930
 Alpha  occ. eigenvalues --   -0.32705  -0.32648  -0.32491  -0.32470  -0.31989
 Alpha  occ. eigenvalues --   -0.31966  -0.31834  -0.31689  -0.31584  -0.31512
 Alpha  occ. eigenvalues --   -0.31387  -0.31151  -0.30972  -0.30775  -0.30613
 Alpha  occ. eigenvalues --   -0.30458  -0.30300  -0.30196  -0.30007  -0.29650
 Alpha  occ. eigenvalues --   -0.29522  -0.29347  -0.29281  -0.29202  -0.28846
 Alpha  occ. eigenvalues --   -0.28731  -0.28430  -0.28268  -0.27695  -0.27487
 Alpha  occ. eigenvalues --   -0.27426  -0.27039  -0.26752  -0.26579  -0.26533
 Alpha  occ. eigenvalues --   -0.26380  -0.26160  -0.25338  -0.25131  -0.24855
 Alpha  occ. eigenvalues --   -0.24494  -0.24395  -0.23838  -0.23790  -0.23478
 Alpha  occ. eigenvalues --   -0.22936  -0.22106  -0.21938  -0.21252  -0.21057
 Alpha  occ. eigenvalues --   -0.20842  -0.19656  -0.18862  -0.18282  -0.16878
 Alpha  occ. eigenvalues --   -0.15580
 Alpha virt. eigenvalues --   -0.11041  -0.06758  -0.06087  -0.04555  -0.03147
 Alpha virt. eigenvalues --   -0.01956  -0.01773  -0.01329  -0.00712  -0.00197
 Alpha virt. eigenvalues --    0.00797   0.01847   0.02135   0.02514   0.02528

 Mulliken charges:
               1
     1  Mg   0.702936
     2  C   -0.022089
     3  C   -0.043355
     4  C   -0.024006
     5  C   -0.097071
     6  N   -0.151515
     7  C   -0.081405
     8  C   -0.024262
     9  C    0.005150
    10  C   -0.042226
    11  C    0.123310
    12  C    0.161421
    13  C    0.063383
    14  C    0.118222
    15  O   -0.189036
    16  O   -0.264555
    17  N   -0.331709
    18  C    0.151819
    19  C   -0.176343
    20  C    0.074111
    21  C    0.107439
    22  C    0.185980
    23  C   -0.123604
    24  O   -0.170633
    25  C    0.160323
    26  N   -0.220680
    27  C    0.001497
    28  C   -0.028554
    29  C    0.036767
    30  C    0.032953
    31  C    0.136541
    32  C    0.106899
    33  C    0.058331
    34  N   -0.229441
    35  C    0.107751
    36  C   -0.190750
    37  C    0.095231
    38  C    0.131262
    39  C    0.180166
    40  C   -0.050851
    41  O   -0.121161
    42  C    0.025506
    43  C    0.136650
    44  O   -0.191850
    45  O   -0.269985
    46  C    0.211392
    47  C    0.302646
    48  C   -0.125328
    49  C   -0.166287
    50  C    0.166802
    51  C    0.114472
    52  C    0.080270
    53  C    0.090854
    54  C   -0.085921
    55  C    0.119454
    56  C    0.115918
    57  C    0.061261
    58  C    0.084899
    59  C   -0.050668
    60  C    0.121836
    61  C    0.054971
    62  C    0.096775
    63  C    0.099979
    64  C   -0.085670
    65  C    0.095929
    66  C    0.099974
    67  H   -0.064893
    68  H   -0.047576
    69  H   -0.055146
    70  H   -0.030097
    71  H   -0.032608
    72  H   -0.004184
    73  H   -0.010932
    74  H   -0.012113
    75  H   -0.024387
    76  H    0.019129
    77  H   -0.005826
    78  H   -0.017723
    79  H   -0.007392
    80  H    0.011579
    81  H    0.006663
    82  H    0.013872
    83  H   -0.008481
    84  H   -0.011353
    85  H   -0.016584
    86  H   -0.031705
    87  H    0.005349
    88  H   -0.010504
    89  H   -0.001722
    90  H   -0.010122
    91  H   -0.013180
    92  H   -0.004578
    93  H   -0.013964
    94  H   -0.006565
    95  H    0.014629
    96  H   -0.021735
    97  H    0.007288
    98  H    0.000374
    99  H    0.042468
   100  H    0.010138
   101  H    0.007313
   102  H    0.031430
   103  H   -0.000227
   104  H   -0.027511
   105  H   -0.014510
   106  H    0.018258
   107  H    0.015957
   108  H   -0.041335
   109  H   -0.013664
   110  H   -0.038356
   111  H   -0.039167
   112  H   -0.037679
   113  H   -0.043997
   114  H   -0.035662
   115  H   -0.031397
   116  H   -0.017314
   117  H   -0.021571
   118  H   -0.044852
   119  H   -0.012119
   120  H   -0.023546
   121  H   -0.028746
   122  H   -0.027960
   123  H   -0.043592
   124  H   -0.042899
   125  H   -0.016301
   126  H   -0.024621
   127  H   -0.008621
   128  H   -0.032281
   129  H   -0.042614
   130  H   -0.040201
   131  H   -0.023404
   132  H   -0.042308
   133  H   -0.038018
   134  H   -0.034195
   135  H   -0.015975
   136  H   -0.018426
   137  H   -0.009865
   138  H   -0.027356
   139  H   -0.028147
   140  H   -0.014770
 Sum of Mulliken charges =  -0.00000

 Dipole moment (field-independent basis, Debye):
    X=             -1.7156    Y=              2.0487    Z=             -3.3625  Tot=              4.2950
 Quadrupole moment (field-independent basis, Debye-Ang):
   XX=           -380.2303   YY=           -419.9262   ZZ=           -399.0931
   XY=              3.0879   XZ=              1.2607   YZ=             -4.9214

 Normal termination of Gaussian 16 at Thu May  5 13:45:39 2022.
