 Gaussian 16, Revision A.03,
 Gaussian 16:  ES64L-G16RevA.03 25-Dec-2016

 -----------------------------------
 #p cam-b3lyp/Def2SVP td=(nstates=5)
 -----------------------------------

 -------------------------------------------------------
 step_901_chromophore_22 TDDFT with cam-b3lyp functional
 -------------------------------------------------------
 Symbolic Z-matrix:
 Charge =  0 Multiplicity = 1

                         Standard orientation:
 ---------------------------------------------------------------------
 Center     Atomic      Atomic             Coordinates (Angstroms)
 Number     Number       Type             X           Y           Z
 ---------------------------------------------------------------------
      1         12           0        6.201222    0.727383   -0.056803
      2          6           0        3.987330   -2.149490   -0.244667
      3          6           0        3.714312    2.434698   -1.620709
      4          6           0        8.207937    3.190800    0.151798
      5          6           0        8.744754   -1.583508    0.990794
      6          7           0        4.035880    0.122764   -0.842820
      7          6           0        3.324167   -1.001547   -0.661821
      8          6           0        1.997158   -0.926865   -1.476774
      9          6           0        2.138472    0.458854   -2.289310
     10          6           0        3.345899    1.086094   -1.463998
     11          6           0        2.306185    0.409081   -3.853630
     12          6           0        0.790964   -0.999882   -0.569336
     13          6           0       -0.218866   -1.987328   -1.105159
     14          6           0       -1.537443   -2.214698   -0.294917
     15          8           0       -1.676969   -2.586307    0.867435
     16          8           0       -2.557397   -2.100965   -1.184773
     17          7           0        5.932882    2.642989   -0.419054
     18          6           0        4.863211    3.164967   -1.119094
     19          6           0        5.126182    4.613465   -1.357488
     20          6           0        6.380878    4.874078   -0.788977
     21          6           0        6.884976    3.578942   -0.285226
     22          6           0        4.179351    5.514688   -2.195671
     23          6           0        7.080548    6.162532   -0.678078
     24          8           0        8.195490    6.180271   -0.177353
     25          6           0        6.587652    7.415135   -1.221457
     26          7           0        8.226276    0.765928    0.568204
     27          6           0        8.784742    1.965415    0.622106
     28          6           0       10.286160    1.842774    1.168583
     29          6           0       10.219263    0.357166    1.756617
     30          6           0        8.996199   -0.229872    1.148164
     31          6           0       11.391812    2.149912    0.130050
     32          6           0       10.132045    0.371984    3.333211
     33          6           0       11.253628   -0.438609    4.026974
     34          7           0        6.435886   -1.342320    0.179857
     35          6           0        7.463131   -2.086367    0.658368
     36          6           0        7.087889   -3.493370    0.717510
     37          6           0        5.771805   -3.501051    0.433042
     38          6           0        5.370987   -2.203127    0.085046
     39          6           0        7.924397   -4.598431    1.164438
     40          6           0        4.708210   -4.472957    0.250541
     41          8           0        4.657700   -5.673326    0.465399
     42          6           0        3.428423   -3.583521   -0.196322
     43          6           0        2.369943   -3.905727    0.853474
     44          8           0        2.149054   -3.167276    1.819409
     45          8           0        1.658507   -5.043876    0.566851
     46          6           0        0.499868   -5.330025    1.422809
     47          6           0       -3.844946   -2.666047   -0.748639
     48          6           0       -4.926887   -1.860954   -1.445759
     49          6           0       -6.261803   -2.183184   -1.411778
     50          6           0       -6.947355   -3.202739   -0.552828
     51          6           0       -7.219371   -1.196746   -2.138924
     52          6           0       -8.329742   -1.748696   -2.942638
     53          6           0       -9.613642   -0.917211   -2.837687
     54          6           0      -10.761314   -1.541954   -1.956817
     55          6           0      -11.828062   -2.126877   -2.895278
     56          6           0      -11.383767   -0.465425   -1.052195
     57          6           0      -10.632362   -0.386785    0.262211
     58          6           0      -10.271946    1.119725    0.626665
     59          6           0      -11.249116    1.854202    1.565577
     60          6           0      -10.580932    2.851264    2.518591
     61          6           0      -12.357310    2.617715    0.740053
     62          6           0      -13.337592    3.349762    1.610166
     63          6           0      -14.852430    2.882147    1.463045
     64          6           0      -15.566193    2.398040    2.765603
     65          6           0      -16.376903    1.102854    2.534702
     66          6           0      -16.471827    3.464899    3.400146
     67          1           0        2.909325    2.969074   -2.129989
     68          1           0        8.956765    3.983848    0.095870
     69          1           0        9.555301   -2.289440    1.182177
     70          1           0        2.083529   -1.779710   -2.149473
     71          1           0        1.301918    1.141716   -2.145939
     72          1           0        2.559943   -0.552344   -4.299466
     73          1           0        3.029584    1.144380   -4.207865
     74          1           0        1.351450    0.710095   -4.284301
     75          1           0        0.239965   -0.061345   -0.632957
     76          1           0        1.230844   -1.268895    0.390381
     77          1           0        0.327935   -2.930922   -1.112318
     78          1           0       -0.358738   -1.783492   -2.166344
     79          1           0        3.289885    4.987161   -2.538943
     80          1           0        4.798089    5.821394   -3.039072
     81          1           0        3.907740    6.359833   -1.562578
     82          1           0        6.504375    7.411731   -2.308519
     83          1           0        7.239212    8.207001   -0.852754
     84          1           0        5.607911    7.629891   -0.795766
     85          1           0       10.330546    2.625061    1.925710
     86          1           0       11.060693   -0.190900    1.331793
     87          1           0       11.093646    2.211728   -0.917476
     88          1           0       12.187700    1.418618    0.271203
     89          1           0       11.747637    3.134430    0.433852
     90          1           0        9.157760   -0.035857    3.603967
     91          1           0       10.258703    1.383742    3.717593
     92          1           0       12.087261   -0.405513    3.325485
     93          1           0       10.931613   -1.469046    4.180635
     94          1           0       11.447706   -0.118649    5.050499
     95          1           0        7.503919   -4.988773    2.090737
     96          1           0        8.987106   -4.412096    1.324779
     97          1           0        7.810046   -5.334508    0.369278
     98          1           0        3.089617   -3.905625   -1.180988
     99          1           0        0.286886   -4.669200    2.263135
    100          1           0        0.659671   -6.359605    1.743138
    101          1           0       -0.377015   -5.357454    0.775976
    102          1           0       -4.014629   -2.711725    0.326234
    103          1           0       -3.884705   -3.656527   -1.201874
    104          1           0       -4.579562   -0.970548   -1.968962
    105          1           0       -6.272361   -3.429570    0.272381
    106          1           0       -7.005228   -4.050146   -1.235372
    107          1           0       -7.893752   -2.818917   -0.169692
    108          1           0       -6.666933   -0.603747   -2.868104
    109          1           0       -7.672592   -0.478408   -1.456117
    110          1           0       -8.461780   -2.790802   -2.654568
    111          1           0       -8.046973   -1.740209   -3.995918
    112          1           0       -9.897951   -0.627696   -3.849394
    113          1           0       -9.391289    0.056724   -2.400120
    114          1           0      -10.430241   -2.369486   -1.329845
    115          1           0      -11.371957   -2.255390   -3.877153
    116          1           0      -12.689246   -1.485468   -3.082367
    117          1           0      -12.163166   -3.110008   -2.565878
    118          1           0      -12.340472   -0.906074   -0.771817
    119          1           0      -11.457190    0.509245   -1.535989
    120          1           0       -9.704487   -0.944828    0.140517
    121          1           0      -11.256378   -0.791991    1.058357
    122          1           0      -10.030833    1.775935   -0.210394
    123          1           0       -9.347267    0.902348    1.160871
    124          1           0      -11.822992    1.080931    2.075963
    125          1           0      -10.758067    3.885200    2.221188
    126          1           0       -9.497183    2.738946    2.547370
    127          1           0      -10.920933    2.789824    3.552320
    128          1           0      -12.923219    1.945360    0.094110
    129          1           0      -11.920465    3.337773    0.047206
    130          1           0      -13.342781    4.370049    1.227386
    131          1           0      -12.956787    3.347590    2.631192
    132          1           0      -15.010570    2.057614    0.767831
    133          1           0      -15.383478    3.712146    0.998126
    134          1           0      -14.813756    2.245718    3.539372
    135          1           0      -16.933602    0.833551    3.432813
    136          1           0      -15.637658    0.335567    2.307246
    137          1           0      -17.057966    1.144986    1.685087
    138          1           0      -16.410705    3.448574    4.488166
    139          1           0      -17.538749    3.264002    3.303854
    140          1           0      -16.204873    4.441629    2.996453
 ---------------------------------------------------------------------

 SCF Done:  E(RCAM-B3LYP) =  -3007.17938553     A.U. after   17 cycles

 Excitation energies and oscillator strengths:

 Excited State   1:      Singlet-A      1.7477 eV  709.41 nm  f=0.3612  <S**2>=0.000
     245 -> 248        0.20289
     246 -> 247        0.67931
     245 <- 248        0.11224
 This state for optimization and/or second-order correction.
 Total Energy, E(TD-HF/TD-DFT) =  -3007.11515809
 Copying the excited state density for this state as the 1-particle RhoCI density.

 Excited State   2:      Singlet-A      2.2592 eV  548.79 nm  f=0.0947  <S**2>=0.000
     245 -> 247        0.62879
     246 -> 248       -0.31708

 Excited State   3:      Singlet-A      3.5142 eV  352.81 nm  f=0.7388  <S**2>=0.000
     241 -> 247        0.11597
     245 -> 247        0.30381
     246 -> 248        0.60812
     245 <- 247       -0.11428

 Excited State   4:      Singlet-A      3.6519 eV  339.51 nm  f=0.0028  <S**2>=0.000
     239 -> 247        0.12004
     240 -> 247        0.33482
     240 -> 249        0.20976
     240 -> 250       -0.18164
     241 -> 247       -0.19799
     241 -> 249        0.23004
     242 -> 247       -0.29594
     242 -> 250        0.12063
     243 -> 247       -0.20259

 Excited State   5:      Singlet-A      3.6681 eV  338.00 nm  f=0.0318  <S**2>=0.000
     240 -> 247        0.31307
     240 -> 249        0.16608
     240 -> 250       -0.14670
     241 -> 247        0.40981
     241 -> 249       -0.22492
     241 -> 250       -0.18063
     242 -> 249       -0.16512

 The electronic state is 1-A.
 Alpha  occ. eigenvalues --  -46.88554 -19.25281 -19.24602 -19.19995 -19.19439
 Alpha  occ. eigenvalues --  -19.18878 -19.18046 -14.41444 -14.41250 -14.40171
 Alpha  occ. eigenvalues --  -14.39361 -10.39714 -10.39126 -10.35261 -10.34133
 Alpha  occ. eigenvalues --  -10.32005 -10.30945 -10.30939 -10.30934 -10.30555
 Alpha  occ. eigenvalues --  -10.30443 -10.30143 -10.30113 -10.29279 -10.29116
 Alpha  occ. eigenvalues --  -10.28729 -10.28698 -10.28655 -10.28036 -10.27986
 Alpha  occ. eigenvalues --  -10.27908 -10.27793 -10.27519 -10.27409 -10.27285
 Alpha  occ. eigenvalues --  -10.27151 -10.27001 -10.26560 -10.26558 -10.26550
 Alpha  occ. eigenvalues --  -10.26524 -10.26282 -10.26196 -10.25964 -10.25902
 Alpha  occ. eigenvalues --  -10.25897 -10.25792 -10.25755 -10.25673 -10.25434
 Alpha  occ. eigenvalues --  -10.25432 -10.25292 -10.24997 -10.24864 -10.24858
 Alpha  occ. eigenvalues --  -10.24772 -10.24718 -10.24531 -10.24527 -10.24460
 Alpha  occ. eigenvalues --  -10.24440 -10.24194 -10.24164 -10.24138 -10.24006
 Alpha  occ. eigenvalues --  -10.23812  -3.17180  -1.92085  -1.91641  -1.91486
 Alpha  occ. eigenvalues --   -1.16584  -1.15055  -1.10088  -1.10013  -1.07608
 Alpha  occ. eigenvalues --   -1.06462  -1.04399  -1.03647  -1.03505  -1.02639
 Alpha  occ. eigenvalues --   -0.91900  -0.90831  -0.89910  -0.89610  -0.88668
 Alpha  occ. eigenvalues --   -0.88588  -0.87775  -0.87659  -0.87218  -0.86754
 Alpha  occ. eigenvalues --   -0.86568  -0.85502  -0.84430  -0.83212  -0.83140
 Alpha  occ. eigenvalues --   -0.82591  -0.82229  -0.81516  -0.80829  -0.80150
 Alpha  occ. eigenvalues --   -0.80015  -0.78681  -0.77932  -0.77294  -0.76037
 Alpha  occ. eigenvalues --   -0.75744  -0.75197  -0.74919  -0.74790  -0.74169
 Alpha  occ. eigenvalues --   -0.72961  -0.72315  -0.71133  -0.69810  -0.68645
 Alpha  occ. eigenvalues --   -0.68400  -0.68236  -0.67368  -0.66337  -0.65693
 Alpha  occ. eigenvalues --   -0.65393  -0.64632  -0.64546  -0.64258  -0.63767
 Alpha  occ. eigenvalues --   -0.63679  -0.62878  -0.62634  -0.61397  -0.60301
 Alpha  occ. eigenvalues --   -0.60019  -0.59584  -0.58941  -0.58135  -0.57767
 Alpha  occ. eigenvalues --   -0.57273  -0.56395  -0.56083  -0.55618  -0.55272
 Alpha  occ. eigenvalues --   -0.54953  -0.54732  -0.54215  -0.53825  -0.53612
 Alpha  occ. eigenvalues --   -0.53400  -0.53258  -0.53190  -0.53068  -0.52861
 Alpha  occ. eigenvalues --   -0.52613  -0.52282  -0.52021  -0.51824  -0.51444
 Alpha  occ. eigenvalues --   -0.51406  -0.51325  -0.51029  -0.50923  -0.50855
 Alpha  occ. eigenvalues --   -0.50713  -0.50538  -0.50325  -0.50011  -0.49769
 Alpha  occ. eigenvalues --   -0.49668  -0.49426  -0.49169  -0.48989  -0.48786
 Alpha  occ. eigenvalues --   -0.48582  -0.48275  -0.48169  -0.47962  -0.47767
 Alpha  occ. eigenvalues --   -0.47761  -0.47574  -0.47516  -0.47151  -0.46745
 Alpha  occ. eigenvalues --   -0.46390  -0.46251  -0.46148  -0.45777  -0.45616
 Alpha  occ. eigenvalues --   -0.45265  -0.45121  -0.44833  -0.44810  -0.44510
 Alpha  occ. eigenvalues --   -0.44493  -0.44260  -0.44039  -0.44016  -0.43865
 Alpha  occ. eigenvalues --   -0.43771  -0.43497  -0.43431  -0.43186  -0.43110
 Alpha  occ. eigenvalues --   -0.43038  -0.42889  -0.42368  -0.42153  -0.42013
 Alpha  occ. eigenvalues --   -0.41901  -0.41763  -0.41523  -0.41420  -0.41274
 Alpha  occ. eigenvalues --   -0.41057  -0.40568  -0.40524  -0.40373  -0.40029
 Alpha  occ. eigenvalues --   -0.39736  -0.39533  -0.39158  -0.38669  -0.38555
 Alpha  occ. eigenvalues --   -0.38341  -0.37908  -0.37742  -0.37592  -0.37417
 Alpha  occ. eigenvalues --   -0.37172  -0.36768  -0.36569  -0.35719  -0.35584
 Alpha  occ. eigenvalues --   -0.35468  -0.35131  -0.34904  -0.34287  -0.34246
 Alpha  occ. eigenvalues --   -0.33748  -0.33397  -0.32813  -0.31476  -0.30891
 Alpha  occ. eigenvalues --   -0.30602  -0.30483  -0.30178  -0.29290  -0.23547
 Alpha  occ. eigenvalues --   -0.20863
 Alpha virt. eigenvalues --   -0.08005  -0.01636   0.00514   0.02391   0.03932
 Alpha virt. eigenvalues --    0.04509   0.05232   0.05503   0.06047   0.06418
 Alpha virt. eigenvalues --    0.08157   0.08390   0.08631   0.08677   0.09370

 Mulliken charges:
               1
     1  Mg   0.838130
     2  C   -0.032116
     3  C   -0.060872
     4  C   -0.050729
     5  C   -0.099301
     6  N   -0.217111
     7  C   -0.036554
     8  C   -0.082435
     9  C   -0.042105
    10  C   -0.022335
    11  C    0.065594
    12  C    0.106911
    13  C   -0.000044
    14  C    0.199976
    15  O   -0.231410
    16  O   -0.329668
    17  N   -0.424407
    18  C    0.160655
    19  C   -0.178117
    20  C   -0.000980
    21  C    0.136947
    22  C    0.134823
    23  C   -0.042108
    24  O   -0.211458
    25  C    0.074389
    26  N   -0.294613
    27  C    0.025372
    28  C   -0.068809
    29  C   -0.032355
    30  C    0.050825
    31  C    0.076712
    32  C    0.054535
    33  C   -0.000775
    34  N   -0.316622
    35  C    0.112229
    36  C   -0.190408
    37  C    0.017730
    38  C    0.158578
    39  C    0.125218
    40  C    0.046742
    41  O   -0.158479
    42  C   -0.048366
    43  C    0.218641
    44  O   -0.229046
    45  O   -0.332208
    46  C    0.173443
    47  C    0.270099
    48  C   -0.146315
    49  C   -0.183088
    50  C    0.101523
    51  C    0.059212
    52  C    0.022119
    53  C    0.036336
    54  C   -0.140265
    55  C    0.060357
    56  C    0.057594
    57  C    0.015770
    58  C    0.029704
    59  C   -0.103069
    60  C    0.052616
    61  C    0.010684
    62  C    0.034820
    63  C    0.046390
    64  C   -0.143341
    65  C    0.035738
    66  C    0.039804
    67  H   -0.031410
    68  H   -0.008730
    69  H   -0.019860
    70  H    0.004201
    71  H    0.000932
    72  H    0.020498
    73  H    0.014996
    74  H    0.011845
    75  H    0.005498
    76  H    0.051544
    77  H    0.019279
    78  H    0.017941
    79  H    0.020268
    80  H    0.036572
    81  H    0.031529
    82  H    0.041620
    83  H    0.028752
    84  H    0.017182
    85  H    0.017702
    86  H    0.002921
    87  H    0.030771
    88  H    0.012854
    89  H    0.021352
    90  H    0.019144
    91  H    0.014036
    92  H    0.016208
    93  H    0.008658
    94  H    0.017867
    95  H    0.040515
    96  H    0.003965
    97  H    0.032761
    98  H    0.041591
    99  H    0.068896
   100  H    0.033120
   101  H    0.027082
   102  H    0.060405
   103  H    0.026870
   104  H    0.008520
   105  H    0.010654
   106  H    0.041688
   107  H    0.036958
   108  H   -0.009951
   109  H    0.012565
   110  H   -0.010643
   111  H   -0.007449
   112  H   -0.006648
   113  H   -0.016039
   114  H   -0.004603
   115  H   -0.006246
   116  H    0.007569
   117  H    0.003518
   118  H   -0.013337
   119  H    0.013458
   120  H   -0.001571
   121  H    0.000438
   122  H   -0.002178
   123  H   -0.012359
   124  H   -0.012663
   125  H    0.008658
   126  H    0.002740
   127  H    0.015888
   128  H   -0.006720
   129  H   -0.013889
   130  H   -0.008875
   131  H    0.004278
   132  H   -0.012903
   133  H   -0.008223
   134  H   -0.003168
   135  H    0.008679
   136  H    0.005001
   137  H    0.013378
   138  H   -0.002268
   139  H   -0.003160
   140  H    0.008821
 Sum of Mulliken charges =  -0.00000

 Dipole moment (field-independent basis, Debye):
    X=             -1.9876    Y=              2.7190    Z=             -3.7757  Tot=              5.0596
 Quadrupole moment (field-independent basis, Debye-Ang):
   XX=           -379.5838   YY=           -415.6390   ZZ=           -398.4016
   XY=              6.1393   XZ=              0.7368   YZ=             -6.2857

 Normal termination of Gaussian 16 at Thu May  5 12:46:01 2022.
