 Gaussian 16, Revision A.03,
 Gaussian 16:  ES64L-G16RevA.03 25-Dec-2016

 ---------------------------------
 #p PBE1PBE/Def2SVP td=(nstates=5)
 ---------------------------------

 -----------------------------------------------------
 step_901_chromophore_22 TDDFT with PBE1PBE functional
 -----------------------------------------------------
 Symbolic Z-matrix:
 Charge =  0 Multiplicity = 1

                         Standard orientation:
 ---------------------------------------------------------------------
 Center     Atomic      Atomic             Coordinates (Angstroms)
 Number     Number       Type             X           Y           Z
 ---------------------------------------------------------------------
      1         12           0        6.201222    0.727383   -0.056803
      2          6           0        3.987330   -2.149490   -0.244667
      3          6           0        3.714312    2.434698   -1.620709
      4          6           0        8.207937    3.190800    0.151798
      5          6           0        8.744754   -1.583508    0.990794
      6          7           0        4.035880    0.122764   -0.842820
      7          6           0        3.324167   -1.001547   -0.661821
      8          6           0        1.997158   -0.926865   -1.476774
      9          6           0        2.138472    0.458854   -2.289310
     10          6           0        3.345899    1.086094   -1.463998
     11          6           0        2.306185    0.409081   -3.853630
     12          6           0        0.790964   -0.999882   -0.569336
     13          6           0       -0.218866   -1.987328   -1.105159
     14          6           0       -1.537443   -2.214698   -0.294917
     15          8           0       -1.676969   -2.586307    0.867435
     16          8           0       -2.557397   -2.100965   -1.184773
     17          7           0        5.932882    2.642989   -0.419054
     18          6           0        4.863211    3.164967   -1.119094
     19          6           0        5.126182    4.613465   -1.357488
     20          6           0        6.380878    4.874078   -0.788977
     21          6           0        6.884976    3.578942   -0.285226
     22          6           0        4.179351    5.514688   -2.195671
     23          6           0        7.080548    6.162532   -0.678078
     24          8           0        8.195490    6.180271   -0.177353
     25          6           0        6.587652    7.415135   -1.221457
     26          7           0        8.226276    0.765928    0.568204
     27          6           0        8.784742    1.965415    0.622106
     28          6           0       10.286160    1.842774    1.168583
     29          6           0       10.219263    0.357166    1.756617
     30          6           0        8.996199   -0.229872    1.148164
     31          6           0       11.391812    2.149912    0.130050
     32          6           0       10.132045    0.371984    3.333211
     33          6           0       11.253628   -0.438609    4.026974
     34          7           0        6.435886   -1.342320    0.179857
     35          6           0        7.463131   -2.086367    0.658368
     36          6           0        7.087889   -3.493370    0.717510
     37          6           0        5.771805   -3.501051    0.433042
     38          6           0        5.370987   -2.203127    0.085046
     39          6           0        7.924397   -4.598431    1.164438
     40          6           0        4.708210   -4.472957    0.250541
     41          8           0        4.657700   -5.673326    0.465399
     42          6           0        3.428423   -3.583521   -0.196322
     43          6           0        2.369943   -3.905727    0.853474
     44          8           0        2.149054   -3.167276    1.819409
     45          8           0        1.658507   -5.043876    0.566851
     46          6           0        0.499868   -5.330025    1.422809
     47          6           0       -3.844946   -2.666047   -0.748639
     48          6           0       -4.926887   -1.860954   -1.445759
     49          6           0       -6.261803   -2.183184   -1.411778
     50          6           0       -6.947355   -3.202739   -0.552828
     51          6           0       -7.219371   -1.196746   -2.138924
     52          6           0       -8.329742   -1.748696   -2.942638
     53          6           0       -9.613642   -0.917211   -2.837687
     54          6           0      -10.761314   -1.541954   -1.956817
     55          6           0      -11.828062   -2.126877   -2.895278
     56          6           0      -11.383767   -0.465425   -1.052195
     57          6           0      -10.632362   -0.386785    0.262211
     58          6           0      -10.271946    1.119725    0.626665
     59          6           0      -11.249116    1.854202    1.565577
     60          6           0      -10.580932    2.851264    2.518591
     61          6           0      -12.357310    2.617715    0.740053
     62          6           0      -13.337592    3.349762    1.610166
     63          6           0      -14.852430    2.882147    1.463045
     64          6           0      -15.566193    2.398040    2.765603
     65          6           0      -16.376903    1.102854    2.534702
     66          6           0      -16.471827    3.464899    3.400146
     67          1           0        2.909325    2.969074   -2.129989
     68          1           0        8.956765    3.983848    0.095870
     69          1           0        9.555301   -2.289440    1.182177
     70          1           0        2.083529   -1.779710   -2.149473
     71          1           0        1.301918    1.141716   -2.145939
     72          1           0        2.559943   -0.552344   -4.299466
     73          1           0        3.029584    1.144380   -4.207865
     74          1           0        1.351450    0.710095   -4.284301
     75          1           0        0.239965   -0.061345   -0.632957
     76          1           0        1.230844   -1.268895    0.390381
     77          1           0        0.327935   -2.930922   -1.112318
     78          1           0       -0.358738   -1.783492   -2.166344
     79          1           0        3.289885    4.987161   -2.538943
     80          1           0        4.798089    5.821394   -3.039072
     81          1           0        3.907740    6.359833   -1.562578
     82          1           0        6.504375    7.411731   -2.308519
     83          1           0        7.239212    8.207001   -0.852754
     84          1           0        5.607911    7.629891   -0.795766
     85          1           0       10.330546    2.625061    1.925710
     86          1           0       11.060693   -0.190900    1.331793
     87          1           0       11.093646    2.211728   -0.917476
     88          1           0       12.187700    1.418618    0.271203
     89          1           0       11.747637    3.134430    0.433852
     90          1           0        9.157760   -0.035857    3.603967
     91          1           0       10.258703    1.383742    3.717593
     92          1           0       12.087261   -0.405513    3.325485
     93          1           0       10.931613   -1.469046    4.180635
     94          1           0       11.447706   -0.118649    5.050499
     95          1           0        7.503919   -4.988773    2.090737
     96          1           0        8.987106   -4.412096    1.324779
     97          1           0        7.810046   -5.334508    0.369278
     98          1           0        3.089617   -3.905625   -1.180988
     99          1           0        0.286886   -4.669200    2.263135
    100          1           0        0.659671   -6.359605    1.743138
    101          1           0       -0.377015   -5.357454    0.775976
    102          1           0       -4.014629   -2.711725    0.326234
    103          1           0       -3.884705   -3.656527   -1.201874
    104          1           0       -4.579562   -0.970548   -1.968962
    105          1           0       -6.272361   -3.429570    0.272381
    106          1           0       -7.005228   -4.050146   -1.235372
    107          1           0       -7.893752   -2.818917   -0.169692
    108          1           0       -6.666933   -0.603747   -2.868104
    109          1           0       -7.672592   -0.478408   -1.456117
    110          1           0       -8.461780   -2.790802   -2.654568
    111          1           0       -8.046973   -1.740209   -3.995918
    112          1           0       -9.897951   -0.627696   -3.849394
    113          1           0       -9.391289    0.056724   -2.400120
    114          1           0      -10.430241   -2.369486   -1.329845
    115          1           0      -11.371957   -2.255390   -3.877153
    116          1           0      -12.689246   -1.485468   -3.082367
    117          1           0      -12.163166   -3.110008   -2.565878
    118          1           0      -12.340472   -0.906074   -0.771817
    119          1           0      -11.457190    0.509245   -1.535989
    120          1           0       -9.704487   -0.944828    0.140517
    121          1           0      -11.256378   -0.791991    1.058357
    122          1           0      -10.030833    1.775935   -0.210394
    123          1           0       -9.347267    0.902348    1.160871
    124          1           0      -11.822992    1.080931    2.075963
    125          1           0      -10.758067    3.885200    2.221188
    126          1           0       -9.497183    2.738946    2.547370
    127          1           0      -10.920933    2.789824    3.552320
    128          1           0      -12.923219    1.945360    0.094110
    129          1           0      -11.920465    3.337773    0.047206
    130          1           0      -13.342781    4.370049    1.227386
    131          1           0      -12.956787    3.347590    2.631192
    132          1           0      -15.010570    2.057614    0.767831
    133          1           0      -15.383478    3.712146    0.998126
    134          1           0      -14.813756    2.245718    3.539372
    135          1           0      -16.933602    0.833551    3.432813
    136          1           0      -15.637658    0.335567    2.307246
    137          1           0      -17.057966    1.144986    1.685087
    138          1           0      -16.410705    3.448574    4.488166
    139          1           0      -17.538749    3.264002    3.303854
    140          1           0      -16.204873    4.441629    2.996453
 ---------------------------------------------------------------------

 SCF Done:  E(RPBE1PBE) =  -3005.36751168     A.U. after   15 cycles

 Excitation energies and oscillator strengths:

 Excited State   1:      Singlet-A      1.9068 eV  650.22 nm  f=0.3536  <S**2>=0.000
     245 -> 248       -0.19623
     246 -> 247        0.68539
 This state for optimization and/or second-order correction.
 Total Energy, E(TD-HF/TD-DFT) =  -3005.29743797
 Copying the excited state density for this state as the 1-particle RhoCI density.

 Excited State   2:      Singlet-A      2.2695 eV  546.32 nm  f=0.0950  <S**2>=0.000
     245 -> 247        0.64089
     246 -> 248        0.29346

 Excited State   3:      Singlet-A      3.1435 eV  394.42 nm  f=0.0034  <S**2>=0.000
     242 -> 247        0.16394
     243 -> 247        0.63537
     243 -> 249        0.14823
     243 -> 250        0.12359

 Excited State   4:      Singlet-A      3.1858 eV  389.18 nm  f=0.0021  <S**2>=0.000
     242 -> 247        0.64029
     242 -> 249       -0.17801
     243 -> 247       -0.17228

 Excited State   5:      Singlet-A      3.3489 eV  370.23 nm  f=0.4506  <S**2>=0.000
     240 -> 247       -0.15838
     241 -> 247        0.21607
     245 -> 247       -0.25019
     245 -> 250       -0.11756
     246 -> 248        0.56216
     246 -> 249        0.10950

 The electronic state is 1-A.
 Alpha  occ. eigenvalues --  -46.91960 -19.25999 -19.25251 -19.20269 -19.19703
 Alpha  occ. eigenvalues --  -19.19108 -19.18213 -14.40887 -14.40834 -14.39787
 Alpha  occ. eigenvalues --  -14.39058 -10.36737 -10.36129 -10.32461 -10.31172
 Alpha  occ. eigenvalues --  -10.29424 -10.28643 -10.28600 -10.28557 -10.28249
 Alpha  occ. eigenvalues --  -10.27948 -10.27915 -10.27678 -10.26933 -10.26852
 Alpha  occ. eigenvalues --  -10.26542 -10.26511 -10.26298 -10.25855 -10.25695
 Alpha  occ. eigenvalues --  -10.25655 -10.25337 -10.25306 -10.25118 -10.24822
 Alpha  occ. eigenvalues --  -10.24751 -10.24623 -10.24325 -10.24231 -10.24008
 Alpha  occ. eigenvalues --  -10.23978 -10.23957 -10.23938 -10.23473 -10.23466
 Alpha  occ. eigenvalues --  -10.23437 -10.23386 -10.23286 -10.23175 -10.23081
 Alpha  occ. eigenvalues --  -10.22923 -10.22746 -10.22541 -10.22449 -10.22395
 Alpha  occ. eigenvalues --  -10.22345 -10.22296 -10.22066 -10.22034 -10.21945
 Alpha  occ. eigenvalues --  -10.21837 -10.21836 -10.21736 -10.21687 -10.21395
 Alpha  occ. eigenvalues --  -10.21175  -3.14165  -1.87011  -1.86544  -1.86395
 Alpha  occ. eigenvalues --   -1.11413  -1.09811  -1.04797  -1.04761  -1.02469
 Alpha  occ. eigenvalues --   -1.01260  -0.99062  -0.98326  -0.98136  -0.97334
 Alpha  occ. eigenvalues --   -0.86279  -0.84932  -0.84079  -0.83730  -0.82910
 Alpha  occ. eigenvalues --   -0.82777  -0.82112  -0.81920  -0.81313  -0.81096
 Alpha  occ. eigenvalues --   -0.80888  -0.79696  -0.78644  -0.77477  -0.77373
 Alpha  occ. eigenvalues --   -0.76762  -0.76408  -0.75762  -0.75139  -0.74381
 Alpha  occ. eigenvalues --   -0.74286  -0.72918  -0.72195  -0.71655  -0.70385
 Alpha  occ. eigenvalues --   -0.69925  -0.69299  -0.69268  -0.68921  -0.68317
 Alpha  occ. eigenvalues --   -0.67331  -0.66743  -0.65591  -0.64117  -0.62943
 Alpha  occ. eigenvalues --   -0.62767  -0.62586  -0.61824  -0.60582  -0.60071
 Alpha  occ. eigenvalues --   -0.59846  -0.59168  -0.58894  -0.58812  -0.58146
 Alpha  occ. eigenvalues --   -0.57848  -0.57012  -0.56815  -0.55996  -0.54846
 Alpha  occ. eigenvalues --   -0.54447  -0.54132  -0.53445  -0.52745  -0.52351
 Alpha  occ. eigenvalues --   -0.51668  -0.50888  -0.50666  -0.50002  -0.49798
 Alpha  occ. eigenvalues --   -0.49545  -0.49264  -0.48680  -0.48211  -0.48086
 Alpha  occ. eigenvalues --   -0.47896  -0.47781  -0.47672  -0.47537  -0.47407
 Alpha  occ. eigenvalues --   -0.47123  -0.46833  -0.46589  -0.46366  -0.46044
 Alpha  occ. eigenvalues --   -0.45922  -0.45879  -0.45611  -0.45422  -0.45393
 Alpha  occ. eigenvalues --   -0.45368  -0.45181  -0.44825  -0.44496  -0.44308
 Alpha  occ. eigenvalues --   -0.44245  -0.44023  -0.43791  -0.43536  -0.43384
 Alpha  occ. eigenvalues --   -0.43162  -0.42893  -0.42821  -0.42567  -0.42456
 Alpha  occ. eigenvalues --   -0.42323  -0.42186  -0.42157  -0.41807  -0.41461
 Alpha  occ. eigenvalues --   -0.41097  -0.40936  -0.40842  -0.40532  -0.40373
 Alpha  occ. eigenvalues --   -0.39955  -0.39912  -0.39593  -0.39395  -0.39307
 Alpha  occ. eigenvalues --   -0.39185  -0.39069  -0.38905  -0.38680  -0.38608
 Alpha  occ. eigenvalues --   -0.38575  -0.38240  -0.38198  -0.37955  -0.37851
 Alpha  occ. eigenvalues --   -0.37814  -0.37739  -0.37149  -0.36932  -0.36840
 Alpha  occ. eigenvalues --   -0.36669  -0.36478  -0.36293  -0.36175  -0.36122
 Alpha  occ. eigenvalues --   -0.35903  -0.35437  -0.35267  -0.35238  -0.34937
 Alpha  occ. eigenvalues --   -0.34485  -0.34452  -0.33885  -0.33579  -0.33393
 Alpha  occ. eigenvalues --   -0.33339  -0.32795  -0.32729  -0.32415  -0.32216
 Alpha  occ. eigenvalues --   -0.31933  -0.31862  -0.31501  -0.30583  -0.30572
 Alpha  occ. eigenvalues --   -0.30376  -0.30145  -0.29822  -0.29209  -0.29171
 Alpha  occ. eigenvalues --   -0.28805  -0.28579  -0.28085  -0.27008  -0.26223
 Alpha  occ. eigenvalues --   -0.25873  -0.25559  -0.25475  -0.24575  -0.20527
 Alpha  occ. eigenvalues --   -0.18507
 Alpha virt. eigenvalues --   -0.10547  -0.05129  -0.03759  -0.02009  -0.00009
 Alpha virt. eigenvalues --    0.01038   0.01154   0.01478   0.01725   0.02375
 Alpha virt. eigenvalues --    0.03746   0.05013   0.05074   0.05379   0.05449

 Mulliken charges:
               1
     1  Mg   0.990713
     2  C   -0.024243
     3  C   -0.059318
     4  C   -0.049856
     5  C   -0.077449
     6  N   -0.321327
     7  C    0.048808
     8  C   -0.166997
     9  C   -0.109172
    10  C    0.016477
    11  C    0.008609
    12  C    0.061123
    13  C   -0.083716
    14  C    0.269831
    15  O   -0.266671
    16  O   -0.360416
    17  N   -0.546489
    18  C    0.184788
    19  C   -0.198186
    20  C   -0.061973
    21  C    0.173219
    22  C    0.072259
    23  C    0.011508
    24  O   -0.248546
    25  C    0.002326
    26  N   -0.394884
    27  C    0.061176
    28  C   -0.133035
    29  C   -0.123218
    30  C    0.086530
    31  C    0.017311
    32  C    0.001054
    33  C   -0.074404
    34  N   -0.446369
    35  C    0.129057
    36  C   -0.209007
    37  C   -0.027789
    38  C    0.194995
    39  C    0.070077
    40  C    0.138480
    41  O   -0.203082
    42  C   -0.153343
    43  C    0.302865
    44  O   -0.263035
    45  O   -0.364416
    46  C    0.120190
    47  C    0.230757
    48  C   -0.160104
    49  C   -0.219744
    50  C    0.026207
    51  C   -0.005054
    52  C   -0.038477
    53  C   -0.019022
    54  C   -0.229713
    55  C    0.002871
    56  C    0.002055
    57  C   -0.053077
    58  C   -0.024630
    59  C   -0.192503
    60  C   -0.010298
    61  C   -0.038514
    62  C   -0.032737
    63  C   -0.004611
    64  C   -0.233473
    65  C   -0.031273
    66  C   -0.018933
    67  H    0.000831
    68  H    0.024839
    69  H    0.011736
    70  H    0.042092
    71  H    0.036460
    72  H    0.047098
    73  H    0.042662
    74  H    0.039132
    75  H    0.040013
    76  H    0.085814
    77  H    0.057144
    78  H    0.050291
    79  H    0.047268
    80  H    0.064181
    81  H    0.058939
    82  H    0.067543
    83  H    0.055721
    84  H    0.044691
    85  H    0.053516
    86  H    0.038919
    87  H    0.057637
    88  H    0.040626
    89  H    0.048430
    90  H    0.052032
    91  H    0.046311
    92  H    0.043938
    93  H    0.037029
    94  H    0.045700
    95  H    0.068370
    96  H    0.030810
    97  H    0.061173
    98  H    0.076788
    99  H    0.088702
   100  H    0.055260
   101  H    0.049334
   102  H    0.084409
   103  H    0.055553
   104  H    0.037741
   105  H    0.039906
   106  H    0.069333
   107  H    0.067561
   108  H    0.022706
   109  H    0.046850
   110  H    0.023071
   111  H    0.026195
   112  H    0.024885
   113  H    0.018101
   114  H    0.032790
   115  H    0.022213
   116  H    0.034648
   117  H    0.031389
   118  H    0.021854
   119  H    0.043925
   120  H    0.038115
   121  H    0.032434
   122  H    0.028696
   123  H    0.021408
   124  H    0.026689
   125  H    0.037071
   126  H    0.030937
   127  H    0.042989
   128  H    0.027890
   129  H    0.018498
   130  H    0.024980
   131  H    0.036839
   132  H    0.018738
   133  H    0.023620
   134  H    0.034631
   135  H    0.037059
   136  H    0.034156
   137  H    0.041076
   138  H    0.025367
   139  H    0.024198
   140  H    0.036270
 Sum of Mulliken charges =  -0.00000

 Dipole moment (field-independent basis, Debye):
    X=             -1.8475    Y=              2.5382    Z=             -3.7282  Tot=              4.8739
 Quadrupole moment (field-independent basis, Debye-Ang):
   XX=           -372.7380   YY=           -413.1410   ZZ=           -395.4116
   XY=              4.9228   XZ=              2.0818   YZ=             -6.6387

 Normal termination of Gaussian 16 at Thu May  5 13:07:24 2022.
