 Gaussian 16, Revision A.03,
 Gaussian 16:  ES64L-G16RevA.03 25-Dec-2016

 --------------------------------
 #p wB97XD/Def2SVP td=(nstates=5)
 --------------------------------

 ----------------------------------------------------
 step_901_chromophore_22 TDDFT with wB97XD functional
 ----------------------------------------------------
 Symbolic Z-matrix:
 Charge =  0 Multiplicity = 1

                         Standard orientation:
 ---------------------------------------------------------------------
 Center     Atomic      Atomic             Coordinates (Angstroms)
 Number     Number       Type             X           Y           Z
 ---------------------------------------------------------------------
      1         12           0        6.201222    0.727383   -0.056803
      2          6           0        3.987330   -2.149490   -0.244667
      3          6           0        3.714312    2.434698   -1.620709
      4          6           0        8.207937    3.190800    0.151798
      5          6           0        8.744754   -1.583508    0.990794
      6          7           0        4.035880    0.122764   -0.842820
      7          6           0        3.324167   -1.001547   -0.661821
      8          6           0        1.997158   -0.926865   -1.476774
      9          6           0        2.138472    0.458854   -2.289310
     10          6           0        3.345899    1.086094   -1.463998
     11          6           0        2.306185    0.409081   -3.853630
     12          6           0        0.790964   -0.999882   -0.569336
     13          6           0       -0.218866   -1.987328   -1.105159
     14          6           0       -1.537443   -2.214698   -0.294917
     15          8           0       -1.676969   -2.586307    0.867435
     16          8           0       -2.557397   -2.100965   -1.184773
     17          7           0        5.932882    2.642989   -0.419054
     18          6           0        4.863211    3.164967   -1.119094
     19          6           0        5.126182    4.613465   -1.357488
     20          6           0        6.380878    4.874078   -0.788977
     21          6           0        6.884976    3.578942   -0.285226
     22          6           0        4.179351    5.514688   -2.195671
     23          6           0        7.080548    6.162532   -0.678078
     24          8           0        8.195490    6.180271   -0.177353
     25          6           0        6.587652    7.415135   -1.221457
     26          7           0        8.226276    0.765928    0.568204
     27          6           0        8.784742    1.965415    0.622106
     28          6           0       10.286160    1.842774    1.168583
     29          6           0       10.219263    0.357166    1.756617
     30          6           0        8.996199   -0.229872    1.148164
     31          6           0       11.391812    2.149912    0.130050
     32          6           0       10.132045    0.371984    3.333211
     33          6           0       11.253628   -0.438609    4.026974
     34          7           0        6.435886   -1.342320    0.179857
     35          6           0        7.463131   -2.086367    0.658368
     36          6           0        7.087889   -3.493370    0.717510
     37          6           0        5.771805   -3.501051    0.433042
     38          6           0        5.370987   -2.203127    0.085046
     39          6           0        7.924397   -4.598431    1.164438
     40          6           0        4.708210   -4.472957    0.250541
     41          8           0        4.657700   -5.673326    0.465399
     42          6           0        3.428423   -3.583521   -0.196322
     43          6           0        2.369943   -3.905727    0.853474
     44          8           0        2.149054   -3.167276    1.819409
     45          8           0        1.658507   -5.043876    0.566851
     46          6           0        0.499868   -5.330025    1.422809
     47          6           0       -3.844946   -2.666047   -0.748639
     48          6           0       -4.926887   -1.860954   -1.445759
     49          6           0       -6.261803   -2.183184   -1.411778
     50          6           0       -6.947355   -3.202739   -0.552828
     51          6           0       -7.219371   -1.196746   -2.138924
     52          6           0       -8.329742   -1.748696   -2.942638
     53          6           0       -9.613642   -0.917211   -2.837687
     54          6           0      -10.761314   -1.541954   -1.956817
     55          6           0      -11.828062   -2.126877   -2.895278
     56          6           0      -11.383767   -0.465425   -1.052195
     57          6           0      -10.632362   -0.386785    0.262211
     58          6           0      -10.271946    1.119725    0.626665
     59          6           0      -11.249116    1.854202    1.565577
     60          6           0      -10.580932    2.851264    2.518591
     61          6           0      -12.357310    2.617715    0.740053
     62          6           0      -13.337592    3.349762    1.610166
     63          6           0      -14.852430    2.882147    1.463045
     64          6           0      -15.566193    2.398040    2.765603
     65          6           0      -16.376903    1.102854    2.534702
     66          6           0      -16.471827    3.464899    3.400146
     67          1           0        2.909325    2.969074   -2.129989
     68          1           0        8.956765    3.983848    0.095870
     69          1           0        9.555301   -2.289440    1.182177
     70          1           0        2.083529   -1.779710   -2.149473
     71          1           0        1.301918    1.141716   -2.145939
     72          1           0        2.559943   -0.552344   -4.299466
     73          1           0        3.029584    1.144380   -4.207865
     74          1           0        1.351450    0.710095   -4.284301
     75          1           0        0.239965   -0.061345   -0.632957
     76          1           0        1.230844   -1.268895    0.390381
     77          1           0        0.327935   -2.930922   -1.112318
     78          1           0       -0.358738   -1.783492   -2.166344
     79          1           0        3.289885    4.987161   -2.538943
     80          1           0        4.798089    5.821394   -3.039072
     81          1           0        3.907740    6.359833   -1.562578
     82          1           0        6.504375    7.411731   -2.308519
     83          1           0        7.239212    8.207001   -0.852754
     84          1           0        5.607911    7.629891   -0.795766
     85          1           0       10.330546    2.625061    1.925710
     86          1           0       11.060693   -0.190900    1.331793
     87          1           0       11.093646    2.211728   -0.917476
     88          1           0       12.187700    1.418618    0.271203
     89          1           0       11.747637    3.134430    0.433852
     90          1           0        9.157760   -0.035857    3.603967
     91          1           0       10.258703    1.383742    3.717593
     92          1           0       12.087261   -0.405513    3.325485
     93          1           0       10.931613   -1.469046    4.180635
     94          1           0       11.447706   -0.118649    5.050499
     95          1           0        7.503919   -4.988773    2.090737
     96          1           0        8.987106   -4.412096    1.324779
     97          1           0        7.810046   -5.334508    0.369278
     98          1           0        3.089617   -3.905625   -1.180988
     99          1           0        0.286886   -4.669200    2.263135
    100          1           0        0.659671   -6.359605    1.743138
    101          1           0       -0.377015   -5.357454    0.775976
    102          1           0       -4.014629   -2.711725    0.326234
    103          1           0       -3.884705   -3.656527   -1.201874
    104          1           0       -4.579562   -0.970548   -1.968962
    105          1           0       -6.272361   -3.429570    0.272381
    106          1           0       -7.005228   -4.050146   -1.235372
    107          1           0       -7.893752   -2.818917   -0.169692
    108          1           0       -6.666933   -0.603747   -2.868104
    109          1           0       -7.672592   -0.478408   -1.456117
    110          1           0       -8.461780   -2.790802   -2.654568
    111          1           0       -8.046973   -1.740209   -3.995918
    112          1           0       -9.897951   -0.627696   -3.849394
    113          1           0       -9.391289    0.056724   -2.400120
    114          1           0      -10.430241   -2.369486   -1.329845
    115          1           0      -11.371957   -2.255390   -3.877153
    116          1           0      -12.689246   -1.485468   -3.082367
    117          1           0      -12.163166   -3.110008   -2.565878
    118          1           0      -12.340472   -0.906074   -0.771817
    119          1           0      -11.457190    0.509245   -1.535989
    120          1           0       -9.704487   -0.944828    0.140517
    121          1           0      -11.256378   -0.791991    1.058357
    122          1           0      -10.030833    1.775935   -0.210394
    123          1           0       -9.347267    0.902348    1.160871
    124          1           0      -11.822992    1.080931    2.075963
    125          1           0      -10.758067    3.885200    2.221188
    126          1           0       -9.497183    2.738946    2.547370
    127          1           0      -10.920933    2.789824    3.552320
    128          1           0      -12.923219    1.945360    0.094110
    129          1           0      -11.920465    3.337773    0.047206
    130          1           0      -13.342781    4.370049    1.227386
    131          1           0      -12.956787    3.347590    2.631192
    132          1           0      -15.010570    2.057614    0.767831
    133          1           0      -15.383478    3.712146    0.998126
    134          1           0      -14.813756    2.245718    3.539372
    135          1           0      -16.933602    0.833551    3.432813
    136          1           0      -15.637658    0.335567    2.307246
    137          1           0      -17.057966    1.144986    1.685087
    138          1           0      -16.410705    3.448574    4.488166
    139          1           0      -17.538749    3.264002    3.303854
    140          1           0      -16.204873    4.441629    2.996453
 ---------------------------------------------------------------------

 SCF Done:  E(RwB97XD) =  -3007.87641435     A.U. after   18 cycles

 Excitation energies and oscillator strengths:

 Excited State   1:      Singlet-A      1.6898 eV  733.70 nm  f=0.3581  <S**2>=0.000
     245 -> 248        0.20873
     246 -> 247        0.67733
     245 <- 248        0.12193
 This state for optimization and/or second-order correction.
 Total Energy, E(TD-HF/TD-DFT) =  -3007.81431394
 Copying the excited state density for this state as the 1-particle RhoCI density.

 Excited State   2:      Singlet-A      2.2058 eV  562.08 nm  f=0.0921  <S**2>=0.000
     245 -> 247        0.62720
     246 -> 248       -0.31951

 Excited State   3:      Singlet-A      3.5254 eV  351.69 nm  f=0.7581  <S**2>=0.000
     241 -> 247        0.13498
     245 -> 247        0.30454
     246 -> 248        0.60760
     245 <- 247       -0.11962

 Excited State   4:      Singlet-A      3.6617 eV  338.60 nm  f=0.0118  <S**2>=0.000
     240 -> 247        0.31090
     240 -> 249        0.20336
     240 -> 250       -0.17997
     241 -> 247        0.31130
     241 -> 249        0.24974
     241 -> 250       -0.16782
     242 -> 247       -0.18352
     243 -> 247       -0.18582

 Excited State   5:      Singlet-A      3.6946 eV  335.59 nm  f=0.0214  <S**2>=0.000
     240 -> 247        0.12667
     241 -> 247        0.20425
     241 -> 250       -0.11925
     242 -> 247        0.42773
     242 -> 249       -0.33653
     242 -> 250       -0.19291
     243 -> 247        0.18434

 The electronic state is 1-A.
 Alpha  occ. eigenvalues --  -46.94888 -19.30543 -19.29822 -19.24930 -19.24482
 Alpha  occ. eigenvalues --  -19.23825 -19.23078 -14.46037 -14.45825 -14.44777
 Alpha  occ. eigenvalues --  -14.43968 -10.43533 -10.42986 -10.39284 -10.38073
 Alpha  occ. eigenvalues --  -10.35908 -10.35036 -10.35027 -10.34992 -10.34601
 Alpha  occ. eigenvalues --  -10.34172 -10.34153 -10.34112 -10.33471 -10.33115
 Alpha  occ. eigenvalues --  -10.32783 -10.32739 -10.32715 -10.32108 -10.32043
 Alpha  occ. eigenvalues --  -10.31950 -10.31848 -10.31626 -10.31456 -10.31203
 Alpha  occ. eigenvalues --  -10.31173 -10.31104 -10.30624 -10.30527 -10.30427
 Alpha  occ. eigenvalues --  -10.30393 -10.30287 -10.30203 -10.29864 -10.29851
 Alpha  occ. eigenvalues --  -10.29826 -10.29729 -10.29670 -10.29640 -10.29367
 Alpha  occ. eigenvalues --  -10.29285 -10.29094 -10.28918 -10.28808 -10.28797
 Alpha  occ. eigenvalues --  -10.28705 -10.28657 -10.28447 -10.28431 -10.28276
 Alpha  occ. eigenvalues --  -10.28269 -10.28184 -10.28112 -10.28065 -10.27833
 Alpha  occ. eigenvalues --  -10.27607  -3.20948  -1.94545  -1.94079  -1.93922
 Alpha  occ. eigenvalues --   -1.18784  -1.17224  -1.12301  -1.12250  -1.09809
 Alpha  occ. eigenvalues --   -1.08648  -1.06410  -1.05707  -1.05508  -1.04674
 Alpha  occ. eigenvalues --   -0.93872  -0.92615  -0.91734  -0.91401  -0.90488
 Alpha  occ. eigenvalues --   -0.90449  -0.89699  -0.89611  -0.88984  -0.88664
 Alpha  occ. eigenvalues --   -0.88519  -0.87354  -0.86310  -0.85070  -0.85036
 Alpha  occ. eigenvalues --   -0.84465  -0.84149  -0.83410  -0.82756  -0.81992
 Alpha  occ. eigenvalues --   -0.81955  -0.80658  -0.79835  -0.79214  -0.77984
 Alpha  occ. eigenvalues --   -0.77603  -0.76973  -0.76865  -0.76603  -0.75992
 Alpha  occ. eigenvalues --   -0.74905  -0.74293  -0.73113  -0.71744  -0.70542
 Alpha  occ. eigenvalues --   -0.70353  -0.70156  -0.69377  -0.68217  -0.67625
 Alpha  occ. eigenvalues --   -0.67307  -0.66565  -0.66502  -0.66269  -0.65668
 Alpha  occ. eigenvalues --   -0.65539  -0.64679  -0.64462  -0.63391  -0.62328
 Alpha  occ. eigenvalues --   -0.61942  -0.61549  -0.60905  -0.60105  -0.59736
 Alpha  occ. eigenvalues --   -0.59214  -0.58352  -0.58058  -0.57506  -0.57229
 Alpha  occ. eigenvalues --   -0.56943  -0.56665  -0.56112  -0.55675  -0.55500
 Alpha  occ. eigenvalues --   -0.55297  -0.55182  -0.55137  -0.55010  -0.54796
 Alpha  occ. eigenvalues --   -0.54524  -0.54199  -0.53923  -0.53733  -0.53363
 Alpha  occ. eigenvalues --   -0.53297  -0.53237  -0.52926  -0.52793  -0.52748
 Alpha  occ. eigenvalues --   -0.52653  -0.52473  -0.52283  -0.51860  -0.51675
 Alpha  occ. eigenvalues --   -0.51602  -0.51344  -0.51086  -0.50942  -0.50669
 Alpha  occ. eigenvalues --   -0.50503  -0.50184  -0.50103  -0.49902  -0.49664
 Alpha  occ. eigenvalues --   -0.49621  -0.49451  -0.49443  -0.49031  -0.48662
 Alpha  occ. eigenvalues --   -0.48326  -0.48105  -0.48078  -0.47706  -0.47547
 Alpha  occ. eigenvalues --   -0.47143  -0.47037  -0.46745  -0.46654  -0.46452
 Alpha  occ. eigenvalues --   -0.46363  -0.46215  -0.45966  -0.45888  -0.45815
 Alpha  occ. eigenvalues --   -0.45703  -0.45399  -0.45350  -0.45057  -0.45034
 Alpha  occ. eigenvalues --   -0.44945  -0.44866  -0.44256  -0.44030  -0.43963
 Alpha  occ. eigenvalues --   -0.43888  -0.43625  -0.43481  -0.43293  -0.43158
 Alpha  occ. eigenvalues --   -0.42969  -0.42438  -0.42378  -0.42262  -0.41934
 Alpha  occ. eigenvalues --   -0.41576  -0.41413  -0.40979  -0.40565  -0.40422
 Alpha  occ. eigenvalues --   -0.40233  -0.39793  -0.39655  -0.39470  -0.39258
 Alpha  occ. eigenvalues --   -0.38998  -0.38925  -0.38523  -0.37576  -0.37552
 Alpha  occ. eigenvalues --   -0.37313  -0.37102  -0.36748  -0.36199  -0.36099
 Alpha  occ. eigenvalues --   -0.35712  -0.35395  -0.35016  -0.33665  -0.32917
 Alpha  occ. eigenvalues --   -0.32673  -0.32558  -0.32345  -0.31344  -0.25476
 Alpha  occ. eigenvalues --   -0.22688
 Alpha virt. eigenvalues --   -0.06351   0.00253   0.02568   0.04478   0.06781
 Alpha virt. eigenvalues --    0.07027   0.07728   0.08049   0.08374   0.08761
 Alpha virt. eigenvalues --    0.10516   0.11667   0.11927   0.12089   0.12157

 Mulliken charges:
               1
     1  Mg   0.980451
     2  C   -0.031862
     3  C   -0.072778
     4  C   -0.065465
     5  C   -0.102076
     6  N   -0.282575
     7  C    0.010302
     8  C   -0.135488
     9  C   -0.085832
    10  C    0.000618
    11  C    0.018289
    12  C    0.070310
    13  C   -0.056612
    14  C    0.257637
    15  O   -0.263014
    16  O   -0.359401
    17  N   -0.514620
    18  C    0.177086
    19  C   -0.191153
    20  C   -0.051566
    21  C    0.163984
    22  C    0.088092
    23  C    0.007670
    24  O   -0.242782
    25  C    0.010859
    26  N   -0.364751
    27  C    0.046448
    28  C   -0.109040
    29  C   -0.090186
    30  C    0.074228
    31  C    0.026966
    32  C    0.010316
    33  C   -0.056106
    34  N   -0.408102
    35  C    0.124699
    36  C   -0.204012
    37  C   -0.024295
    38  C    0.182913
    39  C    0.079994
    40  C    0.120125
    41  O   -0.193457
    42  C   -0.115336
    43  C    0.278890
    44  O   -0.256808
    45  O   -0.362591
    46  C    0.133997
    47  C    0.242231
    48  C   -0.166296
    49  C   -0.208642
    50  C    0.043230
    51  C    0.016651
    52  C   -0.025158
    53  C    0.000052
    54  C   -0.197073
    55  C    0.013027
    56  C    0.015594
    57  C   -0.027446
    58  C   -0.009437
    59  C   -0.159892
    60  C    0.001405
    61  C   -0.022261
    62  C   -0.014932
    63  C    0.008747
    64  C   -0.205780
    65  C   -0.016402
    66  C   -0.008694
    67  H   -0.007131
    68  H    0.019402
    69  H    0.006296
    70  H    0.027114
    71  H    0.026132
    72  H    0.042574
    73  H    0.036171
    74  H    0.033680
    75  H    0.031108
    76  H    0.075820
    77  H    0.042218
    78  H    0.044120
    79  H    0.044090
    80  H    0.058489
    81  H    0.053141
    82  H    0.063668
    83  H    0.055226
    84  H    0.038702
    85  H    0.043105
    86  H    0.026535
    87  H    0.052722
    88  H    0.034548
    89  H    0.043015
    90  H    0.044089
    91  H    0.038119
    92  H    0.036404
    93  H    0.030193
    94  H    0.040726
    95  H    0.063505
    96  H    0.026047
    97  H    0.055684
    98  H    0.070879
    99  H    0.086696
   100  H    0.051786
   101  H    0.044980
   102  H    0.080020
   103  H    0.050200
   104  H    0.035416
   105  H    0.034017
   106  H    0.063579
   107  H    0.060381
   108  H    0.015553
   109  H    0.033999
   110  H    0.010982
   111  H    0.019988
   112  H    0.017990
   113  H    0.003760
   114  H    0.019076
   115  H    0.014814
   116  H    0.029122
   117  H    0.026701
   118  H    0.012529
   119  H    0.033542
   120  H    0.018378
   121  H    0.025302
   122  H    0.018962
   123  H    0.012636
   124  H    0.012258
   125  H    0.029193
   126  H    0.025671
   127  H    0.037630
   128  H    0.014052
   129  H    0.009697
   130  H    0.017955
   131  H    0.024266
   132  H    0.008771
   133  H    0.016217
   134  H    0.023424
   135  H    0.031563
   136  H    0.026920
   137  H    0.034693
   138  H    0.019929
   139  H    0.018093
   140  H    0.029976
 Sum of Mulliken charges =  -0.00000

 Dipole moment (field-independent basis, Debye):
    X=             -2.0286    Y=              2.8092    Z=             -3.8575  Tot=              5.1853
 Quadrupole moment (field-independent basis, Debye-Ang):
   XX=           -374.2552   YY=           -411.1082   ZZ=           -395.0865
   XY=              6.6519   XZ=              1.1665   YZ=             -6.9664

 Normal termination of Gaussian 16 at Thu May  5 13:34:50 2022.
