 Gaussian 16, Revision A.03,
 Gaussian 16:  ES64L-G16RevA.03 25-Dec-2016

 --------------------
 #p ZINDO=(nstates=5)
 --------------------

 -----------------------------
 step_901_chromophore_22 ZINDO
 -----------------------------
 Symbolic Z-matrix:
 Charge =  0 Multiplicity = 1

                         Standard orientation:
 ---------------------------------------------------------------------
 Center     Atomic      Atomic             Coordinates (Angstroms)
 Number     Number       Type             X           Y           Z
 ---------------------------------------------------------------------
      1         12           0        6.201222    0.727383   -0.056803
      2          6           0        3.987330   -2.149490   -0.244667
      3          6           0        3.714312    2.434698   -1.620709
      4          6           0        8.207937    3.190800    0.151798
      5          6           0        8.744754   -1.583508    0.990794
      6          7           0        4.035880    0.122764   -0.842820
      7          6           0        3.324167   -1.001547   -0.661821
      8          6           0        1.997158   -0.926865   -1.476774
      9          6           0        2.138472    0.458854   -2.289310
     10          6           0        3.345899    1.086094   -1.463998
     11          6           0        2.306185    0.409081   -3.853630
     12          6           0        0.790964   -0.999882   -0.569336
     13          6           0       -0.218866   -1.987328   -1.105159
     14          6           0       -1.537443   -2.214698   -0.294917
     15          8           0       -1.676969   -2.586307    0.867435
     16          8           0       -2.557397   -2.100965   -1.184773
     17          7           0        5.932882    2.642989   -0.419054
     18          6           0        4.863211    3.164967   -1.119094
     19          6           0        5.126182    4.613465   -1.357488
     20          6           0        6.380878    4.874078   -0.788977
     21          6           0        6.884976    3.578942   -0.285226
     22          6           0        4.179351    5.514688   -2.195671
     23          6           0        7.080548    6.162532   -0.678078
     24          8           0        8.195490    6.180271   -0.177353
     25          6           0        6.587652    7.415135   -1.221457
     26          7           0        8.226276    0.765928    0.568204
     27          6           0        8.784742    1.965415    0.622106
     28          6           0       10.286160    1.842774    1.168583
     29          6           0       10.219263    0.357166    1.756617
     30          6           0        8.996199   -0.229872    1.148164
     31          6           0       11.391812    2.149912    0.130050
     32          6           0       10.132045    0.371984    3.333211
     33          6           0       11.253628   -0.438609    4.026974
     34          7           0        6.435886   -1.342320    0.179857
     35          6           0        7.463131   -2.086367    0.658368
     36          6           0        7.087889   -3.493370    0.717510
     37          6           0        5.771805   -3.501051    0.433042
     38          6           0        5.370987   -2.203127    0.085046
     39          6           0        7.924397   -4.598431    1.164438
     40          6           0        4.708210   -4.472957    0.250541
     41          8           0        4.657700   -5.673326    0.465399
     42          6           0        3.428423   -3.583521   -0.196322
     43          6           0        2.369943   -3.905727    0.853474
     44          8           0        2.149054   -3.167276    1.819409
     45          8           0        1.658507   -5.043876    0.566851
     46          6           0        0.499868   -5.330025    1.422809
     47          6           0       -3.844946   -2.666047   -0.748639
     48          6           0       -4.926887   -1.860954   -1.445759
     49          6           0       -6.261803   -2.183184   -1.411778
     50          6           0       -6.947355   -3.202739   -0.552828
     51          6           0       -7.219371   -1.196746   -2.138924
     52          6           0       -8.329742   -1.748696   -2.942638
     53          6           0       -9.613642   -0.917211   -2.837687
     54          6           0      -10.761314   -1.541954   -1.956817
     55          6           0      -11.828062   -2.126877   -2.895278
     56          6           0      -11.383767   -0.465425   -1.052195
     57          6           0      -10.632362   -0.386785    0.262211
     58          6           0      -10.271946    1.119725    0.626665
     59          6           0      -11.249116    1.854202    1.565577
     60          6           0      -10.580932    2.851264    2.518591
     61          6           0      -12.357310    2.617715    0.740053
     62          6           0      -13.337592    3.349762    1.610166
     63          6           0      -14.852430    2.882147    1.463045
     64          6           0      -15.566193    2.398040    2.765603
     65          6           0      -16.376903    1.102854    2.534702
     66          6           0      -16.471827    3.464899    3.400146
     67          1           0        2.909325    2.969074   -2.129989
     68          1           0        8.956765    3.983848    0.095870
     69          1           0        9.555301   -2.289440    1.182177
     70          1           0        2.083529   -1.779710   -2.149473
     71          1           0        1.301918    1.141716   -2.145939
     72          1           0        2.559943   -0.552344   -4.299466
     73          1           0        3.029584    1.144380   -4.207865
     74          1           0        1.351450    0.710095   -4.284301
     75          1           0        0.239965   -0.061345   -0.632957
     76          1           0        1.230844   -1.268895    0.390381
     77          1           0        0.327935   -2.930922   -1.112318
     78          1           0       -0.358738   -1.783492   -2.166344
     79          1           0        3.289885    4.987161   -2.538943
     80          1           0        4.798089    5.821394   -3.039072
     81          1           0        3.907740    6.359833   -1.562578
     82          1           0        6.504375    7.411731   -2.308519
     83          1           0        7.239212    8.207001   -0.852754
     84          1           0        5.607911    7.629891   -0.795766
     85          1           0       10.330546    2.625061    1.925710
     86          1           0       11.060693   -0.190900    1.331793
     87          1           0       11.093646    2.211728   -0.917476
     88          1           0       12.187700    1.418618    0.271203
     89          1           0       11.747637    3.134430    0.433852
     90          1           0        9.157760   -0.035857    3.603967
     91          1           0       10.258703    1.383742    3.717593
     92          1           0       12.087261   -0.405513    3.325485
     93          1           0       10.931613   -1.469046    4.180635
     94          1           0       11.447706   -0.118649    5.050499
     95          1           0        7.503919   -4.988773    2.090737
     96          1           0        8.987106   -4.412096    1.324779
     97          1           0        7.810046   -5.334508    0.369278
     98          1           0        3.089617   -3.905625   -1.180988
     99          1           0        0.286886   -4.669200    2.263135
    100          1           0        0.659671   -6.359605    1.743138
    101          1           0       -0.377015   -5.357454    0.775976
    102          1           0       -4.014629   -2.711725    0.326234
    103          1           0       -3.884705   -3.656527   -1.201874
    104          1           0       -4.579562   -0.970548   -1.968962
    105          1           0       -6.272361   -3.429570    0.272381
    106          1           0       -7.005228   -4.050146   -1.235372
    107          1           0       -7.893752   -2.818917   -0.169692
    108          1           0       -6.666933   -0.603747   -2.868104
    109          1           0       -7.672592   -0.478408   -1.456117
    110          1           0       -8.461780   -2.790802   -2.654568
    111          1           0       -8.046973   -1.740209   -3.995918
    112          1           0       -9.897951   -0.627696   -3.849394
    113          1           0       -9.391289    0.056724   -2.400120
    114          1           0      -10.430241   -2.369486   -1.329845
    115          1           0      -11.371957   -2.255390   -3.877153
    116          1           0      -12.689246   -1.485468   -3.082367
    117          1           0      -12.163166   -3.110008   -2.565878
    118          1           0      -12.340472   -0.906074   -0.771817
    119          1           0      -11.457190    0.509245   -1.535989
    120          1           0       -9.704487   -0.944828    0.140517
    121          1           0      -11.256378   -0.791991    1.058357
    122          1           0      -10.030833    1.775935   -0.210394
    123          1           0       -9.347267    0.902348    1.160871
    124          1           0      -11.822992    1.080931    2.075963
    125          1           0      -10.758067    3.885200    2.221188
    126          1           0       -9.497183    2.738946    2.547370
    127          1           0      -10.920933    2.789824    3.552320
    128          1           0      -12.923219    1.945360    0.094110
    129          1           0      -11.920465    3.337773    0.047206
    130          1           0      -13.342781    4.370049    1.227386
    131          1           0      -12.956787    3.347590    2.631192
    132          1           0      -15.010570    2.057614    0.767831
    133          1           0      -15.383478    3.712146    0.998126
    134          1           0      -14.813756    2.245718    3.539372
    135          1           0      -16.933602    0.833551    3.432813
    136          1           0      -15.637658    0.335567    2.307246
    137          1           0      -17.057966    1.144986    1.685087
    138          1           0      -16.410705    3.448574    4.488166
    139          1           0      -17.538749    3.264002    3.303854
    140          1           0      -16.204873    4.441629    2.996453
 ---------------------------------------------------------------------

 SCF Done:  E(RZINDO/S) =  -474.349252913     A.U. after   19 cycles

 Excitation energies and oscillator strengths:

 Excited State   1:      Singlet-A      1.2768 eV  971.03 nm  f=0.5561  <S**2>=0.000
     175 ->178         0.21434
     176 ->177         0.65655
 This state for optimization and/or second-order correction.
 Total Energy, E(CIS/TDA) =  -474.302330326
 Copying the excited state density for this state as the 1-particle RhoCI density.

 Excited State   2:      Singlet-A      1.8857 eV  657.51 nm  f=0.0191  <S**2>=0.000
     175 ->177         0.52573
     176 ->178        -0.45119

 Excited State   3:      Singlet-A      2.8752 eV  431.22 nm  f=0.0146  <S**2>=0.000
     168 ->177         0.13243
     168 ->179         0.14808
     168 ->180         0.16108
     169 ->177         0.26702
     169 ->179         0.33372
     169 ->180         0.32098
     169 ->183         0.11788
     169 ->186         0.16728
     169 ->188        -0.13926

 Excited State   4:      Singlet-A      2.9334 eV  422.67 nm  f=0.4793  <S**2>=0.000
     168 ->179        -0.16290
     175 ->177         0.27384
     176 ->178         0.36070
     176 ->179         0.41052

 Excited State   5:      Singlet-A      3.0339 eV  408.66 nm  f=0.2944  <S**2>=0.000
     168 ->177         0.24770
     168 ->178        -0.15028
     168 ->179        -0.31484
     168 ->180         0.25257
     168 ->186        -0.16642
     169 ->177        -0.11027
     169 ->179         0.15827
     169 ->180        -0.10398
     175 ->177        -0.18895
     176 ->178        -0.23009

 The electronic state is 1-A.
 Alpha  occ. eigenvalues --   -1.84524  -1.80728  -1.79301  -1.72845  -1.70997
 Alpha  occ. eigenvalues --   -1.70208  -1.66568  -1.61436  -1.61383  -1.57255
 Alpha  occ. eigenvalues --   -1.54665  -1.51566  -1.49752  -1.48346  -1.45606
 Alpha  occ. eigenvalues --   -1.44525  -1.42239  -1.39576  -1.39466  -1.37955
 Alpha  occ. eigenvalues --   -1.35447  -1.35024  -1.34552  -1.30632  -1.28897
 Alpha  occ. eigenvalues --   -1.27977  -1.23922  -1.21979  -1.21051  -1.17928
 Alpha  occ. eigenvalues --   -1.16535  -1.15257  -1.14976  -1.13587  -1.12836
 Alpha  occ. eigenvalues --   -1.12306  -1.11332  -1.10859  -1.04787  -1.03618
 Alpha  occ. eigenvalues --   -1.02479  -1.00899  -0.98818  -0.97802  -0.96800
 Alpha  occ. eigenvalues --   -0.95869  -0.93619  -0.92759  -0.92447  -0.91475
 Alpha  occ. eigenvalues --   -0.90200  -0.89642  -0.88440  -0.88272  -0.86906
 Alpha  occ. eigenvalues --   -0.86742  -0.85054  -0.83329  -0.82134  -0.79970
 Alpha  occ. eigenvalues --   -0.79720  -0.78978  -0.77430  -0.77220  -0.75797
 Alpha  occ. eigenvalues --   -0.74966  -0.74314  -0.74133  -0.73865  -0.72751
 Alpha  occ. eigenvalues --   -0.72267  -0.72227  -0.71092  -0.70996  -0.70232
 Alpha  occ. eigenvalues --   -0.69497  -0.69376  -0.69177  -0.68439  -0.68030
 Alpha  occ. eigenvalues --   -0.67778  -0.67110  -0.66288  -0.66022  -0.65819
 Alpha  occ. eigenvalues --   -0.65118  -0.64473  -0.64382  -0.63939  -0.63713
 Alpha  occ. eigenvalues --   -0.63370  -0.63016  -0.62854  -0.62561  -0.62208
 Alpha  occ. eigenvalues --   -0.61869  -0.61526  -0.61147  -0.60784  -0.60063
 Alpha  occ. eigenvalues --   -0.59226  -0.59183  -0.58511  -0.58135  -0.58022
 Alpha  occ. eigenvalues --   -0.57402  -0.57262  -0.56909  -0.56586  -0.56260
 Alpha  occ. eigenvalues --   -0.56095  -0.55967  -0.55057  -0.54613  -0.54318
 Alpha  occ. eigenvalues --   -0.54112  -0.53437  -0.53285  -0.52815  -0.52559
 Alpha  occ. eigenvalues --   -0.52391  -0.52109  -0.51807  -0.51508  -0.51332
 Alpha  occ. eigenvalues --   -0.51247  -0.51200  -0.50571  -0.50235  -0.50107
 Alpha  occ. eigenvalues --   -0.49955  -0.49780  -0.49683  -0.49460  -0.49098
 Alpha  occ. eigenvalues --   -0.48857  -0.48539  -0.48347  -0.48166  -0.47639
 Alpha  occ. eigenvalues --   -0.47456  -0.47413  -0.47126  -0.46677  -0.46319
 Alpha  occ. eigenvalues --   -0.46206  -0.45562  -0.45443  -0.45227  -0.45181
 Alpha  occ. eigenvalues --   -0.45001  -0.44664  -0.44306  -0.44054  -0.43724
 Alpha  occ. eigenvalues --   -0.43298  -0.42844  -0.42494  -0.42347  -0.41766
 Alpha  occ. eigenvalues --   -0.41455  -0.41344  -0.40554  -0.38724  -0.38231
 Alpha  occ. eigenvalues --   -0.37887  -0.36310  -0.34910  -0.34748  -0.34395
 Alpha  occ. eigenvalues --   -0.33643  -0.32894  -0.32061  -0.31588  -0.26053
 Alpha  occ. eigenvalues --   -0.21418
 Alpha virt. eigenvalues --   -0.07832  -0.02103  -0.00298   0.01237   0.02021
 Alpha virt. eigenvalues --    0.03058   0.03276   0.03465   0.04422   0.05130
 Alpha virt. eigenvalues --    0.06499   0.06656   0.07234   0.07711   0.07973

 Mulliken charges:
               1
     1  Mg   0.435053
     2  C   -0.025678
     3  C   -0.079088
     4  C   -0.087555
     5  C   -0.077316
     6  N   -0.275745
     7  C    0.103042
     8  C    0.003348
     9  C   -0.007818
    10  C    0.113019
    11  C   -0.049088
    12  C   -0.019115
    13  C    0.004111
    14  C    0.464897
    15  O   -0.511477
    16  O   -0.270417
    17  N   -0.298648
    18  C    0.086678
    19  C    0.007245
    20  C   -0.040392
    21  C    0.152210
    22  C   -0.042480
    23  C    0.333293
    24  O   -0.536475
    25  C   -0.024723
    26  N   -0.273234
    27  C    0.141381
    28  C   -0.007036
    29  C    0.006131
    30  C    0.124043
    31  C   -0.048761
    32  C   -0.027259
    33  C   -0.062705
    34  N   -0.314563
    35  C    0.101811
    36  C    0.033208
    37  C   -0.040690
    38  C    0.097542
    39  C   -0.036509
    40  C    0.324706
    41  O   -0.509176
    42  C    0.047894
    43  C    0.485797
    44  O   -0.529471
    45  O   -0.259234
    46  C    0.076346
    47  C    0.102005
    48  C   -0.093320
    49  C   -0.024931
    50  C   -0.039217
    51  C   -0.027348
    52  C   -0.028407
    53  C   -0.035868
    54  C   -0.011412
    55  C   -0.061783
    56  C   -0.036012
    57  C   -0.041251
    58  C   -0.044336
    59  C   -0.005736
    60  C   -0.050970
    61  C   -0.034854
    62  C   -0.038967
    63  C   -0.039691
    64  C   -0.011286
    65  C   -0.052753
    66  C   -0.060938
    67  H    0.025769
    68  H    0.036920
    69  H    0.032645
    70  H    0.026996
    71  H    0.025071
    72  H    0.025747
    73  H    0.023282
    74  H    0.014168
    75  H    0.026829
    76  H    0.055974
    77  H    0.034990
    78  H    0.033690
    79  H    0.031963
    80  H    0.033247
    81  H    0.033476
    82  H    0.042666
    83  H    0.037122
    84  H    0.027850
    85  H    0.033806
    86  H    0.031536
    87  H    0.032490
    88  H    0.020386
    89  H    0.020822
    90  H    0.028627
    91  H    0.025407
    92  H    0.025622
    93  H    0.014518
    94  H    0.024322
    95  H    0.038414
    96  H    0.021636
    97  H    0.033827
    98  H    0.053886
    99  H    0.065522
   100  H    0.033719
   101  H    0.030822
   102  H    0.069019
   103  H    0.041821
   104  H    0.041661
   105  H    0.023022
   106  H    0.038075
   107  H    0.035421
   108  H    0.012070
   109  H    0.028057
   110  H    0.018901
   111  H    0.012168
   112  H    0.019190
   113  H    0.011076
   114  H    0.027383
   115  H    0.009627
   116  H    0.020324
   117  H    0.015499
   118  H    0.011860
   119  H    0.032967
   120  H    0.021600
   121  H    0.024819
   122  H    0.026915
   123  H    0.005582
   124  H    0.022187
   125  H    0.018047
   126  H    0.013935
   127  H    0.018608
   128  H    0.012331
   129  H    0.014143
   130  H    0.012398
   131  H    0.030701
   132  H    0.018407
   133  H    0.017084
   134  H    0.020287
   135  H    0.017876
   136  H    0.010489
   137  H    0.023424
   138  H    0.012360
   139  H    0.016661
   140  H    0.020206
 Sum of Mulliken charges =  -0.00000

 Dipole moment (field-independent basis, Debye):
    X=             -2.5977    Y=              3.7816    Z=             -6.6994  Tot=              8.1198
 N-N= 4.198478562205D+03 E-N= 0.000000000000D+00  KE=-9.071940486090D+03
 Leave Link  601 at Thu May  5 13:45:47 2022, MaxMem=  6710886400 cpu:               0.9 elap:               0.1
 (Enter /sw/apps/gaussian-16.0/g16/l9999.exe)
 1\1\GINC-BP1-COMPUTE168\SP\RZINDO CIS\STO-3G\C55H74Mg1N4O6\OF15641\05-
 May-2022\0\\#p ZINDO=(nstates=5)\\step_901_chromophore_22 ZINDO\\0,1\M
 g,0,8.562,48.489,25.25\C,0,6.331,48.556,28.119\C,0,11.,49.401,27.434\C
 ,0,10.44,48.405,22.68\C,0,5.602,48.152,23.242\N,0,8.591,48.926,27.591\
 C,0,7.648,48.731,28.527\C,0,8.141,49.281,29.9\C,0,9.556,49.965,29.539\
 C,0,9.765,49.314,28.102\C,0,9.688,51.531,29.628\C,0,8.223,48.182,30.93
 4\C,0,7.581,48.621,32.229\C,0,7.554,47.612,33.424\O,0,7.066,46.486,33.

 Normal termination of Gaussian 16 at Thu May  5 13:45:47 2022.
