 Gaussian 16, Revision A.03,
 Gaussian 16:  ES64L-G16RevA.03 25-Dec-2016

 ------------------------------
 #p blyp/Def2SVP td=(nstates=5)
 ------------------------------

 --------------------------------------------------
 step_1401_chromophore_6 TDDFT with blyp functional
 --------------------------------------------------
 Symbolic Z-matrix:
 Charge =  0 Multiplicity = 1

                         Standard orientation:
 ---------------------------------------------------------------------
 Center     Atomic      Atomic             Coordinates (Angstroms)
 Number     Number       Type             X           Y           Z
 ---------------------------------------------------------------------
      1         12           0        4.838527    1.288476    0.434737
      2          6           0        4.303409   -2.224491    0.106823
      3          6           0        1.533245    1.707585    0.053202
      4          6           0        5.408039    4.415296   -0.161932
      5          6           0        8.308722    0.492921   -0.025145
      6          7           0        3.146738   -0.150013   -0.120429
      7          6           0        3.086194   -1.511476    0.106647
      8          6           0        1.678903   -2.017305    0.280710
      9          6           0        0.865982   -0.719714   -0.045581
     10          6           0        1.932964    0.385280    0.016746
     11          6           0        0.100191   -0.775754   -1.377609
     12          6           0        1.362134   -2.683455    1.663330
     13          6           0        0.583025   -4.008273    1.564768
     14          6           0       -0.171206   -4.388809    0.266648
     15          8           0        0.213815   -5.227012   -0.543688
     16          8           0       -1.350055   -3.682895    0.104187
     17          7           0        3.592980    2.928766    0.200198
     18          6           0        2.293079    2.878713    0.150906
     19          6           0        1.761656    4.239729    0.281974
     20          6           0        2.893239    5.091330    0.123794
     21          6           0        4.020296    4.143370    0.053670
     22          6           0        0.308124    4.614100    0.535480
     23          6           0        3.039933    6.590088    0.188940
     24          8           0        4.145139    7.123903    0.210441
     25          6           0        1.803637    7.522956    0.502998
     26          7           0        6.585289    2.272114    0.016975
     27          6           0        6.566654    3.596083   -0.258327
     28          6           0        8.013118    4.213240   -0.550224
     29          6           0        8.848476    2.953667   -0.414530
     30          6           0        7.910104    1.826115   -0.057290
     31          6           0        8.093984    4.781337   -2.071769
     32          6           0       10.106847    3.026700    0.505446
     33          6           0       10.020769    2.530493    1.892404
     34          7           0        6.130199   -0.487230    0.222934
     35          6           0        7.518712   -0.651115    0.177738
     36          6           0        7.831909   -2.003758    0.128969
     37          6           0        6.614834   -2.661952    0.082008
     38          6           0        5.611747   -1.695614    0.105626
     39          6           0        9.234853   -2.723848    0.120217
     40          6           0        6.029280   -3.947373   -0.005909
     41          8           0        6.539669   -5.118018   -0.085290
     42          6           0        4.502522   -3.737231    0.185631
     43          6           0        3.835241   -4.520443   -0.941898
     44          8           0        3.761353   -4.320558   -2.162970
     45          8           0        3.483067   -5.700584   -0.405919
     46          6           0        3.219720   -6.797490   -1.287437
     47          6           0       -2.158513   -4.025399   -1.010871
     48          6           0       -3.481145   -3.377516   -0.698363
     49          6           0       -4.718477   -3.923858   -0.726700
     50          6           0       -4.881144   -5.356100   -0.589931
     51          6           0       -5.907327   -2.973864   -0.603486
     52          6           0       -6.324355   -2.644942    0.798614
     53          6           0       -7.657201   -3.301744    1.182642
     54          6           0       -8.549074   -2.232823    1.822258
     55          6           0       -8.606837   -2.344370    3.407168
     56          6           0       -9.957051   -2.129173    1.287421
     57          6           0      -10.246334   -0.767040    0.526352
     58          6           0      -11.249556   -0.756886   -0.599161
     59          6           0      -12.416161    0.273773   -0.540261
     60          6           0      -13.564280   -0.309383   -1.400772
     61          6           0      -12.072372    1.780553   -1.026785
     62          6           0      -12.089177    2.840380    0.082083
     63          6           0      -11.123792    3.994880   -0.199936
     64          6           0      -11.761826    5.415492   -0.252252
     65          6           0      -10.905413    6.416749    0.457470
     66          6           0      -12.270311    5.867783   -1.668538
     67          1           0        0.456649    1.884420    0.006586
     68          1           0        5.693433    5.452217   -0.354030
     69          1           0        9.373631    0.290250   -0.154694
     70          1           0        1.593260   -2.870345   -0.392543
     71          1           0        0.119423   -0.528371    0.724829
     72          1           0        0.288212   -1.607225   -2.056486
     73          1           0        0.304606    0.178847   -1.862915
     74          1           0       -0.969481   -0.701983   -1.180029
     75          1           0        0.758333   -2.063481    2.326406
     76          1           0        2.322498   -2.708163    2.178775
     77          1           0       -0.233098   -4.073403    2.284153
     78          1           0        1.358652   -4.737539    1.793900
     79          1           0       -0.399739    3.800678    0.379724
     80          1           0        0.099153    5.397435   -0.194647
     81          1           0        0.286543    4.933489    1.577890
     82          1           0        1.375510    7.253903    1.468770
     83          1           0        1.124542    7.505774   -0.349996
     84          1           0        2.149552    8.549032    0.626979
     85          1           0        8.262549    4.923247    0.238053
     86          1           0        9.205655    2.639976   -1.395897
     87          1           0        9.018946    4.493475   -2.570299
     88          1           0        8.233749    5.861874   -2.042799
     89          1           0        7.251278    4.656470   -2.751207
     90          1           0       10.341029    4.077945    0.673100
     91          1           0       11.002975    2.597470    0.056752
     92          1           0        9.046768    2.811058    2.293904
     93          1           0       10.805929    2.922454    2.538522
     94          1           0        9.959218    1.442809    1.946003
     95          1           0        9.814601   -2.745817    1.043257
     96          1           0        9.788996   -2.330706   -0.731665
     97          1           0        9.116686   -3.763829   -0.184337
     98          1           0        4.161096   -4.149055    1.135482
     99          1           0        4.147561   -7.250884   -1.635233
    100          1           0        2.733782   -6.387290   -2.172782
    101          1           0        2.665537   -7.525534   -0.695721
    102          1           0       -2.194887   -5.089492   -1.245200
    103          1           0       -1.828494   -3.391568   -1.832985
    104          1           0       -3.444634   -2.290311   -0.769014
    105          1           0       -5.693157   -5.464032    0.129605
    106          1           0       -3.995727   -5.899095   -0.258495
    107          1           0       -5.036622   -5.856687   -1.545873
    108          1           0       -6.604688   -3.241800   -1.396389
    109          1           0       -5.554390   -2.015727   -0.985207
    110          1           0       -6.226979   -1.560171    0.837341
    111          1           0       -5.610538   -3.124153    1.469146
    112          1           0       -7.497861   -4.071275    1.938464
    113          1           0       -8.186641   -3.690613    0.313400
    114          1           0       -8.114161   -1.244694    1.669363
    115          1           0       -7.708189   -2.910684    3.649812
    116          1           0       -9.539004   -2.853325    3.653623
    117          1           0       -8.521615   -1.358739    3.863553
    118          1           0      -10.733067   -2.313798    2.029150
    119          1           0      -10.129619   -2.867758    0.504485
    120          1           0       -9.312684   -0.477483    0.043861
    121          1           0      -10.374310    0.018590    1.271465
    122          1           0      -11.628725   -1.775512   -0.679914
    123          1           0      -10.640589   -0.586793   -1.487391
    124          1           0      -12.794394    0.339219    0.480414
    125          1           0      -14.023329    0.394340   -2.094884
    126          1           0      -14.317247   -0.529776   -0.644029
    127          1           0      -13.339023   -1.278870   -1.846432
    128          1           0      -12.731662    2.137970   -1.817828
    129          1           0      -11.134852    1.703930   -1.578199
    130          1           0      -11.875374    2.205902    0.941497
    131          1           0      -13.073531    3.295892    0.192901
    132          1           0      -10.617744    3.908765   -1.162352
    133          1           0      -10.326839    3.964909    0.542540
    134          1           0      -12.719368    5.312254    0.258148
    135          1           0      -11.135632    6.553377    1.513073
    136          1           0      -11.030183    7.382096   -0.032901
    137          1           0       -9.863313    6.109411    0.365356
    138          1           0      -13.275582    6.286229   -1.633632
    139          1           0      -12.203479    5.088334   -2.427077
    140          1           0      -11.592520    6.631599   -2.049739
 ---------------------------------------------------------------------

 SCF Done:  E(RB-LYP) =  -3007.33625080     A.U. after   21 cycles

 Excitation energies and oscillator strengths:

 Excited State   1:      Singlet-A      1.7004 eV  729.16 nm  f=0.0027  <S**2>=0.000
     244 -> 247        0.68245
     245 -> 247        0.17122
 This state for optimization and/or second-order correction.
 Total Energy, E(TD-HF/TD-DFT) =  -3007.27376342
 Copying the excited state density for this state as the 1-particle RhoCI density.

 Excited State   2:      Singlet-A      1.8000 eV  688.79 nm  f=0.2957  <S**2>=0.000
     245 -> 247        0.10184
     245 -> 248       -0.14265
     245 -> 249        0.11364
     246 -> 247        0.67568
     246 <- 247       -0.14491

 Excited State   3:      Singlet-A      1.9571 eV  633.51 nm  f=0.0990  <S**2>=0.000
     242 -> 247       -0.10705
     243 -> 247        0.22508
     244 -> 247       -0.14645
     245 -> 247        0.59408
     246 -> 247       -0.13715
     246 -> 248        0.16200
     246 -> 249       -0.10974

 Excited State   4:      Singlet-A      1.9982 eV  620.48 nm  f=0.0113  <S**2>=0.000
     243 -> 247        0.66705
     245 -> 247       -0.20584

 Excited State   5:      Singlet-A      2.3081 eV  537.18 nm  f=0.0010  <S**2>=0.000
     241 -> 247        0.56197
     242 -> 247        0.42450

 The electronic state is 1-A.
 Alpha  occ. eigenvalues --  -46.28463 -18.82402 -18.80163 -18.77299 -18.76001
 Alpha  occ. eigenvalues --  -18.75061 -18.74674 -14.03320 -14.03276 -14.01414
 Alpha  occ. eigenvalues --  -14.00044 -10.04688 -10.02470 -10.00540  -9.98698
 Alpha  occ. eigenvalues --   -9.97775  -9.96863  -9.96495  -9.96226  -9.96191
 Alpha  occ. eigenvalues --   -9.96110  -9.95705  -9.95232  -9.94917  -9.94591
 Alpha  occ. eigenvalues --   -9.94590  -9.94066  -9.93993  -9.93940  -9.93888
 Alpha  occ. eigenvalues --   -9.93819  -9.93660  -9.93465  -9.93300  -9.93233
 Alpha  occ. eigenvalues --   -9.93213  -9.92861  -9.92783  -9.92633  -9.92604
 Alpha  occ. eigenvalues --   -9.92455  -9.92438  -9.92313  -9.92297  -9.92150
 Alpha  occ. eigenvalues --   -9.92067  -9.92064  -9.91971  -9.91963  -9.91865
 Alpha  occ. eigenvalues --   -9.91780  -9.91578  -9.91527  -9.91214  -9.91194
 Alpha  occ. eigenvalues --   -9.91171  -9.91159  -9.91118  -9.91113  -9.91110
 Alpha  occ. eigenvalues --   -9.91106  -9.91012  -9.90994  -9.90769  -9.90430
 Alpha  occ. eigenvalues --   -9.90065  -2.93020  -1.73410  -1.72914  -1.72739
 Alpha  occ. eigenvalues --   -0.98476  -0.96998  -0.91693  -0.90342  -0.89262
 Alpha  occ. eigenvalues --   -0.87859  -0.87398  -0.86628  -0.86065  -0.85261
 Alpha  occ. eigenvalues --   -0.75252  -0.74700  -0.73216  -0.72909  -0.72898
 Alpha  occ. eigenvalues --   -0.72375  -0.71956  -0.71082  -0.70958  -0.70383
 Alpha  occ. eigenvalues --   -0.69643  -0.69345  -0.68538  -0.67539  -0.67303
 Alpha  occ. eigenvalues --   -0.66850  -0.66056  -0.65364  -0.64755  -0.64699
 Alpha  occ. eigenvalues --   -0.64266  -0.62966  -0.62308  -0.61769  -0.61258
 Alpha  occ. eigenvalues --   -0.60449  -0.60293  -0.59656  -0.59419  -0.59058
 Alpha  occ. eigenvalues --   -0.58496  -0.58030  -0.56555  -0.55953  -0.54815
 Alpha  occ. eigenvalues --   -0.54186  -0.53689  -0.53545  -0.52493  -0.51865
 Alpha  occ. eigenvalues --   -0.51452  -0.50981  -0.50689  -0.50043  -0.49967
 Alpha  occ. eigenvalues --   -0.49855  -0.49609  -0.49090  -0.47466  -0.47012
 Alpha  occ. eigenvalues --   -0.46884  -0.46050  -0.45709  -0.45046  -0.44247
 Alpha  occ. eigenvalues --   -0.43986  -0.43440  -0.43066  -0.42883  -0.42657
 Alpha  occ. eigenvalues --   -0.42481  -0.41605  -0.41411  -0.41208  -0.40986
 Alpha  occ. eigenvalues --   -0.40780  -0.40610  -0.40443  -0.40269  -0.40125
 Alpha  occ. eigenvalues --   -0.40010  -0.39718  -0.39642  -0.39358  -0.39276
 Alpha  occ. eigenvalues --   -0.39105  -0.38948  -0.38752  -0.38401  -0.38056
 Alpha  occ. eigenvalues --   -0.37876  -0.37858  -0.37727  -0.37583  -0.37556
 Alpha  occ. eigenvalues --   -0.37113  -0.37022  -0.36832  -0.36751  -0.36436
 Alpha  occ. eigenvalues --   -0.36315  -0.36292  -0.35956  -0.35866  -0.35753
 Alpha  occ. eigenvalues --   -0.35439  -0.35217  -0.35151  -0.34822  -0.34722
 Alpha  occ. eigenvalues --   -0.34661  -0.34516  -0.34290  -0.34155  -0.34035
 Alpha  occ. eigenvalues --   -0.33768  -0.33478  -0.33188  -0.33140  -0.32833
 Alpha  occ. eigenvalues --   -0.32727  -0.32321  -0.32129  -0.32012  -0.31947
 Alpha  occ. eigenvalues --   -0.31870  -0.31832  -0.31721  -0.31620  -0.31473
 Alpha  occ. eigenvalues --   -0.31435  -0.31312  -0.30833  -0.30732  -0.30648
 Alpha  occ. eigenvalues --   -0.30430  -0.30314  -0.29922  -0.29782  -0.29752
 Alpha  occ. eigenvalues --   -0.29525  -0.29335  -0.29217  -0.29109  -0.28867
 Alpha  occ. eigenvalues --   -0.28571  -0.28444  -0.27883  -0.27840  -0.27668
 Alpha  occ. eigenvalues --   -0.27579  -0.27358  -0.27039  -0.26572  -0.26473
 Alpha  occ. eigenvalues --   -0.26282  -0.26223  -0.25682  -0.25624  -0.25508
 Alpha  occ. eigenvalues --   -0.24940  -0.24856  -0.24006  -0.23525  -0.23491
 Alpha  occ. eigenvalues --   -0.22963  -0.22145  -0.22007  -0.21327  -0.20411
 Alpha  occ. eigenvalues --   -0.20178  -0.20048  -0.18883  -0.17825  -0.17124
 Alpha  occ. eigenvalues --   -0.15941
 Alpha virt. eigenvalues --   -0.11663  -0.06786  -0.06210  -0.04869  -0.04200
 Alpha virt. eigenvalues --   -0.03651  -0.02258  -0.01570  -0.01207   0.00355
 Alpha virt. eigenvalues --    0.01109   0.01804   0.02004   0.02421   0.02865

 Mulliken charges:
               1
     1  Mg   0.703591
     2  C    0.018333
     3  C   -0.089564
     4  C   -0.018164
     5  C   -0.071457
     6  N   -0.193410
     7  C   -0.101817
     8  C   -0.004339
     9  C    0.007724
    10  C    0.051212
    11  C    0.131842
    12  C    0.130214
    13  C    0.146717
    14  C    0.060105
    15  O   -0.191438
    16  O   -0.272150
    17  N   -0.199638
    18  C    0.110513
    19  C   -0.172389
    20  C    0.055102
    21  C    0.074239
    22  C    0.185187
    23  C   -0.083561
    24  O   -0.162222
    25  C    0.105232
    26  N   -0.257601
    27  C   -0.017821
    28  C    0.043417
    29  C    0.092693
    30  C    0.005202
    31  C    0.096724
    32  C    0.073497
    33  C    0.096537
    34  N   -0.206669
    35  C    0.089551
    36  C   -0.169101
    37  C    0.144401
    38  C    0.060830
    39  C    0.152062
    40  C   -0.045574
    41  O   -0.197277
    42  C    0.044005
    43  C    0.110854
    44  O   -0.206356
    45  O   -0.244819
    46  C    0.222701
    47  C    0.336498
    48  C   -0.096180
    49  C   -0.200103
    50  C    0.156558
    51  C    0.134305
    52  C    0.099806
    53  C    0.142363
    54  C   -0.114148
    55  C    0.102550
    56  C    0.118768
    57  C    0.028344
    58  C    0.122868
    59  C   -0.077264
    60  C    0.106164
    61  C    0.069386
    62  C    0.097413
    63  C    0.109271
    64  C   -0.116507
    65  C    0.133358
    66  C    0.095450
    67  H   -0.074453
    68  H   -0.050267
    69  H   -0.060092
    70  H    0.019188
    71  H   -0.034704
    72  H    0.021522
    73  H   -0.023296
    74  H   -0.016642
    75  H   -0.029440
    76  H   -0.023608
    77  H   -0.005639
    78  H    0.005137
    79  H   -0.011702
    80  H    0.009388
    81  H    0.018036
    82  H    0.011335
    83  H    0.010663
    84  H   -0.012118
    85  H   -0.005547
    86  H   -0.024168
    87  H   -0.008039
    88  H   -0.013367
    89  H    0.013494
    90  H   -0.035287
    91  H   -0.026819
    92  H   -0.025832
    93  H   -0.005042
    94  H   -0.021916
    95  H    0.011833
    96  H   -0.010337
    97  H   -0.004736
    98  H    0.005388
    99  H    0.006561
   100  H    0.018810
   101  H    0.009937
   102  H    0.001091
   103  H   -0.012903
   104  H   -0.045199
   105  H   -0.001918
   106  H   -0.012807
   107  H   -0.003444
   108  H   -0.027483
   109  H   -0.055656
   110  H   -0.014564
   111  H   -0.021291
   112  H   -0.028607
   113  H   -0.026177
   114  H   -0.029526
   115  H   -0.026815
   116  H   -0.006286
   117  H   -0.012002
   118  H   -0.033963
   119  H   -0.049335
   120  H   -0.044681
   121  H   -0.032620
   122  H   -0.033624
   123  H   -0.034588
   124  H   -0.030125
   125  H   -0.014961
   126  H   -0.028786
   127  H   -0.015892
   128  H   -0.035717
   129  H   -0.038933
   130  H   -0.025180
   131  H   -0.026527
   132  H   -0.034022
   133  H   -0.040136
   134  H   -0.040252
   135  H   -0.012642
   136  H   -0.029637
   137  H   -0.017698
   138  H   -0.005788
   139  H   -0.018700
   140  H   -0.026864
 Sum of Mulliken charges =  -0.00000

 Dipole moment (field-independent basis, Debye):
    X=             -4.7851    Y=              3.9019    Z=              3.2542  Tot=              6.9794
 Quadrupole moment (field-independent basis, Debye-Ang):
   XX=           -390.8145   YY=           -435.1947   ZZ=           -405.7933
   XY=             29.9276   XZ=              9.2007   YZ=             -8.1796

 Normal termination of Gaussian 16 at Wed May  4 06:56:08 2022.
