 Gaussian 16, Revision A.03,
 Gaussian 16:  ES64L-G16RevA.03 25-Dec-2016

 -----------------------------------
 #p cam-b3lyp/Def2SVP td=(nstates=5)
 -----------------------------------

 -------------------------------------------------------
 step_1401_chromophore_6 TDDFT with cam-b3lyp functional
 -------------------------------------------------------
 Symbolic Z-matrix:
 Charge =  0 Multiplicity = 1

                         Standard orientation:
 ---------------------------------------------------------------------
 Center     Atomic      Atomic             Coordinates (Angstroms)
 Number     Number       Type             X           Y           Z
 ---------------------------------------------------------------------
      1         12           0        4.838527    1.288476    0.434737
      2          6           0        4.303409   -2.224491    0.106823
      3          6           0        1.533245    1.707585    0.053202
      4          6           0        5.408039    4.415296   -0.161932
      5          6           0        8.308722    0.492921   -0.025145
      6          7           0        3.146738   -0.150013   -0.120429
      7          6           0        3.086194   -1.511476    0.106647
      8          6           0        1.678903   -2.017305    0.280710
      9          6           0        0.865982   -0.719714   -0.045581
     10          6           0        1.932964    0.385280    0.016746
     11          6           0        0.100191   -0.775754   -1.377609
     12          6           0        1.362134   -2.683455    1.663330
     13          6           0        0.583025   -4.008273    1.564768
     14          6           0       -0.171206   -4.388809    0.266648
     15          8           0        0.213815   -5.227012   -0.543688
     16          8           0       -1.350055   -3.682895    0.104187
     17          7           0        3.592980    2.928766    0.200198
     18          6           0        2.293079    2.878713    0.150906
     19          6           0        1.761656    4.239729    0.281974
     20          6           0        2.893239    5.091330    0.123794
     21          6           0        4.020296    4.143370    0.053670
     22          6           0        0.308124    4.614100    0.535480
     23          6           0        3.039933    6.590088    0.188940
     24          8           0        4.145139    7.123903    0.210441
     25          6           0        1.803637    7.522956    0.502998
     26          7           0        6.585289    2.272114    0.016975
     27          6           0        6.566654    3.596083   -0.258327
     28          6           0        8.013118    4.213240   -0.550224
     29          6           0        8.848476    2.953667   -0.414530
     30          6           0        7.910104    1.826115   -0.057290
     31          6           0        8.093984    4.781337   -2.071769
     32          6           0       10.106847    3.026700    0.505446
     33          6           0       10.020769    2.530493    1.892404
     34          7           0        6.130199   -0.487230    0.222934
     35          6           0        7.518712   -0.651115    0.177738
     36          6           0        7.831909   -2.003758    0.128969
     37          6           0        6.614834   -2.661952    0.082008
     38          6           0        5.611747   -1.695614    0.105626
     39          6           0        9.234853   -2.723848    0.120217
     40          6           0        6.029280   -3.947373   -0.005909
     41          8           0        6.539669   -5.118018   -0.085290
     42          6           0        4.502522   -3.737231    0.185631
     43          6           0        3.835241   -4.520443   -0.941898
     44          8           0        3.761353   -4.320558   -2.162970
     45          8           0        3.483067   -5.700584   -0.405919
     46          6           0        3.219720   -6.797490   -1.287437
     47          6           0       -2.158513   -4.025399   -1.010871
     48          6           0       -3.481145   -3.377516   -0.698363
     49          6           0       -4.718477   -3.923858   -0.726700
     50          6           0       -4.881144   -5.356100   -0.589931
     51          6           0       -5.907327   -2.973864   -0.603486
     52          6           0       -6.324355   -2.644942    0.798614
     53          6           0       -7.657201   -3.301744    1.182642
     54          6           0       -8.549074   -2.232823    1.822258
     55          6           0       -8.606837   -2.344370    3.407168
     56          6           0       -9.957051   -2.129173    1.287421
     57          6           0      -10.246334   -0.767040    0.526352
     58          6           0      -11.249556   -0.756886   -0.599161
     59          6           0      -12.416161    0.273773   -0.540261
     60          6           0      -13.564280   -0.309383   -1.400772
     61          6           0      -12.072372    1.780553   -1.026785
     62          6           0      -12.089177    2.840380    0.082083
     63          6           0      -11.123792    3.994880   -0.199936
     64          6           0      -11.761826    5.415492   -0.252252
     65          6           0      -10.905413    6.416749    0.457470
     66          6           0      -12.270311    5.867783   -1.668538
     67          1           0        0.456649    1.884420    0.006586
     68          1           0        5.693433    5.452217   -0.354030
     69          1           0        9.373631    0.290250   -0.154694
     70          1           0        1.593260   -2.870345   -0.392543
     71          1           0        0.119423   -0.528371    0.724829
     72          1           0        0.288212   -1.607225   -2.056486
     73          1           0        0.304606    0.178847   -1.862915
     74          1           0       -0.969481   -0.701983   -1.180029
     75          1           0        0.758333   -2.063481    2.326406
     76          1           0        2.322498   -2.708163    2.178775
     77          1           0       -0.233098   -4.073403    2.284153
     78          1           0        1.358652   -4.737539    1.793900
     79          1           0       -0.399739    3.800678    0.379724
     80          1           0        0.099153    5.397435   -0.194647
     81          1           0        0.286543    4.933489    1.577890
     82          1           0        1.375510    7.253903    1.468770
     83          1           0        1.124542    7.505774   -0.349996
     84          1           0        2.149552    8.549032    0.626979
     85          1           0        8.262549    4.923247    0.238053
     86          1           0        9.205655    2.639976   -1.395897
     87          1           0        9.018946    4.493475   -2.570299
     88          1           0        8.233749    5.861874   -2.042799
     89          1           0        7.251278    4.656470   -2.751207
     90          1           0       10.341029    4.077945    0.673100
     91          1           0       11.002975    2.597470    0.056752
     92          1           0        9.046768    2.811058    2.293904
     93          1           0       10.805929    2.922454    2.538522
     94          1           0        9.959218    1.442809    1.946003
     95          1           0        9.814601   -2.745817    1.043257
     96          1           0        9.788996   -2.330706   -0.731665
     97          1           0        9.116686   -3.763829   -0.184337
     98          1           0        4.161096   -4.149055    1.135482
     99          1           0        4.147561   -7.250884   -1.635233
    100          1           0        2.733782   -6.387290   -2.172782
    101          1           0        2.665537   -7.525534   -0.695721
    102          1           0       -2.194887   -5.089492   -1.245200
    103          1           0       -1.828494   -3.391568   -1.832985
    104          1           0       -3.444634   -2.290311   -0.769014
    105          1           0       -5.693157   -5.464032    0.129605
    106          1           0       -3.995727   -5.899095   -0.258495
    107          1           0       -5.036622   -5.856687   -1.545873
    108          1           0       -6.604688   -3.241800   -1.396389
    109          1           0       -5.554390   -2.015727   -0.985207
    110          1           0       -6.226979   -1.560171    0.837341
    111          1           0       -5.610538   -3.124153    1.469146
    112          1           0       -7.497861   -4.071275    1.938464
    113          1           0       -8.186641   -3.690613    0.313400
    114          1           0       -8.114161   -1.244694    1.669363
    115          1           0       -7.708189   -2.910684    3.649812
    116          1           0       -9.539004   -2.853325    3.653623
    117          1           0       -8.521615   -1.358739    3.863553
    118          1           0      -10.733067   -2.313798    2.029150
    119          1           0      -10.129619   -2.867758    0.504485
    120          1           0       -9.312684   -0.477483    0.043861
    121          1           0      -10.374310    0.018590    1.271465
    122          1           0      -11.628725   -1.775512   -0.679914
    123          1           0      -10.640589   -0.586793   -1.487391
    124          1           0      -12.794394    0.339219    0.480414
    125          1           0      -14.023329    0.394340   -2.094884
    126          1           0      -14.317247   -0.529776   -0.644029
    127          1           0      -13.339023   -1.278870   -1.846432
    128          1           0      -12.731662    2.137970   -1.817828
    129          1           0      -11.134852    1.703930   -1.578199
    130          1           0      -11.875374    2.205902    0.941497
    131          1           0      -13.073531    3.295892    0.192901
    132          1           0      -10.617744    3.908765   -1.162352
    133          1           0      -10.326839    3.964909    0.542540
    134          1           0      -12.719368    5.312254    0.258148
    135          1           0      -11.135632    6.553377    1.513073
    136          1           0      -11.030183    7.382096   -0.032901
    137          1           0       -9.863313    6.109411    0.365356
    138          1           0      -13.275582    6.286229   -1.633632
    139          1           0      -12.203479    5.088334   -2.427077
    140          1           0      -11.592520    6.631599   -2.049739
 ---------------------------------------------------------------------

 SCF Done:  E(RCAM-B3LYP) =  -3007.13737397     A.U. after   17 cycles

 Excitation energies and oscillator strengths:

 Excited State   1:      Singlet-A      1.7393 eV  712.84 nm  f=0.3987  <S**2>=0.000
     245 -> 248       -0.16709
     246 -> 247        0.68733
     245 <- 248       -0.10059
 This state for optimization and/or second-order correction.
 Total Energy, E(TD-HF/TD-DFT) =  -3007.07345593
 Copying the excited state density for this state as the 1-particle RhoCI density.

 Excited State   2:      Singlet-A      2.1936 eV  565.22 nm  f=0.1412  <S**2>=0.000
     245 -> 247        0.65520
     246 -> 248        0.24714

 Excited State   3:      Singlet-A      3.3197 eV  373.48 nm  f=0.0003  <S**2>=0.000
     243 -> 247        0.52129
     243 -> 249       -0.27766
     243 -> 251        0.25082
     244 -> 247        0.24905

 Excited State   4:      Singlet-A      3.3645 eV  368.50 nm  f=0.0022  <S**2>=0.000
     241 -> 247       -0.12346
     243 -> 247       -0.20785
     243 -> 249        0.11094
     243 -> 251       -0.10105
     244 -> 247        0.62700

 Excited State   5:      Singlet-A      3.5314 eV  351.09 nm  f=0.0573  <S**2>=0.000
     239 -> 247        0.18377
     239 -> 248       -0.10179
     239 -> 249        0.16642
     239 -> 251        0.11746
     240 -> 247        0.40342
     240 -> 248       -0.10851
     240 -> 249        0.20470
     240 -> 251        0.11350
     241 -> 247        0.25672
     246 -> 248       -0.27718

 The electronic state is 1-A.
 Alpha  occ. eigenvalues --  -46.90102 -19.25230 -19.22847 -19.20271 -19.19651
 Alpha  occ. eigenvalues --  -19.17925 -19.17399 -14.42185 -14.42167 -14.40047
 Alpha  occ. eigenvalues --  -14.38167 -10.40009 -10.37765 -10.36177 -10.33772
 Alpha  occ. eigenvalues --  -10.31740 -10.31638 -10.30933 -10.30918 -10.30764
 Alpha  occ. eigenvalues --  -10.30509 -10.30223 -10.29839 -10.28974 -10.28951
 Alpha  occ. eigenvalues --  -10.28248 -10.28192 -10.28103 -10.28073 -10.27966
 Alpha  occ. eigenvalues --  -10.27867 -10.27773 -10.27684 -10.27525 -10.27384
 Alpha  occ. eigenvalues --  -10.27054 -10.27008 -10.26951 -10.26751 -10.26676
 Alpha  occ. eigenvalues --  -10.26386 -10.26301 -10.26237 -10.26123 -10.25866
 Alpha  occ. eigenvalues --  -10.25809 -10.25717 -10.25576 -10.25550 -10.25511
 Alpha  occ. eigenvalues --  -10.25444 -10.25238 -10.25226 -10.25031 -10.24883
 Alpha  occ. eigenvalues --  -10.24859 -10.24843 -10.24838 -10.24802 -10.24776
 Alpha  occ. eigenvalues --  -10.24697 -10.24685 -10.24605 -10.24372 -10.24046
 Alpha  occ. eigenvalues --  -10.23575  -3.18556  -1.93425  -1.93017  -1.92854
 Alpha  occ. eigenvalues --   -1.16882  -1.15329  -1.10491  -1.08200  -1.07386
 Alpha  occ. eigenvalues --   -1.05700  -1.05130  -1.04323  -1.03527  -1.02692
 Alpha  occ. eigenvalues --   -0.92189  -0.91612  -0.89997  -0.89690  -0.89587
 Alpha  occ. eigenvalues --   -0.89118  -0.88809  -0.88004  -0.87692  -0.86899
 Alpha  occ. eigenvalues --   -0.85989  -0.85544  -0.84816  -0.83651  -0.83362
 Alpha  occ. eigenvalues --   -0.82964  -0.81993  -0.81399  -0.80739  -0.80534
 Alpha  occ. eigenvalues --   -0.80264  -0.79069  -0.77849  -0.77160  -0.76669
 Alpha  occ. eigenvalues --   -0.75860  -0.75593  -0.74853  -0.74707  -0.74350
 Alpha  occ. eigenvalues --   -0.73514  -0.72986  -0.71449  -0.70776  -0.69438
 Alpha  occ. eigenvalues --   -0.68996  -0.68200  -0.68104  -0.66870  -0.66100
 Alpha  occ. eigenvalues --   -0.65728  -0.65029  -0.64659  -0.64018  -0.63874
 Alpha  occ. eigenvalues --   -0.63678  -0.63608  -0.63043  -0.61227  -0.60744
 Alpha  occ. eigenvalues --   -0.60490  -0.59534  -0.59109  -0.58416  -0.57466
 Alpha  occ. eigenvalues --   -0.57301  -0.56859  -0.56216  -0.55865  -0.55708
 Alpha  occ. eigenvalues --   -0.55563  -0.54785  -0.54579  -0.54155  -0.53962
 Alpha  occ. eigenvalues --   -0.53618  -0.53330  -0.53144  -0.53050  -0.52755
 Alpha  occ. eigenvalues --   -0.52632  -0.52531  -0.52363  -0.52144  -0.51954
 Alpha  occ. eigenvalues --   -0.51821  -0.51488  -0.51295  -0.50959  -0.50487
 Alpha  occ. eigenvalues --   -0.50322  -0.50175  -0.50099  -0.50014  -0.49753
 Alpha  occ. eigenvalues --   -0.49532  -0.49347  -0.49298  -0.49110  -0.48945
 Alpha  occ. eigenvalues --   -0.48547  -0.48512  -0.48368  -0.48256  -0.47829
 Alpha  occ. eigenvalues --   -0.47650  -0.47094  -0.47031  -0.46650  -0.46585
 Alpha  occ. eigenvalues --   -0.46468  -0.46257  -0.46237  -0.46055  -0.45974
 Alpha  occ. eigenvalues --   -0.45865  -0.45110  -0.44913  -0.44765  -0.44655
 Alpha  occ. eigenvalues --   -0.44458  -0.44011  -0.43866  -0.43819  -0.43801
 Alpha  occ. eigenvalues --   -0.43616  -0.43458  -0.43324  -0.43175  -0.43115
 Alpha  occ. eigenvalues --   -0.42852  -0.42752  -0.42336  -0.42115  -0.42056
 Alpha  occ. eigenvalues --   -0.41729  -0.41635  -0.41199  -0.41141  -0.40934
 Alpha  occ. eigenvalues --   -0.40650  -0.40510  -0.40427  -0.40159  -0.40128
 Alpha  occ. eigenvalues --   -0.39566  -0.39540  -0.39246  -0.38853  -0.38772
 Alpha  occ. eigenvalues --   -0.38600  -0.38501  -0.37843  -0.37599  -0.37325
 Alpha  occ. eigenvalues --   -0.37110  -0.36989  -0.36706  -0.36490  -0.36270
 Alpha  occ. eigenvalues --   -0.35634  -0.35373  -0.34502  -0.34269  -0.34014
 Alpha  occ. eigenvalues --   -0.33999  -0.33461  -0.32455  -0.31639  -0.31404
 Alpha  occ. eigenvalues --   -0.30693  -0.29841  -0.29693  -0.29117  -0.23883
 Alpha  occ. eigenvalues --   -0.21332
 Alpha virt. eigenvalues --   -0.08786  -0.01299   0.00066   0.00712   0.02068
 Alpha virt. eigenvalues --    0.04077   0.05230   0.05766   0.06671   0.07131
 Alpha virt. eigenvalues --    0.07681   0.08264   0.08630   0.08963   0.09061

 Mulliken charges:
               1
     1  Mg   0.833511
     2  C   -0.006414
     3  C   -0.100537
     4  C   -0.042274
     5  C   -0.075058
     6  N   -0.257838
     7  C   -0.060091
     8  C   -0.056625
     9  C   -0.043102
    10  C    0.065022
    11  C    0.075803
    12  C    0.081753
    13  C    0.081392
    14  C    0.133929
    15  O   -0.230190
    16  O   -0.334015
    17  N   -0.294769
    18  C    0.121510
    19  C   -0.171897
    20  C   -0.010970
    21  C    0.099377
    22  C    0.131069
    23  C   -0.007569
    24  O   -0.199906
    25  C    0.031582
    26  N   -0.331357
    27  C    0.010807
    28  C   -0.012734
    29  C    0.030355
    30  C    0.021074
    31  C    0.041036
    32  C    0.016886
    33  C    0.035123
    34  N   -0.293168
    35  C    0.087505
    36  C   -0.163978
    37  C    0.050923
    38  C    0.097871
    39  C    0.106583
    40  C    0.051804
    41  O   -0.239576
    42  C   -0.026334
    43  C    0.196330
    44  O   -0.245426
    45  O   -0.306610
    46  C    0.182341
    47  C    0.294848
    48  C   -0.106546
    49  C   -0.215467
    50  C    0.090108
    51  C    0.070886
    52  C    0.042375
    53  C    0.085061
    54  C   -0.172190
    55  C    0.051189
    56  C    0.066585
    57  C   -0.020672
    58  C    0.067089
    59  C   -0.133740
    60  C    0.047541
    61  C    0.023259
    62  C    0.042194
    63  C    0.050589
    64  C   -0.172894
    65  C    0.069156
    66  C    0.036676
    67  H   -0.039406
    68  H   -0.010292
    69  H   -0.025094
    70  H    0.047349
    71  H    0.001735
    72  H    0.045942
    73  H    0.003585
    74  H    0.005448
    75  H    0.001391
    76  H    0.009143
    77  H    0.027159
    78  H    0.037060
    79  H    0.018070
    80  H    0.034259
    81  H    0.045097
    82  H    0.038405
    83  H    0.037655
    84  H    0.024674
    85  H    0.028462
    86  H    0.013593
    87  H    0.017063
    88  H    0.011060
    89  H    0.038460
    90  H   -0.006978
    91  H    0.001776
    92  H   -0.003649
    93  H    0.019341
    94  H    0.002742
    95  H    0.034927
    96  H    0.012668
    97  H    0.024339
    98  H    0.046253
    99  H    0.029135
   100  H    0.044666
   101  H    0.032202
   102  H    0.031845
   103  H    0.014343
   104  H   -0.016504
   105  H    0.018789
   106  H    0.013158
   107  H    0.022606
   108  H    0.003062
   109  H   -0.022092
   110  H    0.013436
   111  H    0.008929
   112  H    0.000419
   113  H    0.001863
   114  H    0.001666
   115  H   -0.004087
   116  H    0.015685
   117  H    0.011579
   118  H   -0.005050
   119  H   -0.020867
   120  H   -0.016320
   121  H   -0.007103
   122  H   -0.004926
   123  H   -0.005855
   124  H    0.000860
   125  H    0.009500
   126  H   -0.003995
   127  H    0.008675
   128  H   -0.008784
   129  H   -0.011201
   130  H    0.000978
   131  H    0.001379
   132  H   -0.006120
   133  H   -0.009051
   134  H   -0.008379
   135  H    0.012557
   136  H   -0.003941
   137  H    0.005382
   138  H    0.018226
   139  H    0.004687
   140  H   -0.002785
 Sum of Mulliken charges =  -0.00000

 Dipole moment (field-independent basis, Debye):
    X=             -5.6341    Y=              5.2129    Z=              3.4352  Tot=              8.4094
 Quadrupole moment (field-independent basis, Debye-Ang):
   XX=           -396.0296   YY=           -429.4259   ZZ=           -405.8195
   XY=             33.5029   XZ=             10.0778   YZ=             -8.5778

 Normal termination of Gaussian 16 at Wed May  4 06:00:39 2022.
