 Gaussian 16, Revision A.03,
 Gaussian 16:  ES64L-G16RevA.03 25-Dec-2016

 ---------------------------------
 #p PBE1PBE/Def2SVP td=(nstates=5)
 ---------------------------------

 -----------------------------------------------------
 step_1401_chromophore_6 TDDFT with PBE1PBE functional
 -----------------------------------------------------
 Symbolic Z-matrix:
 Charge =  0 Multiplicity = 1

                         Standard orientation:
 ---------------------------------------------------------------------
 Center     Atomic      Atomic             Coordinates (Angstroms)
 Number     Number       Type             X           Y           Z
 ---------------------------------------------------------------------
      1         12           0        4.838527    1.288476    0.434737
      2          6           0        4.303409   -2.224491    0.106823
      3          6           0        1.533245    1.707585    0.053202
      4          6           0        5.408039    4.415296   -0.161932
      5          6           0        8.308722    0.492921   -0.025145
      6          7           0        3.146738   -0.150013   -0.120429
      7          6           0        3.086194   -1.511476    0.106647
      8          6           0        1.678903   -2.017305    0.280710
      9          6           0        0.865982   -0.719714   -0.045581
     10          6           0        1.932964    0.385280    0.016746
     11          6           0        0.100191   -0.775754   -1.377609
     12          6           0        1.362134   -2.683455    1.663330
     13          6           0        0.583025   -4.008273    1.564768
     14          6           0       -0.171206   -4.388809    0.266648
     15          8           0        0.213815   -5.227012   -0.543688
     16          8           0       -1.350055   -3.682895    0.104187
     17          7           0        3.592980    2.928766    0.200198
     18          6           0        2.293079    2.878713    0.150906
     19          6           0        1.761656    4.239729    0.281974
     20          6           0        2.893239    5.091330    0.123794
     21          6           0        4.020296    4.143370    0.053670
     22          6           0        0.308124    4.614100    0.535480
     23          6           0        3.039933    6.590088    0.188940
     24          8           0        4.145139    7.123903    0.210441
     25          6           0        1.803637    7.522956    0.502998
     26          7           0        6.585289    2.272114    0.016975
     27          6           0        6.566654    3.596083   -0.258327
     28          6           0        8.013118    4.213240   -0.550224
     29          6           0        8.848476    2.953667   -0.414530
     30          6           0        7.910104    1.826115   -0.057290
     31          6           0        8.093984    4.781337   -2.071769
     32          6           0       10.106847    3.026700    0.505446
     33          6           0       10.020769    2.530493    1.892404
     34          7           0        6.130199   -0.487230    0.222934
     35          6           0        7.518712   -0.651115    0.177738
     36          6           0        7.831909   -2.003758    0.128969
     37          6           0        6.614834   -2.661952    0.082008
     38          6           0        5.611747   -1.695614    0.105626
     39          6           0        9.234853   -2.723848    0.120217
     40          6           0        6.029280   -3.947373   -0.005909
     41          8           0        6.539669   -5.118018   -0.085290
     42          6           0        4.502522   -3.737231    0.185631
     43          6           0        3.835241   -4.520443   -0.941898
     44          8           0        3.761353   -4.320558   -2.162970
     45          8           0        3.483067   -5.700584   -0.405919
     46          6           0        3.219720   -6.797490   -1.287437
     47          6           0       -2.158513   -4.025399   -1.010871
     48          6           0       -3.481145   -3.377516   -0.698363
     49          6           0       -4.718477   -3.923858   -0.726700
     50          6           0       -4.881144   -5.356100   -0.589931
     51          6           0       -5.907327   -2.973864   -0.603486
     52          6           0       -6.324355   -2.644942    0.798614
     53          6           0       -7.657201   -3.301744    1.182642
     54          6           0       -8.549074   -2.232823    1.822258
     55          6           0       -8.606837   -2.344370    3.407168
     56          6           0       -9.957051   -2.129173    1.287421
     57          6           0      -10.246334   -0.767040    0.526352
     58          6           0      -11.249556   -0.756886   -0.599161
     59          6           0      -12.416161    0.273773   -0.540261
     60          6           0      -13.564280   -0.309383   -1.400772
     61          6           0      -12.072372    1.780553   -1.026785
     62          6           0      -12.089177    2.840380    0.082083
     63          6           0      -11.123792    3.994880   -0.199936
     64          6           0      -11.761826    5.415492   -0.252252
     65          6           0      -10.905413    6.416749    0.457470
     66          6           0      -12.270311    5.867783   -1.668538
     67          1           0        0.456649    1.884420    0.006586
     68          1           0        5.693433    5.452217   -0.354030
     69          1           0        9.373631    0.290250   -0.154694
     70          1           0        1.593260   -2.870345   -0.392543
     71          1           0        0.119423   -0.528371    0.724829
     72          1           0        0.288212   -1.607225   -2.056486
     73          1           0        0.304606    0.178847   -1.862915
     74          1           0       -0.969481   -0.701983   -1.180029
     75          1           0        0.758333   -2.063481    2.326406
     76          1           0        2.322498   -2.708163    2.178775
     77          1           0       -0.233098   -4.073403    2.284153
     78          1           0        1.358652   -4.737539    1.793900
     79          1           0       -0.399739    3.800678    0.379724
     80          1           0        0.099153    5.397435   -0.194647
     81          1           0        0.286543    4.933489    1.577890
     82          1           0        1.375510    7.253903    1.468770
     83          1           0        1.124542    7.505774   -0.349996
     84          1           0        2.149552    8.549032    0.626979
     85          1           0        8.262549    4.923247    0.238053
     86          1           0        9.205655    2.639976   -1.395897
     87          1           0        9.018946    4.493475   -2.570299
     88          1           0        8.233749    5.861874   -2.042799
     89          1           0        7.251278    4.656470   -2.751207
     90          1           0       10.341029    4.077945    0.673100
     91          1           0       11.002975    2.597470    0.056752
     92          1           0        9.046768    2.811058    2.293904
     93          1           0       10.805929    2.922454    2.538522
     94          1           0        9.959218    1.442809    1.946003
     95          1           0        9.814601   -2.745817    1.043257
     96          1           0        9.788996   -2.330706   -0.731665
     97          1           0        9.116686   -3.763829   -0.184337
     98          1           0        4.161096   -4.149055    1.135482
     99          1           0        4.147561   -7.250884   -1.635233
    100          1           0        2.733782   -6.387290   -2.172782
    101          1           0        2.665537   -7.525534   -0.695721
    102          1           0       -2.194887   -5.089492   -1.245200
    103          1           0       -1.828494   -3.391568   -1.832985
    104          1           0       -3.444634   -2.290311   -0.769014
    105          1           0       -5.693157   -5.464032    0.129605
    106          1           0       -3.995727   -5.899095   -0.258495
    107          1           0       -5.036622   -5.856687   -1.545873
    108          1           0       -6.604688   -3.241800   -1.396389
    109          1           0       -5.554390   -2.015727   -0.985207
    110          1           0       -6.226979   -1.560171    0.837341
    111          1           0       -5.610538   -3.124153    1.469146
    112          1           0       -7.497861   -4.071275    1.938464
    113          1           0       -8.186641   -3.690613    0.313400
    114          1           0       -8.114161   -1.244694    1.669363
    115          1           0       -7.708189   -2.910684    3.649812
    116          1           0       -9.539004   -2.853325    3.653623
    117          1           0       -8.521615   -1.358739    3.863553
    118          1           0      -10.733067   -2.313798    2.029150
    119          1           0      -10.129619   -2.867758    0.504485
    120          1           0       -9.312684   -0.477483    0.043861
    121          1           0      -10.374310    0.018590    1.271465
    122          1           0      -11.628725   -1.775512   -0.679914
    123          1           0      -10.640589   -0.586793   -1.487391
    124          1           0      -12.794394    0.339219    0.480414
    125          1           0      -14.023329    0.394340   -2.094884
    126          1           0      -14.317247   -0.529776   -0.644029
    127          1           0      -13.339023   -1.278870   -1.846432
    128          1           0      -12.731662    2.137970   -1.817828
    129          1           0      -11.134852    1.703930   -1.578199
    130          1           0      -11.875374    2.205902    0.941497
    131          1           0      -13.073531    3.295892    0.192901
    132          1           0      -10.617744    3.908765   -1.162352
    133          1           0      -10.326839    3.964909    0.542540
    134          1           0      -12.719368    5.312254    0.258148
    135          1           0      -11.135632    6.553377    1.513073
    136          1           0      -11.030183    7.382096   -0.032901
    137          1           0       -9.863313    6.109411    0.365356
    138          1           0      -13.275582    6.286229   -1.633632
    139          1           0      -12.203479    5.088334   -2.427077
    140          1           0      -11.592520    6.631599   -2.049739
 ---------------------------------------------------------------------

 SCF Done:  E(RPBE1PBE) =  -3005.32675278     A.U. after   15 cycles

 Excitation energies and oscillator strengths:

 Excited State   1:      Singlet-A      1.8644 eV  665.01 nm  f=0.3826  <S**2>=0.000
     245 -> 248       -0.15693
     246 -> 247        0.69352
     246 <- 247       -0.10638
 This state for optimization and/or second-order correction.
 Total Energy, E(TD-HF/TD-DFT) =  -3005.25823760
 Copying the excited state density for this state as the 1-particle RhoCI density.

 Excited State   2:      Singlet-A      2.1847 eV  567.50 nm  f=0.1333  <S**2>=0.000
     245 -> 247        0.66390
     246 -> 248        0.21644

 Excited State   3:      Singlet-A      2.7746 eV  446.85 nm  f=0.0003  <S**2>=0.000
     244 -> 247        0.67201
     244 -> 249        0.17110
     244 -> 250        0.11161

 Excited State   4:      Singlet-A      2.9943 eV  414.07 nm  f=0.0046  <S**2>=0.000
     241 -> 247       -0.12919
     243 -> 247        0.67702

 Excited State   5:      Singlet-A      3.0777 eV  402.85 nm  f=0.0003  <S**2>=0.000
     240 -> 247       -0.19841
     241 -> 247        0.62339
     241 -> 248       -0.11076
     241 -> 249       -0.13887
     243 -> 247        0.11926

 The electronic state is 1-A.
 Alpha  occ. eigenvalues --  -46.93485 -19.25916 -19.23591 -19.20556 -19.19618
 Alpha  occ. eigenvalues --  -19.18271 -19.17943 -14.41710 -14.41637 -14.39472
 Alpha  occ. eigenvalues --  -14.37980 -10.37091 -10.34876 -10.33097 -10.31137
 Alpha  occ. eigenvalues --  -10.29210 -10.29134 -10.28663 -10.28407 -10.28277
 Alpha  occ. eigenvalues --  -10.28232 -10.27797 -10.27132 -10.26775 -10.26256
 Alpha  occ. eigenvalues --  -10.26244 -10.25906 -10.25588 -10.25499 -10.25473
 Alpha  occ. eigenvalues --  -10.25427 -10.25423 -10.25418 -10.25417 -10.25250
 Alpha  occ. eigenvalues --  -10.24914 -10.24765 -10.24559 -10.24339 -10.24049
 Alpha  occ. eigenvalues --  -10.24028 -10.23876 -10.23856 -10.23838 -10.23543
 Alpha  occ. eigenvalues --  -10.23205 -10.23161 -10.23153 -10.23121 -10.23087
 Alpha  occ. eigenvalues --  -10.23076 -10.22965 -10.22810 -10.22612 -10.22428
 Alpha  occ. eigenvalues --  -10.22416 -10.22374 -10.22348 -10.22261 -10.22236
 Alpha  occ. eigenvalues --  -10.22212 -10.22152 -10.22060 -10.21716 -10.21603
 Alpha  occ. eigenvalues --  -10.21447  -3.15519  -1.88326  -1.87899  -1.87738
 Alpha  occ. eigenvalues --   -1.11710  -1.10219  -1.04984  -1.03075  -1.01884
 Alpha  occ. eigenvalues --   -1.00607  -1.00037  -0.98982  -0.98307  -0.97426
 Alpha  occ. eigenvalues --   -0.86690  -0.85772  -0.84193  -0.83885  -0.83830
 Alpha  occ. eigenvalues --   -0.83222  -0.83007  -0.82074  -0.81803  -0.81226
 Alpha  occ. eigenvalues --   -0.80366  -0.79974  -0.79024  -0.77909  -0.77695
 Alpha  occ. eigenvalues --   -0.77196  -0.76269  -0.75579  -0.74910  -0.74730
 Alpha  occ. eigenvalues --   -0.74522  -0.73108  -0.72157  -0.71528  -0.70851
 Alpha  occ. eigenvalues --   -0.69945  -0.69929  -0.69256  -0.68857  -0.68496
 Alpha  occ. eigenvalues --   -0.67940  -0.67415  -0.65847  -0.65091  -0.63764
 Alpha  occ. eigenvalues --   -0.63332  -0.62703  -0.62346  -0.61118  -0.60493
 Alpha  occ. eigenvalues --   -0.59921  -0.59584  -0.59168  -0.58497  -0.58155
 Alpha  occ. eigenvalues --   -0.58124  -0.57793  -0.57216  -0.55732  -0.55222
 Alpha  occ. eigenvalues --   -0.54913  -0.54082  -0.53738  -0.53032  -0.52106
 Alpha  occ. eigenvalues --   -0.51744  -0.51318  -0.50761  -0.50377  -0.50262
 Alpha  occ. eigenvalues --   -0.50149  -0.49381  -0.49182  -0.48635  -0.48117
 Alpha  occ. eigenvalues --   -0.48025  -0.47811  -0.47688  -0.47573  -0.47248
 Alpha  occ. eigenvalues --   -0.47159  -0.46993  -0.46948  -0.46672  -0.46545
 Alpha  occ. eigenvalues --   -0.46413  -0.46089  -0.45785  -0.45366  -0.45027
 Alpha  occ. eigenvalues --   -0.44974  -0.44705  -0.44631  -0.44538  -0.44320
 Alpha  occ. eigenvalues --   -0.44032  -0.43969  -0.43894  -0.43601  -0.43476
 Alpha  occ. eigenvalues --   -0.43200  -0.43053  -0.43029  -0.42870  -0.42536
 Alpha  occ. eigenvalues --   -0.42339  -0.41905  -0.41679  -0.41319  -0.41252
 Alpha  occ. eigenvalues --   -0.41209  -0.40889  -0.40864  -0.40799  -0.40675
 Alpha  occ. eigenvalues --   -0.40579  -0.39807  -0.39647  -0.39442  -0.39404
 Alpha  occ. eigenvalues --   -0.39176  -0.38800  -0.38645  -0.38595  -0.38505
 Alpha  occ. eigenvalues --   -0.38366  -0.38275  -0.38114  -0.37894  -0.37766
 Alpha  occ. eigenvalues --   -0.37570  -0.37559  -0.37223  -0.36983  -0.36811
 Alpha  occ. eigenvalues --   -0.36573  -0.36413  -0.36019  -0.35918  -0.35684
 Alpha  occ. eigenvalues --   -0.35537  -0.35401  -0.35352  -0.35073  -0.34946
 Alpha  occ. eigenvalues --   -0.34475  -0.34377  -0.34176  -0.33760  -0.33532
 Alpha  occ. eigenvalues --   -0.33445  -0.33346  -0.32632  -0.32603  -0.32165
 Alpha  occ. eigenvalues --   -0.32060  -0.31899  -0.31615  -0.31542  -0.31046
 Alpha  occ. eigenvalues --   -0.30565  -0.30339  -0.29669  -0.29286  -0.29070
 Alpha  occ. eigenvalues --   -0.28905  -0.28844  -0.27462  -0.26898  -0.26393
 Alpha  occ. eigenvalues --   -0.25936  -0.25176  -0.25001  -0.24710  -0.20797
 Alpha  occ. eigenvalues --   -0.18914
 Alpha virt. eigenvalues --   -0.11262  -0.04915  -0.04070  -0.02377  -0.01947
 Alpha virt. eigenvalues --   -0.00496   0.00746   0.01351   0.01951   0.03412
 Alpha virt. eigenvalues --    0.04046   0.04722   0.04814   0.05320   0.05808

 Mulliken charges:
               1
     1  Mg   0.971989
     2  C   -0.015633
     3  C   -0.080068
     4  C   -0.035497
     5  C   -0.068733
     6  N   -0.355900
     7  C    0.015384
     8  C   -0.134497
     9  C   -0.114888
    10  C    0.091637
    11  C    0.019770
    12  C    0.037206
    13  C    0.009770
    14  C    0.189944
    15  O   -0.262263
    16  O   -0.363153
    17  N   -0.419230
    18  C    0.140369
    19  C   -0.197117
    20  C   -0.057346
    21  C    0.127049
    22  C    0.069874
    23  C    0.042797
    24  O   -0.236689
    25  C   -0.041457
    26  N   -0.438365
    27  C    0.049886
    28  C   -0.095469
    29  C   -0.039385
    30  C    0.058382
    31  C   -0.012972
    32  C   -0.045975
    33  C   -0.042442
    34  N   -0.417555
    35  C    0.108391
    36  C   -0.168690
    37  C   -0.009627
    38  C    0.156497
    39  C    0.057333
    40  C    0.140533
    41  O   -0.280172
    42  C   -0.129747
    43  C    0.284256
    44  O   -0.281310
    45  O   -0.339675
    46  C    0.129949
    47  C    0.250596
    48  C   -0.116344
    49  C   -0.258433
    50  C    0.026760
    51  C    0.006602
    52  C   -0.019622
    53  C    0.028099
    54  C   -0.255685
    55  C   -0.009919
    56  C    0.015072
    57  C   -0.081346
    58  C    0.010022
    59  C   -0.222753
    60  C   -0.010874
    61  C   -0.020778
    62  C   -0.028608
    63  C   -0.004404
    64  C   -0.262032
    65  C    0.004077
    66  C   -0.023894
    67  H   -0.006866
    68  H    0.022494
    69  H    0.006938
    70  H    0.094013
    71  H    0.037888
    72  H    0.070520
    73  H    0.033007
    74  H    0.033775
    75  H    0.033573
    76  H    0.041469
    77  H    0.059024
    78  H    0.069150
    79  H    0.043761
    80  H    0.061062
    81  H    0.071597
    82  H    0.064156
    83  H    0.062941
    84  H    0.051402
    85  H    0.062778
    86  H    0.052082
    87  H    0.043400
    88  H    0.038873
    89  H    0.064646
    90  H    0.027750
    91  H    0.033862
    92  H    0.028618
    93  H    0.048046
    94  H    0.032452
    95  H    0.062268
    96  H    0.040842
    97  H    0.052326
    98  H    0.083266
    99  H    0.051689
   100  H    0.065620
   101  H    0.054033
   102  H    0.056382
   103  H    0.044501
   104  H    0.013323
   105  H    0.048183
   106  H    0.040538
   107  H    0.050791
   108  H    0.034967
   109  H    0.012022
   110  H    0.042849
   111  H    0.042564
   112  H    0.032355
   113  H    0.033824
   114  H    0.040447
   115  H    0.024338
   116  H    0.042630
   117  H    0.039413
   118  H    0.026904
   119  H    0.012440
   120  H    0.017369
   121  H    0.026612
   122  H    0.027221
   123  H    0.026763
   124  H    0.038336
   125  H    0.036361
   126  H    0.024309
   127  H    0.035238
   128  H    0.023268
   129  H    0.020391
   130  H    0.034748
   131  H    0.034130
   132  H    0.026548
   133  H    0.023977
   134  H    0.030506
   135  H    0.040466
   136  H    0.024173
   137  H    0.033203
   138  H    0.045008
   139  H    0.031877
   140  H    0.024877
 Sum of Mulliken charges =  -0.00000

 Dipole moment (field-independent basis, Debye):
    X=             -5.1941    Y=              4.6586    Z=              3.4299  Tot=              7.7747
 Quadrupole moment (field-independent basis, Debye-Ang):
   XX=           -386.6007   YY=           -427.7258   ZZ=           -403.4091
   XY=             32.2765   XZ=             10.1310   YZ=             -8.6525

 Normal termination of Gaussian 16 at Wed May  4 06:16:40 2022.
