 Gaussian 16, Revision A.03,
 Gaussian 16:  ES64L-G16RevA.03 25-Dec-2016

 --------------------------------
 #p wB97XD/Def2SVP td=(nstates=5)
 --------------------------------

 ----------------------------------------------------
 step_1401_chromophore_6 TDDFT with wB97XD functional
 ----------------------------------------------------
 Symbolic Z-matrix:
 Charge =  0 Multiplicity = 1

                         Standard orientation:
 ---------------------------------------------------------------------
 Center     Atomic      Atomic             Coordinates (Angstroms)
 Number     Number       Type             X           Y           Z
 ---------------------------------------------------------------------
      1         12           0        4.838527    1.288476    0.434737
      2          6           0        4.303409   -2.224491    0.106823
      3          6           0        1.533245    1.707585    0.053202
      4          6           0        5.408039    4.415296   -0.161932
      5          6           0        8.308722    0.492921   -0.025145
      6          7           0        3.146738   -0.150013   -0.120429
      7          6           0        3.086194   -1.511476    0.106647
      8          6           0        1.678903   -2.017305    0.280710
      9          6           0        0.865982   -0.719714   -0.045581
     10          6           0        1.932964    0.385280    0.016746
     11          6           0        0.100191   -0.775754   -1.377609
     12          6           0        1.362134   -2.683455    1.663330
     13          6           0        0.583025   -4.008273    1.564768
     14          6           0       -0.171206   -4.388809    0.266648
     15          8           0        0.213815   -5.227012   -0.543688
     16          8           0       -1.350055   -3.682895    0.104187
     17          7           0        3.592980    2.928766    0.200198
     18          6           0        2.293079    2.878713    0.150906
     19          6           0        1.761656    4.239729    0.281974
     20          6           0        2.893239    5.091330    0.123794
     21          6           0        4.020296    4.143370    0.053670
     22          6           0        0.308124    4.614100    0.535480
     23          6           0        3.039933    6.590088    0.188940
     24          8           0        4.145139    7.123903    0.210441
     25          6           0        1.803637    7.522956    0.502998
     26          7           0        6.585289    2.272114    0.016975
     27          6           0        6.566654    3.596083   -0.258327
     28          6           0        8.013118    4.213240   -0.550224
     29          6           0        8.848476    2.953667   -0.414530
     30          6           0        7.910104    1.826115   -0.057290
     31          6           0        8.093984    4.781337   -2.071769
     32          6           0       10.106847    3.026700    0.505446
     33          6           0       10.020769    2.530493    1.892404
     34          7           0        6.130199   -0.487230    0.222934
     35          6           0        7.518712   -0.651115    0.177738
     36          6           0        7.831909   -2.003758    0.128969
     37          6           0        6.614834   -2.661952    0.082008
     38          6           0        5.611747   -1.695614    0.105626
     39          6           0        9.234853   -2.723848    0.120217
     40          6           0        6.029280   -3.947373   -0.005909
     41          8           0        6.539669   -5.118018   -0.085290
     42          6           0        4.502522   -3.737231    0.185631
     43          6           0        3.835241   -4.520443   -0.941898
     44          8           0        3.761353   -4.320558   -2.162970
     45          8           0        3.483067   -5.700584   -0.405919
     46          6           0        3.219720   -6.797490   -1.287437
     47          6           0       -2.158513   -4.025399   -1.010871
     48          6           0       -3.481145   -3.377516   -0.698363
     49          6           0       -4.718477   -3.923858   -0.726700
     50          6           0       -4.881144   -5.356100   -0.589931
     51          6           0       -5.907327   -2.973864   -0.603486
     52          6           0       -6.324355   -2.644942    0.798614
     53          6           0       -7.657201   -3.301744    1.182642
     54          6           0       -8.549074   -2.232823    1.822258
     55          6           0       -8.606837   -2.344370    3.407168
     56          6           0       -9.957051   -2.129173    1.287421
     57          6           0      -10.246334   -0.767040    0.526352
     58          6           0      -11.249556   -0.756886   -0.599161
     59          6           0      -12.416161    0.273773   -0.540261
     60          6           0      -13.564280   -0.309383   -1.400772
     61          6           0      -12.072372    1.780553   -1.026785
     62          6           0      -12.089177    2.840380    0.082083
     63          6           0      -11.123792    3.994880   -0.199936
     64          6           0      -11.761826    5.415492   -0.252252
     65          6           0      -10.905413    6.416749    0.457470
     66          6           0      -12.270311    5.867783   -1.668538
     67          1           0        0.456649    1.884420    0.006586
     68          1           0        5.693433    5.452217   -0.354030
     69          1           0        9.373631    0.290250   -0.154694
     70          1           0        1.593260   -2.870345   -0.392543
     71          1           0        0.119423   -0.528371    0.724829
     72          1           0        0.288212   -1.607225   -2.056486
     73          1           0        0.304606    0.178847   -1.862915
     74          1           0       -0.969481   -0.701983   -1.180029
     75          1           0        0.758333   -2.063481    2.326406
     76          1           0        2.322498   -2.708163    2.178775
     77          1           0       -0.233098   -4.073403    2.284153
     78          1           0        1.358652   -4.737539    1.793900
     79          1           0       -0.399739    3.800678    0.379724
     80          1           0        0.099153    5.397435   -0.194647
     81          1           0        0.286543    4.933489    1.577890
     82          1           0        1.375510    7.253903    1.468770
     83          1           0        1.124542    7.505774   -0.349996
     84          1           0        2.149552    8.549032    0.626979
     85          1           0        8.262549    4.923247    0.238053
     86          1           0        9.205655    2.639976   -1.395897
     87          1           0        9.018946    4.493475   -2.570299
     88          1           0        8.233749    5.861874   -2.042799
     89          1           0        7.251278    4.656470   -2.751207
     90          1           0       10.341029    4.077945    0.673100
     91          1           0       11.002975    2.597470    0.056752
     92          1           0        9.046768    2.811058    2.293904
     93          1           0       10.805929    2.922454    2.538522
     94          1           0        9.959218    1.442809    1.946003
     95          1           0        9.814601   -2.745817    1.043257
     96          1           0        9.788996   -2.330706   -0.731665
     97          1           0        9.116686   -3.763829   -0.184337
     98          1           0        4.161096   -4.149055    1.135482
     99          1           0        4.147561   -7.250884   -1.635233
    100          1           0        2.733782   -6.387290   -2.172782
    101          1           0        2.665537   -7.525534   -0.695721
    102          1           0       -2.194887   -5.089492   -1.245200
    103          1           0       -1.828494   -3.391568   -1.832985
    104          1           0       -3.444634   -2.290311   -0.769014
    105          1           0       -5.693157   -5.464032    0.129605
    106          1           0       -3.995727   -5.899095   -0.258495
    107          1           0       -5.036622   -5.856687   -1.545873
    108          1           0       -6.604688   -3.241800   -1.396389
    109          1           0       -5.554390   -2.015727   -0.985207
    110          1           0       -6.226979   -1.560171    0.837341
    111          1           0       -5.610538   -3.124153    1.469146
    112          1           0       -7.497861   -4.071275    1.938464
    113          1           0       -8.186641   -3.690613    0.313400
    114          1           0       -8.114161   -1.244694    1.669363
    115          1           0       -7.708189   -2.910684    3.649812
    116          1           0       -9.539004   -2.853325    3.653623
    117          1           0       -8.521615   -1.358739    3.863553
    118          1           0      -10.733067   -2.313798    2.029150
    119          1           0      -10.129619   -2.867758    0.504485
    120          1           0       -9.312684   -0.477483    0.043861
    121          1           0      -10.374310    0.018590    1.271465
    122          1           0      -11.628725   -1.775512   -0.679914
    123          1           0      -10.640589   -0.586793   -1.487391
    124          1           0      -12.794394    0.339219    0.480414
    125          1           0      -14.023329    0.394340   -2.094884
    126          1           0      -14.317247   -0.529776   -0.644029
    127          1           0      -13.339023   -1.278870   -1.846432
    128          1           0      -12.731662    2.137970   -1.817828
    129          1           0      -11.134852    1.703930   -1.578199
    130          1           0      -11.875374    2.205902    0.941497
    131          1           0      -13.073531    3.295892    0.192901
    132          1           0      -10.617744    3.908765   -1.162352
    133          1           0      -10.326839    3.964909    0.542540
    134          1           0      -12.719368    5.312254    0.258148
    135          1           0      -11.135632    6.553377    1.513073
    136          1           0      -11.030183    7.382096   -0.032901
    137          1           0       -9.863313    6.109411    0.365356
    138          1           0      -13.275582    6.286229   -1.633632
    139          1           0      -12.203479    5.088334   -2.427077
    140          1           0      -11.592520    6.631599   -2.049739
 ---------------------------------------------------------------------

 SCF Done:  E(RwB97XD) =  -3007.83489865     A.U. after   19 cycles

 Excitation energies and oscillator strengths:

 Excited State   1:      Singlet-A      1.6978 eV  730.25 nm  f=0.3978  <S**2>=0.000
     245 -> 248       -0.17173
     246 -> 247        0.68502
     245 <- 248       -0.10848
 This state for optimization and/or second-order correction.
 Total Energy, E(TD-HF/TD-DFT) =  -3007.77250429
 Copying the excited state density for this state as the 1-particle RhoCI density.

 Excited State   2:      Singlet-A      2.1428 eV  578.60 nm  f=0.1375  <S**2>=0.000
     245 -> 247        0.65277
     246 -> 248        0.25050

 Excited State   3:      Singlet-A      3.3668 eV  368.25 nm  f=0.0002  <S**2>=0.000
     243 -> 247        0.45318
     243 -> 249       -0.27156
     243 -> 250        0.10103
     243 -> 251       -0.22971
     244 -> 247        0.34931

 Excited State   4:      Singlet-A      3.4075 eV  363.85 nm  f=0.0021  <S**2>=0.000
     241 -> 247       -0.14564
     243 -> 247       -0.28769
     243 -> 249        0.16749
     243 -> 251        0.14108
     244 -> 247        0.55827

 Excited State   5:      Singlet-A      3.5393 eV  350.31 nm  f=0.0468  <S**2>=0.000
     240 -> 247        0.42998
     240 -> 248       -0.13758
     240 -> 249        0.27972
     240 -> 251       -0.12820
     241 -> 247        0.26286
     241 -> 249        0.10209
     246 -> 248       -0.25083

 The electronic state is 1-A.
 Alpha  occ. eigenvalues --  -46.96450 -19.30441 -19.28023 -19.25169 -19.24731
 Alpha  occ. eigenvalues --  -19.22847 -19.22409 -14.46767 -14.46756 -14.44623
 Alpha  occ. eigenvalues --  -14.42712 -10.43821 -10.41592 -10.40216 -10.37746
 Alpha  occ. eigenvalues --  -10.35729 -10.35617 -10.35023 -10.34978 -10.34739
 Alpha  occ. eigenvalues --  -10.34606 -10.34180 -10.34088 -10.33041 -10.32642
 Alpha  occ. eigenvalues --  -10.32292 -10.32238 -10.32118 -10.32102 -10.31910
 Alpha  occ. eigenvalues --  -10.31853 -10.31723 -10.31687 -10.31481 -10.31418
 Alpha  occ. eigenvalues --  -10.31125 -10.31017 -10.30864 -10.30782 -10.30655
 Alpha  occ. eigenvalues --  -10.30329 -10.30274 -10.30269 -10.30129 -10.29759
 Alpha  occ. eigenvalues --  -10.29664 -10.29524 -10.29513 -10.29485 -10.29456
 Alpha  occ. eigenvalues --  -10.29281 -10.29230 -10.29172 -10.28967 -10.28814
 Alpha  occ. eigenvalues --  -10.28794 -10.28746 -10.28738 -10.28684 -10.28616
 Alpha  occ. eigenvalues --  -10.28599 -10.28596 -10.28389 -10.28178 -10.27879
 Alpha  occ. eigenvalues --  -10.27509  -3.22366  -1.95918  -1.95491  -1.95327
 Alpha  occ. eigenvalues --   -1.19045  -1.17479  -1.12758  -1.10371  -1.09501
 Alpha  occ. eigenvalues --   -1.07828  -1.07284  -1.06327  -1.05519  -1.04699
 Alpha  occ. eigenvalues --   -0.94127  -0.93419  -0.91813  -0.91489  -0.91459
 Alpha  occ. eigenvalues --   -0.90893  -0.90753  -0.90013  -0.89476  -0.88807
 Alpha  occ. eigenvalues --   -0.87876  -0.87433  -0.86657  -0.85515  -0.85232
 Alpha  occ. eigenvalues --   -0.84837  -0.83904  -0.83324  -0.82643  -0.82384
 Alpha  occ. eigenvalues --   -0.82210  -0.81061  -0.79723  -0.79050  -0.78512
 Alpha  occ. eigenvalues --   -0.77650  -0.77526  -0.76764  -0.76542  -0.76181
 Alpha  occ. eigenvalues --   -0.75444  -0.74921  -0.73402  -0.72697  -0.71383
 Alpha  occ. eigenvalues --   -0.70966  -0.70188  -0.69985  -0.68747  -0.68029
 Alpha  occ. eigenvalues --   -0.67578  -0.67027  -0.66592  -0.65837  -0.65831
 Alpha  occ. eigenvalues --   -0.65597  -0.65463  -0.64872  -0.63253  -0.62702
 Alpha  occ. eigenvalues --   -0.62399  -0.61466  -0.61076  -0.60406  -0.59400
 Alpha  occ. eigenvalues --   -0.59220  -0.58779  -0.58198  -0.57779  -0.57619
 Alpha  occ. eigenvalues --   -0.57490  -0.56735  -0.56516  -0.56057  -0.55945
 Alpha  occ. eigenvalues --   -0.55487  -0.55232  -0.55031  -0.54941  -0.54642
 Alpha  occ. eigenvalues --   -0.54544  -0.54416  -0.54244  -0.54017  -0.53857
 Alpha  occ. eigenvalues --   -0.53754  -0.53400  -0.53194  -0.52916  -0.52392
 Alpha  occ. eigenvalues --   -0.52220  -0.52109  -0.52021  -0.51941  -0.51640
 Alpha  occ. eigenvalues --   -0.51495  -0.51254  -0.51212  -0.51036  -0.50810
 Alpha  occ. eigenvalues --   -0.50460  -0.50440  -0.50262  -0.50164  -0.49778
 Alpha  occ. eigenvalues --   -0.49543  -0.48997  -0.48909  -0.48543  -0.48461
 Alpha  occ. eigenvalues --   -0.48356  -0.48170  -0.48111  -0.47885  -0.47868
 Alpha  occ. eigenvalues --   -0.47764  -0.46997  -0.46823  -0.46641  -0.46555
 Alpha  occ. eigenvalues --   -0.46383  -0.45964  -0.45808  -0.45743  -0.45703
 Alpha  occ. eigenvalues --   -0.45577  -0.45374  -0.45235  -0.45102  -0.44973
 Alpha  occ. eigenvalues --   -0.44726  -0.44638  -0.44262  -0.44005  -0.43917
 Alpha  occ. eigenvalues --   -0.43602  -0.43498  -0.43057  -0.43011  -0.42787
 Alpha  occ. eigenvalues --   -0.42589  -0.42419  -0.42333  -0.42057  -0.41999
 Alpha  occ. eigenvalues --   -0.41448  -0.41419  -0.41160  -0.40718  -0.40620
 Alpha  occ. eigenvalues --   -0.40468  -0.40402  -0.39690  -0.39495  -0.39192
 Alpha  occ. eigenvalues --   -0.39113  -0.38941  -0.38618  -0.38489  -0.38115
 Alpha  occ. eigenvalues --   -0.37506  -0.37221  -0.36465  -0.36228  -0.35934
 Alpha  occ. eigenvalues --   -0.35856  -0.35671  -0.34401  -0.33800  -0.33464
 Alpha  occ. eigenvalues --   -0.32895  -0.31870  -0.31587  -0.31220  -0.25809
 Alpha  occ. eigenvalues --   -0.23145
 Alpha virt. eigenvalues --   -0.07117   0.00641   0.02111   0.03877   0.04232
 Alpha virt. eigenvalues --    0.06350   0.07462   0.08130   0.08857   0.10075
 Alpha virt. eigenvalues --    0.10576   0.11328   0.11613   0.11989   0.12501

 Mulliken charges:
               1
     1  Mg   0.965953
     2  C   -0.018447
     3  C   -0.105405
     4  C   -0.054606
     5  C   -0.084824
     6  N   -0.322491
     7  C   -0.018117
     8  C   -0.099344
     9  C   -0.090581
    10  C    0.084227
    11  C    0.028321
    12  C    0.042300
    13  C    0.025622
    14  C    0.180420
    15  O   -0.258435
    16  O   -0.360834
    17  N   -0.383183
    18  C    0.137961
    19  C   -0.186651
    20  C   -0.052595
    21  C    0.122578
    22  C    0.083458
    23  C    0.038254
    24  O   -0.229747
    25  C   -0.029559
    26  N   -0.405870
    27  C    0.038317
    28  C   -0.070993
    29  C   -0.017881
    30  C    0.047316
    31  C   -0.003679
    32  C   -0.032812
    33  C   -0.020021
    34  N   -0.378832
    35  C    0.096327
    36  C   -0.172272
    37  C   -0.001725
    38  C    0.135661
    39  C    0.067646
    40  C    0.120965
    41  O   -0.273019
    42  C   -0.089364
    43  C    0.257941
    44  O   -0.274652
    45  O   -0.336703
    46  C    0.143209
    47  C    0.260946
    48  C   -0.121730
    49  C   -0.241530
    50  C    0.037780
    51  C    0.025037
    52  C   -0.004892
    53  C    0.043266
    54  C   -0.225290
    55  C    0.005596
    56  C    0.029617
    57  C   -0.063844
    58  C    0.027969
    59  C   -0.193230
    60  C    0.001699
    61  C   -0.010257
    62  C   -0.005134
    63  C    0.008435
    64  C   -0.232470
    65  C    0.017757
    66  C   -0.012555
    67  H   -0.014993
    68  H    0.017452
    69  H    0.001143
    70  H    0.069684
    71  H    0.028167
    72  H    0.067605
    73  H    0.025314
    74  H    0.027720
    75  H    0.026457
    76  H    0.033512
    77  H    0.053915
    78  H    0.064163
    79  H    0.042259
    80  H    0.055347
    81  H    0.068004
    82  H    0.059743
    83  H    0.059048
    84  H    0.051118
    85  H    0.055052
    86  H    0.040496
    87  H    0.038108
    88  H    0.032901
    89  H    0.059811
    90  H    0.018119
    91  H    0.027594
    92  H    0.017169
    93  H    0.043293
    94  H    0.023911
    95  H    0.057072
    96  H    0.033967
    97  H    0.047557
    98  H    0.075098
    99  H    0.047997
   100  H    0.061821
   101  H    0.051044
   102  H    0.052317
   103  H    0.038507
   104  H    0.007051
   105  H    0.040439
   106  H    0.034762
   107  H    0.046092
   108  H    0.028306
   109  H    0.003163
   110  H    0.036612
   111  H    0.033181
   112  H    0.024124
   113  H    0.023171
   114  H    0.022604
   115  H    0.016552
   116  H    0.035773
   117  H    0.034318
   118  H    0.018864
   119  H    0.000456
   120  H    0.006593
   121  H    0.016411
   122  H    0.016408
   123  H    0.018300
   124  H    0.025685
   125  H    0.030738
   126  H    0.018252
   127  H    0.029309
   128  H    0.013573
   129  H    0.010028
   130  H    0.023225
   131  H    0.024945
   132  H    0.015677
   133  H    0.016394
   134  H    0.017286
   135  H    0.035654
   136  H    0.017830
   137  H    0.025880
   138  H    0.040516
   139  H    0.025539
   140  H    0.017798
 Sum of Mulliken charges =  -0.00000

 Dipole moment (field-independent basis, Debye):
    X=             -5.7881    Y=              5.4050    Z=              3.5188  Tot=              8.6659
 Quadrupole moment (field-independent basis, Debye-Ang):
   XX=           -392.1125   YY=           -424.5570   ZZ=           -402.9939
   XY=             34.1500   XZ=             10.4006   YZ=             -8.5874

 Normal termination of Gaussian 16 at Wed May  4 06:43:14 2022.
