 Gaussian 16, Revision A.03,
 Gaussian 16:  ES64L-G16RevA.03 25-Dec-2016

 --------------------
 #p ZINDO=(nstates=5)
 --------------------

 -----------------------------
 step_1401_chromophore_6 ZINDO
 -----------------------------
 Symbolic Z-matrix:
 Charge =  0 Multiplicity = 1

                         Standard orientation:
 ---------------------------------------------------------------------
 Center     Atomic      Atomic             Coordinates (Angstroms)
 Number     Number       Type             X           Y           Z
 ---------------------------------------------------------------------
      1         12           0        4.838527    1.288476    0.434737
      2          6           0        4.303409   -2.224491    0.106823
      3          6           0        1.533245    1.707585    0.053202
      4          6           0        5.408039    4.415296   -0.161932
      5          6           0        8.308722    0.492921   -0.025145
      6          7           0        3.146738   -0.150013   -0.120429
      7          6           0        3.086194   -1.511476    0.106647
      8          6           0        1.678903   -2.017305    0.280710
      9          6           0        0.865982   -0.719714   -0.045581
     10          6           0        1.932964    0.385280    0.016746
     11          6           0        0.100191   -0.775754   -1.377609
     12          6           0        1.362134   -2.683455    1.663330
     13          6           0        0.583025   -4.008273    1.564768
     14          6           0       -0.171206   -4.388809    0.266648
     15          8           0        0.213815   -5.227012   -0.543688
     16          8           0       -1.350055   -3.682895    0.104187
     17          7           0        3.592980    2.928766    0.200198
     18          6           0        2.293079    2.878713    0.150906
     19          6           0        1.761656    4.239729    0.281974
     20          6           0        2.893239    5.091330    0.123794
     21          6           0        4.020296    4.143370    0.053670
     22          6           0        0.308124    4.614100    0.535480
     23          6           0        3.039933    6.590088    0.188940
     24          8           0        4.145139    7.123903    0.210441
     25          6           0        1.803637    7.522956    0.502998
     26          7           0        6.585289    2.272114    0.016975
     27          6           0        6.566654    3.596083   -0.258327
     28          6           0        8.013118    4.213240   -0.550224
     29          6           0        8.848476    2.953667   -0.414530
     30          6           0        7.910104    1.826115   -0.057290
     31          6           0        8.093984    4.781337   -2.071769
     32          6           0       10.106847    3.026700    0.505446
     33          6           0       10.020769    2.530493    1.892404
     34          7           0        6.130199   -0.487230    0.222934
     35          6           0        7.518712   -0.651115    0.177738
     36          6           0        7.831909   -2.003758    0.128969
     37          6           0        6.614834   -2.661952    0.082008
     38          6           0        5.611747   -1.695614    0.105626
     39          6           0        9.234853   -2.723848    0.120217
     40          6           0        6.029280   -3.947373   -0.005909
     41          8           0        6.539669   -5.118018   -0.085290
     42          6           0        4.502522   -3.737231    0.185631
     43          6           0        3.835241   -4.520443   -0.941898
     44          8           0        3.761353   -4.320558   -2.162970
     45          8           0        3.483067   -5.700584   -0.405919
     46          6           0        3.219720   -6.797490   -1.287437
     47          6           0       -2.158513   -4.025399   -1.010871
     48          6           0       -3.481145   -3.377516   -0.698363
     49          6           0       -4.718477   -3.923858   -0.726700
     50          6           0       -4.881144   -5.356100   -0.589931
     51          6           0       -5.907327   -2.973864   -0.603486
     52          6           0       -6.324355   -2.644942    0.798614
     53          6           0       -7.657201   -3.301744    1.182642
     54          6           0       -8.549074   -2.232823    1.822258
     55          6           0       -8.606837   -2.344370    3.407168
     56          6           0       -9.957051   -2.129173    1.287421
     57          6           0      -10.246334   -0.767040    0.526352
     58          6           0      -11.249556   -0.756886   -0.599161
     59          6           0      -12.416161    0.273773   -0.540261
     60          6           0      -13.564280   -0.309383   -1.400772
     61          6           0      -12.072372    1.780553   -1.026785
     62          6           0      -12.089177    2.840380    0.082083
     63          6           0      -11.123792    3.994880   -0.199936
     64          6           0      -11.761826    5.415492   -0.252252
     65          6           0      -10.905413    6.416749    0.457470
     66          6           0      -12.270311    5.867783   -1.668538
     67          1           0        0.456649    1.884420    0.006586
     68          1           0        5.693433    5.452217   -0.354030
     69          1           0        9.373631    0.290250   -0.154694
     70          1           0        1.593260   -2.870345   -0.392543
     71          1           0        0.119423   -0.528371    0.724829
     72          1           0        0.288212   -1.607225   -2.056486
     73          1           0        0.304606    0.178847   -1.862915
     74          1           0       -0.969481   -0.701983   -1.180029
     75          1           0        0.758333   -2.063481    2.326406
     76          1           0        2.322498   -2.708163    2.178775
     77          1           0       -0.233098   -4.073403    2.284153
     78          1           0        1.358652   -4.737539    1.793900
     79          1           0       -0.399739    3.800678    0.379724
     80          1           0        0.099153    5.397435   -0.194647
     81          1           0        0.286543    4.933489    1.577890
     82          1           0        1.375510    7.253903    1.468770
     83          1           0        1.124542    7.505774   -0.349996
     84          1           0        2.149552    8.549032    0.626979
     85          1           0        8.262549    4.923247    0.238053
     86          1           0        9.205655    2.639976   -1.395897
     87          1           0        9.018946    4.493475   -2.570299
     88          1           0        8.233749    5.861874   -2.042799
     89          1           0        7.251278    4.656470   -2.751207
     90          1           0       10.341029    4.077945    0.673100
     91          1           0       11.002975    2.597470    0.056752
     92          1           0        9.046768    2.811058    2.293904
     93          1           0       10.805929    2.922454    2.538522
     94          1           0        9.959218    1.442809    1.946003
     95          1           0        9.814601   -2.745817    1.043257
     96          1           0        9.788996   -2.330706   -0.731665
     97          1           0        9.116686   -3.763829   -0.184337
     98          1           0        4.161096   -4.149055    1.135482
     99          1           0        4.147561   -7.250884   -1.635233
    100          1           0        2.733782   -6.387290   -2.172782
    101          1           0        2.665537   -7.525534   -0.695721
    102          1           0       -2.194887   -5.089492   -1.245200
    103          1           0       -1.828494   -3.391568   -1.832985
    104          1           0       -3.444634   -2.290311   -0.769014
    105          1           0       -5.693157   -5.464032    0.129605
    106          1           0       -3.995727   -5.899095   -0.258495
    107          1           0       -5.036622   -5.856687   -1.545873
    108          1           0       -6.604688   -3.241800   -1.396389
    109          1           0       -5.554390   -2.015727   -0.985207
    110          1           0       -6.226979   -1.560171    0.837341
    111          1           0       -5.610538   -3.124153    1.469146
    112          1           0       -7.497861   -4.071275    1.938464
    113          1           0       -8.186641   -3.690613    0.313400
    114          1           0       -8.114161   -1.244694    1.669363
    115          1           0       -7.708189   -2.910684    3.649812
    116          1           0       -9.539004   -2.853325    3.653623
    117          1           0       -8.521615   -1.358739    3.863553
    118          1           0      -10.733067   -2.313798    2.029150
    119          1           0      -10.129619   -2.867758    0.504485
    120          1           0       -9.312684   -0.477483    0.043861
    121          1           0      -10.374310    0.018590    1.271465
    122          1           0      -11.628725   -1.775512   -0.679914
    123          1           0      -10.640589   -0.586793   -1.487391
    124          1           0      -12.794394    0.339219    0.480414
    125          1           0      -14.023329    0.394340   -2.094884
    126          1           0      -14.317247   -0.529776   -0.644029
    127          1           0      -13.339023   -1.278870   -1.846432
    128          1           0      -12.731662    2.137970   -1.817828
    129          1           0      -11.134852    1.703930   -1.578199
    130          1           0      -11.875374    2.205902    0.941497
    131          1           0      -13.073531    3.295892    0.192901
    132          1           0      -10.617744    3.908765   -1.162352
    133          1           0      -10.326839    3.964909    0.542540
    134          1           0      -12.719368    5.312254    0.258148
    135          1           0      -11.135632    6.553377    1.513073
    136          1           0      -11.030183    7.382096   -0.032901
    137          1           0       -9.863313    6.109411    0.365356
    138          1           0      -13.275582    6.286229   -1.633632
    139          1           0      -12.203479    5.088334   -2.427077
    140          1           0      -11.592520    6.631599   -2.049739
 ---------------------------------------------------------------------

 SCF Done:  E(RZINDO/S) =  -474.586069268     A.U. after   19 cycles

 Excitation energies and oscillator strengths:

 Excited State   1:      Singlet-A      1.2735 eV  973.53 nm  f=0.5825  <S**2>=0.000
     175 ->178         0.16757
     176 ->177         0.67001
 This state for optimization and/or second-order correction.
 Total Energy, E(CIS/TDA) =  -474.539267168
 Copying the excited state density for this state as the 1-particle RhoCI density.

 Excited State   2:      Singlet-A      1.8969 eV  653.62 nm  f=0.0859  <S**2>=0.000
     175 ->177         0.57923
     176 ->178        -0.36782

 Excited State   3:      Singlet-A      2.8862 eV  429.57 nm  f=0.0052  <S**2>=0.000
     166 ->179        -0.13990
     168 ->177         0.29612
     168 ->178        -0.10768
     168 ->179        -0.43113
     168 ->181         0.20303
     168 ->184         0.14556
     168 ->186        -0.14941
     176 ->179         0.12541

 Excited State   4:      Singlet-A      2.9244 eV  423.96 nm  f=0.0159  <S**2>=0.000
     171 ->177         0.29735
     171 ->178        -0.14837
     171 ->179         0.26376
     171 ->180         0.12409
     171 ->181         0.38414
     171 ->186         0.12895
     171 ->187        -0.14240
     171 ->188         0.13143
     176 ->179         0.12175

 Excited State   5:      Singlet-A      2.9736 eV  416.95 nm  f=0.2419  <S**2>=0.000
     171 ->181        -0.10129
     175 ->177        -0.19030
     176 ->178        -0.34173
     176 ->179         0.21162
     176 ->180         0.48076

 The electronic state is 1-A.
 Alpha  occ. eigenvalues --   -1.86734  -1.84915  -1.80506  -1.74662  -1.73499
 Alpha  occ. eigenvalues --   -1.72291  -1.65675  -1.61620  -1.58913  -1.56769
 Alpha  occ. eigenvalues --   -1.56430  -1.52824  -1.49469  -1.48317  -1.44734
 Alpha  occ. eigenvalues --   -1.44467  -1.41374  -1.40104  -1.39311  -1.38515
 Alpha  occ. eigenvalues --   -1.35898  -1.34389  -1.33594  -1.30133  -1.29611
 Alpha  occ. eigenvalues --   -1.29059  -1.24436  -1.21654  -1.20850  -1.18504
 Alpha  occ. eigenvalues --   -1.17215  -1.16563  -1.16238  -1.15141  -1.12578
 Alpha  occ. eigenvalues --   -1.12553  -1.12090  -1.11325  -1.05815  -1.02575
 Alpha  occ. eigenvalues --   -1.02427  -1.01605  -0.99206  -0.98254  -0.97541
 Alpha  occ. eigenvalues --   -0.95948  -0.95679  -0.94475  -0.93711  -0.92222
 Alpha  occ. eigenvalues --   -0.91450  -0.89750  -0.89721  -0.89294  -0.88547
 Alpha  occ. eigenvalues --   -0.85579  -0.84346  -0.82990  -0.81468  -0.80229
 Alpha  occ. eigenvalues --   -0.79916  -0.77951  -0.76944  -0.76523  -0.75793
 Alpha  occ. eigenvalues --   -0.75725  -0.75043  -0.74726  -0.74168  -0.74077
 Alpha  occ. eigenvalues --   -0.73234  -0.72761  -0.72658  -0.71640  -0.71418
 Alpha  occ. eigenvalues --   -0.70801  -0.69743  -0.68675  -0.68597  -0.68217
 Alpha  occ. eigenvalues --   -0.67632  -0.67021  -0.66399  -0.66167  -0.65636
 Alpha  occ. eigenvalues --   -0.64921  -0.64623  -0.64269  -0.63681  -0.63506
 Alpha  occ. eigenvalues --   -0.63222  -0.62790  -0.62382  -0.61963  -0.61835
 Alpha  occ. eigenvalues --   -0.61748  -0.61176  -0.60714  -0.60368  -0.60074
 Alpha  occ. eigenvalues --   -0.59711  -0.59406  -0.58885  -0.58670  -0.58427
 Alpha  occ. eigenvalues --   -0.58223  -0.57630  -0.57520  -0.57055  -0.56763
 Alpha  occ. eigenvalues --   -0.56562  -0.56436  -0.55864  -0.54948  -0.54492
 Alpha  occ. eigenvalues --   -0.54052  -0.53778  -0.53317  -0.53084  -0.52619
 Alpha  occ. eigenvalues --   -0.52507  -0.52337  -0.51585  -0.51222  -0.51145
 Alpha  occ. eigenvalues --   -0.50898  -0.50684  -0.50327  -0.50103  -0.49904
 Alpha  occ. eigenvalues --   -0.49762  -0.49517  -0.49066  -0.48868  -0.48680
 Alpha  occ. eigenvalues --   -0.48296  -0.48001  -0.47761  -0.47522  -0.47297
 Alpha  occ. eigenvalues --   -0.47083  -0.47032  -0.46909  -0.46672  -0.45975
 Alpha  occ. eigenvalues --   -0.45942  -0.45681  -0.45604  -0.44966  -0.44844
 Alpha  occ. eigenvalues --   -0.44787  -0.44649  -0.44568  -0.43900  -0.43768
 Alpha  occ. eigenvalues --   -0.43386  -0.42910  -0.42667  -0.42514  -0.41504
 Alpha  occ. eigenvalues --   -0.41441  -0.41386  -0.39314  -0.38904  -0.38737
 Alpha  occ. eigenvalues --   -0.37177  -0.36591  -0.36425  -0.34857  -0.34035
 Alpha  occ. eigenvalues --   -0.33680  -0.32236  -0.31932  -0.31716  -0.26552
 Alpha  occ. eigenvalues --   -0.21944
 Alpha virt. eigenvalues --   -0.08623  -0.01650  -0.00932   0.00479   0.01140
 Alpha virt. eigenvalues --    0.01861   0.03092   0.03871   0.04428   0.04560
 Alpha virt. eigenvalues --    0.06006   0.06728   0.07757   0.07901   0.08277

 Mulliken charges:
               1
     1  Mg   0.439773
     2  C   -0.043511
     3  C   -0.098535
     4  C   -0.087039
     5  C   -0.049092
     6  N   -0.283285
     7  C    0.100549
     8  C    0.003786
     9  C    0.010481
    10  C    0.170511
    11  C   -0.048990
    12  C   -0.022058
    13  C    0.006552
    14  C    0.462977
    15  O   -0.510735
    16  O   -0.270619
    17  N   -0.292451
    18  C    0.145355
    19  C    0.021197
    20  C   -0.046430
    21  C    0.164886
    22  C   -0.040252
    23  C    0.320604
    24  O   -0.508228
    25  C   -0.032929
    26  N   -0.267330
    27  C    0.155772
    28  C    0.010625
    29  C    0.010115
    30  C    0.083247
    31  C   -0.056876
    32  C   -0.024542
    33  C   -0.049655
    34  N   -0.335413
    35  C    0.069573
    36  C    0.018856
    37  C   -0.051221
    38  C    0.121070
    39  C   -0.050865
    40  C    0.325725
    41  O   -0.558760
    42  C    0.057972
    43  C    0.482889
    44  O   -0.534833
    45  O   -0.264086
    46  C    0.076843
    47  C    0.109012
    48  C   -0.109160
    49  C    0.002530
    50  C   -0.037759
    51  C   -0.024522
    52  C   -0.022125
    53  C   -0.027899
    54  C   -0.019939
    55  C   -0.068233
    56  C   -0.035484
    57  C   -0.044285
    58  C   -0.026565
    59  C   -0.015133
    60  C   -0.065793
    61  C   -0.041128
    62  C   -0.034936
    63  C   -0.031416
    64  C   -0.011604
    65  C   -0.048927
    66  C   -0.058528
    67  H    0.019813
    68  H    0.035877
    69  H    0.022176
    70  H    0.051653
    71  H    0.022109
    72  H    0.042072
    73  H    0.016314
    74  H    0.015188
    75  H    0.015897
    76  H    0.028388
    77  H    0.034984
    78  H    0.041587
    79  H    0.030288
    80  H    0.033649
    81  H    0.040671
    82  H    0.038998
    83  H    0.037084
    84  H    0.035267
    85  H    0.049390
    86  H    0.027738
    87  H    0.022557
    88  H    0.011780
    89  H    0.037221
    90  H    0.008118
    91  H    0.019084
    92  H    0.011911
    93  H    0.019366
    94  H    0.018309
    95  H    0.035543
    96  H    0.022339
    97  H    0.029063
    98  H    0.058509
    99  H    0.039936
   100  H    0.054423
   101  H    0.032764
   102  H    0.062073
   103  H    0.042851
   104  H    0.015628
   105  H    0.025746
   106  H    0.023699
   107  H    0.031688
   108  H    0.029092
   109  H    0.002975
   110  H    0.032728
   111  H    0.019850
   112  H    0.024923
   113  H    0.024677
   114  H    0.016856
   115  H    0.016993
   116  H    0.028295
   117  H    0.020971
   118  H    0.021349
   119  H    0.010446
   120  H    0.006815
   121  H    0.015816
   122  H    0.019001
   123  H    0.017069
   124  H    0.023261
   125  H    0.024211
   126  H    0.007336
   127  H    0.023911
   128  H    0.015630
   129  H    0.017247
   130  H    0.024701
   131  H    0.024036
   132  H    0.018174
   133  H    0.014344
   134  H    0.011557
   135  H    0.019933
   136  H    0.013423
   137  H    0.017629
   138  H    0.023485
   139  H    0.018962
   140  H    0.012826
 Sum of Mulliken charges =  -0.00000

 Dipole moment (field-independent basis, Debye):
    X=             -9.6700    Y=              8.2799    Z=              4.8480  Tot=             13.6224
 N-N= 4.334727660216D+03 E-N= 0.000000000000D+00  KE=-9.344232565506D+03
 Leave Link  601 at Wed May  4 06:56:14 2022, MaxMem=  6710886400 cpu:               0.8 elap:               0.0
 (Enter /sw/apps/gaussian-16.0/g16/l9999.exe)
 1\1\GINC-BP1-COMPUTE102\SP\RZINDO CIS\STO-3G\C55H74Mg1N4O6\OF15641\04-
 May-2022\0\\#p ZINDO=(nstates=5)\\step_1401_chromophore_6 ZINDO\\0,1\M
 g,0,17.198,-2.429,28.143\C,0,16.393,-0.194,30.806\C,0,19.168,-4.089,30
 .29\C,0,18.59,-3.86,25.599\C,0,15.692,0.044,26.021\N,0,17.879,-1.986,3
 0.283\C,0,17.214,-1.253,31.247\C,0,17.525,-1.705,32.649\C,0,18.644,-2.
 763,32.367\C,0,18.521,-3.006,30.854\C,0,20.048,-2.329,32.819\C,0,16.30
 3,-2.22,33.484\C,0,16.242,-1.672,34.922\C,0,17.492,-1.039,35.582\O,0,1

 Normal termination of Gaussian 16 at Wed May  4 06:56:14 2022.
