 Gaussian 16, Revision A.03,
 Gaussian 16:  ES64L-G16RevA.03 25-Dec-2016

 ------------------------------
 #p blyp/Def2SVP td=(nstates=5)
 ------------------------------

 -------------------------------------------------
 step_701_chromophore_4 TDDFT with blyp functional
 -------------------------------------------------
 Symbolic Z-matrix:
 Charge =  0 Multiplicity = 1

                         Standard orientation:
 ---------------------------------------------------------------------
 Center     Atomic      Atomic             Coordinates (Angstroms)
 Number     Number       Type             X           Y           Z
 ---------------------------------------------------------------------
      1         12           0        6.014379    0.566933    0.010631
      2          6           0        3.739725   -2.145374    0.066053
      3          6           0        3.321894    2.586656   -1.200904
      4          6           0        7.992862    3.241873   -0.102059
      5          6           0        8.634022   -1.523339    0.806592
      6          7           0        3.806884    0.219553   -0.655625
      7          6           0        3.080271   -0.971264   -0.499577
      8          6           0        1.602415   -0.818579   -0.872999
      9          6           0        1.510514    0.681359   -1.168403
     10          6           0        2.992739    1.261000   -1.108415
     11          6           0        0.746426    1.005770   -2.499681
     12          6           0        0.759667   -1.191408    0.356960
     13          6           0       -0.745995   -1.032406    0.237658
     14          6           0       -1.568480   -2.265616   -0.122625
     15          8           0       -1.156336   -3.424415   -0.190119
     16          8           0       -2.925172   -1.979559   -0.345668
     17          7           0        5.738086    2.644698   -0.555855
     18          6           0        4.575477    3.202373   -1.024511
     19          6           0        4.797196    4.628062   -1.192670
     20          6           0        6.094817    4.939314   -0.626136
     21          6           0        6.700756    3.620293   -0.389652
     22          6           0        3.679855    5.652542   -1.576651
     23          6           0        6.776756    6.234406   -0.317065
     24          8           0        7.921597    6.312211    0.091700
     25          6           0        6.003936    7.473927   -0.464394
     26          7           0        8.048461    0.852212    0.343185
     27          6           0        8.656064    2.070008    0.180590
     28          6           0       10.122084    1.938901    0.411622
     29          6           0       10.307275    0.452719    0.964833
     30          6           0        8.943056   -0.154102    0.629081
     31          6           0       11.112455    2.265449   -0.809216
     32          6           0       10.733945    0.283395    2.427927
     33          6           0       11.681369   -0.762344    2.872745
     34          7           0        6.243099   -1.421574    0.331443
     35          6           0        7.337822   -2.146577    0.651298
     36          6           0        7.026253   -3.543888    0.909806
     37          6           0        5.614456   -3.578450    0.649533
     38          6           0        5.182436   -2.269560    0.374942
     39          6           0        7.975669   -4.660964    1.230796
     40          6           0        4.507759   -4.474911    0.583761
     41          8           0        4.479052   -5.698758    0.688677
     42          6           0        3.211234   -3.597842    0.228455
     43          6           0        2.474782   -4.010747   -0.955210
     44          8           0        2.854974   -3.923358   -2.112926
     45          8           0        1.363181   -4.792620   -0.560106
     46          6           0        0.624951   -5.414008   -1.678674
     47          6           0       -3.867152   -3.104155   -0.412132
     48          6           0       -5.229546   -2.524170   -0.071607
     49          6           0       -6.307185   -3.263892    0.209287
     50          6           0       -6.374109   -4.802771    0.163445
     51          6           0       -7.600892   -2.578155    0.606429
     52          6           0       -8.303784   -1.855532   -0.646288
     53          6           0       -8.403137   -0.388590   -0.380967
     54          6           0       -9.703889    0.391384   -0.641633
     55          6           0       -9.831522    0.671556   -2.179710
     56          6           0       -9.609058    1.804968    0.005544
     57          6           0      -10.001167    1.809286    1.528254
     58          6           0      -10.866257    2.995099    1.945224
     59          6           0      -12.094036    2.486721    2.856454
     60          6           0      -12.254410    3.409120    4.039555
     61          6           0      -13.370197    2.498112    2.011069
     62          6           0      -13.725225    1.123342    1.351696
     63          6           0      -13.470522    1.155589   -0.141676
     64          6           0      -14.644840    0.653870   -0.988772
     65          6           0      -14.155588    0.403763   -2.431910
     66          6           0      -15.864503    1.542228   -0.961078
     67          1           0        2.551840    3.332360   -1.410347
     68          1           0        8.647521    4.115299   -0.077774
     69          1           0        9.387927   -2.154329    1.281336
     70          1           0        1.331738   -1.482181   -1.694816
     71          1           0        0.979064    1.146563   -0.338913
     72          1           0        1.072439    2.022960   -2.718035
     73          1           0       -0.337336    0.894500   -2.482845
     74          1           0        1.230594    0.302589   -3.177999
     75          1           0        1.204266   -0.708954    1.226796
     76          1           0        0.966511   -2.212152    0.677820
     77          1           0       -0.881510   -0.578918   -0.743339
     78          1           0       -1.147438   -0.490230    1.093807
     79          1           0        3.327768    6.158852   -0.677621
     80          1           0        2.782264    5.213794   -2.012569
     81          1           0        4.195684    6.452534   -2.107479
     82          1           0        6.568161    8.296623   -0.026454
     83          1           0        4.978810    7.403260   -0.101686
     84          1           0        5.866494    7.565354   -1.541878
     85          1           0       10.155041    2.604318    1.273890
     86          1           0       11.082962   -0.017504    0.359119
     87          1           0       11.762180    1.475551   -1.187100
     88          1           0       11.781366    3.098913   -0.595537
     89          1           0       10.547596    2.553692   -1.695963
     90          1           0        9.817097   -0.006930    2.940023
     91          1           0       11.113053    1.213334    2.850750
     92          1           0       12.046524   -1.385306    2.055413
     93          1           0       11.206553   -1.382522    3.632742
     94          1           0       12.529324   -0.328498    3.404439
     95          1           0        8.975969   -4.238440    1.326981
     96          1           0        8.037553   -5.371759    0.406669
     97          1           0        7.729985   -5.201065    2.144993
     98          1           0        2.527662   -3.575819    1.077908
     99          1           0        1.307532   -6.104849   -2.173858
    100          1           0        0.325578   -4.736621   -2.477413
    101          1           0       -0.280657   -5.906339   -1.325689
    102          1           0       -3.621022   -3.927011    0.258729
    103          1           0       -3.820779   -3.581026   -1.390725
    104          1           0       -5.290176   -1.437004   -0.032869
    105          1           0       -5.477976   -5.156379   -0.346191
    106          1           0       -7.226039   -5.199960   -0.389472
    107          1           0       -6.396645   -5.215168    1.172271
    108          1           0       -7.279414   -1.911044    1.405754
    109          1           0       -8.332925   -3.294661    0.979260
    110          1           0       -9.335561   -2.202656   -0.681496
    111          1           0       -7.762327   -1.966059   -1.586136
    112          1           0       -7.621852    0.084493   -0.976633
    113          1           0       -8.299955   -0.291320    0.700634
    114          1           0      -10.431497   -0.305368   -0.225050
    115          1           0      -10.814709    0.548188   -2.633939
    116          1           0       -9.149182    0.141592   -2.844460
    117          1           0       -9.461932    1.666314   -2.430649
    118          1           0      -10.304112    2.452313   -0.529482
    119          1           0       -8.571727    2.132045    0.081560
    120          1           0       -9.039371    1.879670    2.037366
    121          1           0      -10.386453    0.842378    1.850123
    122          1           0      -11.215654    3.535248    1.065489
    123          1           0      -10.299908    3.652738    2.604528
    124          1           0      -11.984186    1.490142    3.285189
    125          1           0      -12.693184    2.847812    4.863999
    126          1           0      -12.890586    4.260447    3.796314
    127          1           0      -11.277902    3.771027    4.363540
    128          1           0      -13.287212    3.308062    1.286425
    129          1           0      -14.246668    2.706785    2.623512
    130          1           0      -14.782149    0.964811    1.565296
    131          1           0      -13.159805    0.247241    1.666942
    132          1           0      -12.647597    0.531168   -0.490419
    133          1           0      -13.222914    2.167358   -0.462563
    134          1           0      -14.864060   -0.315119   -0.540362
    135          1           0      -14.975696    0.465374   -3.146961
    136          1           0      -13.711776   -0.589394   -2.507498
    137          1           0      -13.398990    1.143146   -2.691891
    138          1           0      -15.705899    2.501361   -0.468343
    139          1           0      -16.679622    1.081118   -0.403372
    140          1           0      -16.225947    1.761184   -1.965838
 ---------------------------------------------------------------------

 SCF Done:  E(RB-LYP) =  -3007.37602327     A.U. after   22 cycles

 Excitation energies and oscillator strengths:

 Excited State   1:      Singlet-A      1.7934 eV  691.34 nm  f=0.2775  <S**2>=0.000
     244 -> 247       -0.15695
     245 -> 247       -0.14018
     245 -> 248       -0.18583
     246 -> 247        0.65685
     246 <- 247       -0.14458
 This state for optimization and/or second-order correction.
 Total Energy, E(TD-HF/TD-DFT) =  -3007.31011760
 Copying the excited state density for this state as the 1-particle RhoCI density.

 Excited State   2:      Singlet-A      1.8432 eV  672.64 nm  f=0.0751  <S**2>=0.000
     243 -> 247        0.12782
     244 -> 247        0.49449
     245 -> 247        0.42248
     246 -> 247        0.21283
     246 -> 248        0.10046

 Excited State   3:      Singlet-A      1.9223 eV  644.98 nm  f=0.0090  <S**2>=0.000
     243 -> 247        0.58380
     244 -> 247       -0.33867
     245 -> 247        0.19582

 Excited State   4:      Singlet-A      1.9872 eV  623.90 nm  f=0.0520  <S**2>=0.000
     243 -> 247       -0.37211
     244 -> 247       -0.33653
     245 -> 247        0.45626
     246 -> 248        0.17285

 Excited State   5:      Singlet-A      2.2537 eV  550.12 nm  f=0.0001  <S**2>=0.000
     242 -> 247        0.70697

 The electronic state is 1-A.
 Alpha  occ. eigenvalues --  -46.27296 -18.81955 -18.80063 -18.77282 -18.75913
 Alpha  occ. eigenvalues --  -18.75546 -18.75470 -14.03636 -14.02991 -14.01128
 Alpha  occ. eigenvalues --  -14.00961 -10.04795 -10.02576  -9.99558  -9.99509
 Alpha  occ. eigenvalues --   -9.98159  -9.97516  -9.96849  -9.96581  -9.96313
 Alpha  occ. eigenvalues --   -9.95768  -9.95690  -9.95644  -9.95587  -9.95164
 Alpha  occ. eigenvalues --   -9.94752  -9.94700  -9.94632  -9.94171  -9.94142
 Alpha  occ. eigenvalues --   -9.94074  -9.93900  -9.93871  -9.93600  -9.93522
 Alpha  occ. eigenvalues --   -9.93147  -9.93066  -9.92935  -9.92897  -9.92784
 Alpha  occ. eigenvalues --   -9.92692  -9.92659  -9.92627  -9.92522  -9.92251
 Alpha  occ. eigenvalues --   -9.92207  -9.92061  -9.91878  -9.91722  -9.91634
 Alpha  occ. eigenvalues --   -9.91619  -9.91540  -9.91470  -9.91337  -9.91237
 Alpha  occ. eigenvalues --   -9.91160  -9.91147  -9.90940  -9.90826  -9.90729
 Alpha  occ. eigenvalues --   -9.90714  -9.90602  -9.90503  -9.90475  -9.90355
 Alpha  occ. eigenvalues --   -9.90278  -2.91845  -1.72285  -1.71700  -1.71574
 Alpha  occ. eigenvalues --   -0.97041  -0.95158  -0.91971  -0.90655  -0.89446
 Alpha  occ. eigenvalues --   -0.87946  -0.86494  -0.85548  -0.84824  -0.83871
 Alpha  occ. eigenvalues --   -0.74534  -0.73865  -0.73605  -0.73149  -0.72414
 Alpha  occ. eigenvalues --   -0.72203  -0.71647  -0.71244  -0.70598  -0.70151
 Alpha  occ. eigenvalues --   -0.69738  -0.69299  -0.68127  -0.67535  -0.67165
 Alpha  occ. eigenvalues --   -0.66431  -0.66164  -0.65554  -0.65037  -0.64332
 Alpha  occ. eigenvalues --   -0.63859  -0.62716  -0.62420  -0.61720  -0.60644
 Alpha  occ. eigenvalues --   -0.60395  -0.60274  -0.59629  -0.59113  -0.58918
 Alpha  occ. eigenvalues --   -0.58142  -0.57805  -0.56741  -0.55815  -0.54481
 Alpha  occ. eigenvalues --   -0.54202  -0.53862  -0.52864  -0.52598  -0.51309
 Alpha  occ. eigenvalues --   -0.51211  -0.50943  -0.50791  -0.50318  -0.49777
 Alpha  occ. eigenvalues --   -0.49553  -0.49006  -0.48621  -0.47136  -0.46400
 Alpha  occ. eigenvalues --   -0.46303  -0.45653  -0.45408  -0.45213  -0.44405
 Alpha  occ. eigenvalues --   -0.44000  -0.43603  -0.43395  -0.42641  -0.42144
 Alpha  occ. eigenvalues --   -0.41805  -0.41676  -0.41636  -0.41443  -0.41211
 Alpha  occ. eigenvalues --   -0.40843  -0.40327  -0.40202  -0.40034  -0.39980
 Alpha  occ. eigenvalues --   -0.39870  -0.39594  -0.39560  -0.39086  -0.38995
 Alpha  occ. eigenvalues --   -0.38954  -0.38626  -0.38540  -0.38311  -0.38185
 Alpha  occ. eigenvalues --   -0.37872  -0.37769  -0.37663  -0.37406  -0.37323
 Alpha  occ. eigenvalues --   -0.37152  -0.37000  -0.36672  -0.36430  -0.36299
 Alpha  occ. eigenvalues --   -0.36146  -0.36075  -0.35910  -0.35589  -0.35509
 Alpha  occ. eigenvalues --   -0.35476  -0.35260  -0.35177  -0.34842  -0.34729
 Alpha  occ. eigenvalues --   -0.34474  -0.34361  -0.33964  -0.33931  -0.33809
 Alpha  occ. eigenvalues --   -0.33660  -0.33482  -0.33193  -0.33190  -0.32988
 Alpha  occ. eigenvalues --   -0.32870  -0.32854  -0.32677  -0.32552  -0.32272
 Alpha  occ. eigenvalues --   -0.32185  -0.32132  -0.31922  -0.31671  -0.31546
 Alpha  occ. eigenvalues --   -0.31249  -0.30952  -0.30602  -0.30465  -0.30408
 Alpha  occ. eigenvalues --   -0.30311  -0.30238  -0.30223  -0.29926  -0.29853
 Alpha  occ. eigenvalues --   -0.29729  -0.29364  -0.29157  -0.28874  -0.28791
 Alpha  occ. eigenvalues --   -0.28558  -0.28549  -0.28479  -0.28178  -0.27773
 Alpha  occ. eigenvalues --   -0.27677  -0.27115  -0.27094  -0.26671  -0.26514
 Alpha  occ. eigenvalues --   -0.26338  -0.26109  -0.25382  -0.25217  -0.24942
 Alpha  occ. eigenvalues --   -0.24730  -0.24038  -0.23786  -0.23780  -0.23458
 Alpha  occ. eigenvalues --   -0.23313  -0.22085  -0.21767  -0.20910  -0.20729
 Alpha  occ. eigenvalues --   -0.20417  -0.20175  -0.18917  -0.18717  -0.17108
 Alpha  occ. eigenvalues --   -0.16105
 Alpha virt. eigenvalues --   -0.11893  -0.06853  -0.06280  -0.04614  -0.03300
 Alpha virt. eigenvalues --   -0.02609  -0.02302  -0.01740  -0.01069  -0.00084
 Alpha virt. eigenvalues --    0.01082   0.01549   0.02223   0.02417   0.02928

 Mulliken charges:
               1
     1  Mg   0.692762
     2  C   -0.031827
     3  C   -0.080761
     4  C   -0.033480
     5  C   -0.068834
     6  N   -0.224774
     7  C   -0.037562
     8  C    0.040769
     9  C    0.000685
    10  C    0.071142
    11  C    0.113591
    12  C    0.066685
    13  C    0.163034
    14  C    0.073828
    15  O   -0.183012
    16  O   -0.303418
    17  N   -0.268679
    18  C    0.134355
    19  C   -0.164448
    20  C    0.045432
    21  C    0.078018
    22  C    0.157421
    23  C   -0.090463
    24  O   -0.156319
    25  C    0.141864
    26  N   -0.261119
    27  C    0.016604
    28  C    0.064852
    29  C    0.014994
    30  C    0.050783
    31  C    0.122142
    32  C    0.088724
    33  C    0.081224
    34  N   -0.266619
    35  C    0.090183
    36  C   -0.159259
    37  C    0.090276
    38  C    0.060526
    39  C    0.181291
    40  C   -0.034856
    41  O   -0.128273
    42  C    0.065744
    43  C    0.111062
    44  O   -0.186367
    45  O   -0.287413
    46  C    0.250177
    47  C    0.304596
    48  C   -0.104926
    49  C   -0.151675
    50  C    0.139383
    51  C    0.128151
    52  C    0.131019
    53  C    0.018580
    54  C   -0.061261
    55  C    0.099147
    56  C    0.106750
    57  C    0.047169
    58  C    0.146363
    59  C   -0.087790
    60  C    0.114670
    61  C    0.096919
    62  C    0.119723
    63  C    0.043999
    64  C   -0.112288
    65  C    0.099372
    66  C    0.127655
    67  H   -0.060666
    68  H   -0.052087
    69  H   -0.056503
    70  H   -0.002971
    71  H   -0.024038
    72  H   -0.017395
    73  H    0.011162
    74  H    0.000702
    75  H   -0.041041
    76  H   -0.009449
    77  H   -0.001977
    78  H    0.023569
    79  H    0.005563
    80  H    0.004117
    81  H   -0.006619
    82  H   -0.000622
    83  H   -0.005502
    84  H    0.007201
    85  H   -0.017424
    86  H   -0.034827
    87  H   -0.004644
    88  H    0.000339
    89  H   -0.007303
    90  H   -0.021466
    91  H   -0.018949
    92  H   -0.008266
    93  H   -0.013475
    94  H   -0.016712
    95  H   -0.030931
    96  H    0.015491
    97  H    0.012482
    98  H    0.007793
    99  H    0.000362
   100  H   -0.009412
   101  H    0.013311
   102  H    0.005058
   103  H    0.001552
   104  H   -0.031637
   105  H   -0.020797
   106  H   -0.000492
   107  H    0.007340
   108  H   -0.001144
   109  H   -0.041575
   110  H   -0.043385
   111  H   -0.012267
   112  H   -0.030250
   113  H   -0.040828
   114  H   -0.025951
   115  H   -0.007831
   116  H   -0.038310
   117  H   -0.029639
   118  H   -0.017443
   119  H   -0.025428
   120  H   -0.038203
   121  H   -0.027781
   122  H   -0.026967
   123  H   -0.042968
   124  H   -0.037417
   125  H   -0.022502
   126  H   -0.017087
   127  H   -0.026585
   128  H   -0.029223
   129  H   -0.046612
   130  H   -0.034139
   131  H   -0.029773
   132  H   -0.026394
   133  H   -0.036337
   134  H   -0.041114
   135  H   -0.022738
   136  H   -0.015721
   137  H   -0.006178
   138  H   -0.024254
   139  H   -0.018024
   140  H   -0.023008
 Sum of Mulliken charges =  -0.00000

 Dipole moment (field-independent basis, Debye):
    X=             -3.2252    Y=              3.5342    Z=              1.3525  Tot=              4.9721
 Quadrupole moment (field-independent basis, Debye-Ang):
   XX=           -373.0688   YY=           -433.2199   ZZ=           -405.7257
   XY=              9.9105   XZ=              8.6153   YZ=             -6.8537

 Normal termination of Gaussian 16 at Thu May  5 07:42:32 2022.
