 Gaussian 16, Revision A.03,
 Gaussian 16:  ES64L-G16RevA.03 25-Dec-2016

 -----------------------------------
 #p cam-b3lyp/Def2SVP td=(nstates=5)
 -----------------------------------

 ------------------------------------------------------
 step_701_chromophore_4 TDDFT with cam-b3lyp functional
 ------------------------------------------------------
 Symbolic Z-matrix:
 Charge =  0 Multiplicity = 1

                         Standard orientation:
 ---------------------------------------------------------------------
 Center     Atomic      Atomic             Coordinates (Angstroms)
 Number     Number       Type             X           Y           Z
 ---------------------------------------------------------------------
      1         12           0        6.014379    0.566933    0.010631
      2          6           0        3.739725   -2.145374    0.066053
      3          6           0        3.321894    2.586656   -1.200904
      4          6           0        7.992862    3.241873   -0.102059
      5          6           0        8.634022   -1.523339    0.806592
      6          7           0        3.806884    0.219553   -0.655625
      7          6           0        3.080271   -0.971264   -0.499577
      8          6           0        1.602415   -0.818579   -0.872999
      9          6           0        1.510514    0.681359   -1.168403
     10          6           0        2.992739    1.261000   -1.108415
     11          6           0        0.746426    1.005770   -2.499681
     12          6           0        0.759667   -1.191408    0.356960
     13          6           0       -0.745995   -1.032406    0.237658
     14          6           0       -1.568480   -2.265616   -0.122625
     15          8           0       -1.156336   -3.424415   -0.190119
     16          8           0       -2.925172   -1.979559   -0.345668
     17          7           0        5.738086    2.644698   -0.555855
     18          6           0        4.575477    3.202373   -1.024511
     19          6           0        4.797196    4.628062   -1.192670
     20          6           0        6.094817    4.939314   -0.626136
     21          6           0        6.700756    3.620293   -0.389652
     22          6           0        3.679855    5.652542   -1.576651
     23          6           0        6.776756    6.234406   -0.317065
     24          8           0        7.921597    6.312211    0.091700
     25          6           0        6.003936    7.473927   -0.464394
     26          7           0        8.048461    0.852212    0.343185
     27          6           0        8.656064    2.070008    0.180590
     28          6           0       10.122084    1.938901    0.411622
     29          6           0       10.307275    0.452719    0.964833
     30          6           0        8.943056   -0.154102    0.629081
     31          6           0       11.112455    2.265449   -0.809216
     32          6           0       10.733945    0.283395    2.427927
     33          6           0       11.681369   -0.762344    2.872745
     34          7           0        6.243099   -1.421574    0.331443
     35          6           0        7.337822   -2.146577    0.651298
     36          6           0        7.026253   -3.543888    0.909806
     37          6           0        5.614456   -3.578450    0.649533
     38          6           0        5.182436   -2.269560    0.374942
     39          6           0        7.975669   -4.660964    1.230796
     40          6           0        4.507759   -4.474911    0.583761
     41          8           0        4.479052   -5.698758    0.688677
     42          6           0        3.211234   -3.597842    0.228455
     43          6           0        2.474782   -4.010747   -0.955210
     44          8           0        2.854974   -3.923358   -2.112926
     45          8           0        1.363181   -4.792620   -0.560106
     46          6           0        0.624951   -5.414008   -1.678674
     47          6           0       -3.867152   -3.104155   -0.412132
     48          6           0       -5.229546   -2.524170   -0.071607
     49          6           0       -6.307185   -3.263892    0.209287
     50          6           0       -6.374109   -4.802771    0.163445
     51          6           0       -7.600892   -2.578155    0.606429
     52          6           0       -8.303784   -1.855532   -0.646288
     53          6           0       -8.403137   -0.388590   -0.380967
     54          6           0       -9.703889    0.391384   -0.641633
     55          6           0       -9.831522    0.671556   -2.179710
     56          6           0       -9.609058    1.804968    0.005544
     57          6           0      -10.001167    1.809286    1.528254
     58          6           0      -10.866257    2.995099    1.945224
     59          6           0      -12.094036    2.486721    2.856454
     60          6           0      -12.254410    3.409120    4.039555
     61          6           0      -13.370197    2.498112    2.011069
     62          6           0      -13.725225    1.123342    1.351696
     63          6           0      -13.470522    1.155589   -0.141676
     64          6           0      -14.644840    0.653870   -0.988772
     65          6           0      -14.155588    0.403763   -2.431910
     66          6           0      -15.864503    1.542228   -0.961078
     67          1           0        2.551840    3.332360   -1.410347
     68          1           0        8.647521    4.115299   -0.077774
     69          1           0        9.387927   -2.154329    1.281336
     70          1           0        1.331738   -1.482181   -1.694816
     71          1           0        0.979064    1.146563   -0.338913
     72          1           0        1.072439    2.022960   -2.718035
     73          1           0       -0.337336    0.894500   -2.482845
     74          1           0        1.230594    0.302589   -3.177999
     75          1           0        1.204266   -0.708954    1.226796
     76          1           0        0.966511   -2.212152    0.677820
     77          1           0       -0.881510   -0.578918   -0.743339
     78          1           0       -1.147438   -0.490230    1.093807
     79          1           0        3.327768    6.158852   -0.677621
     80          1           0        2.782264    5.213794   -2.012569
     81          1           0        4.195684    6.452534   -2.107479
     82          1           0        6.568161    8.296623   -0.026454
     83          1           0        4.978810    7.403260   -0.101686
     84          1           0        5.866494    7.565354   -1.541878
     85          1           0       10.155041    2.604318    1.273890
     86          1           0       11.082962   -0.017504    0.359119
     87          1           0       11.762180    1.475551   -1.187100
     88          1           0       11.781366    3.098913   -0.595537
     89          1           0       10.547596    2.553692   -1.695963
     90          1           0        9.817097   -0.006930    2.940023
     91          1           0       11.113053    1.213334    2.850750
     92          1           0       12.046524   -1.385306    2.055413
     93          1           0       11.206553   -1.382522    3.632742
     94          1           0       12.529324   -0.328498    3.404439
     95          1           0        8.975969   -4.238440    1.326981
     96          1           0        8.037553   -5.371759    0.406669
     97          1           0        7.729985   -5.201065    2.144993
     98          1           0        2.527662   -3.575819    1.077908
     99          1           0        1.307532   -6.104849   -2.173858
    100          1           0        0.325578   -4.736621   -2.477413
    101          1           0       -0.280657   -5.906339   -1.325689
    102          1           0       -3.621022   -3.927011    0.258729
    103          1           0       -3.820779   -3.581026   -1.390725
    104          1           0       -5.290176   -1.437004   -0.032869
    105          1           0       -5.477976   -5.156379   -0.346191
    106          1           0       -7.226039   -5.199960   -0.389472
    107          1           0       -6.396645   -5.215168    1.172271
    108          1           0       -7.279414   -1.911044    1.405754
    109          1           0       -8.332925   -3.294661    0.979260
    110          1           0       -9.335561   -2.202656   -0.681496
    111          1           0       -7.762327   -1.966059   -1.586136
    112          1           0       -7.621852    0.084493   -0.976633
    113          1           0       -8.299955   -0.291320    0.700634
    114          1           0      -10.431497   -0.305368   -0.225050
    115          1           0      -10.814709    0.548188   -2.633939
    116          1           0       -9.149182    0.141592   -2.844460
    117          1           0       -9.461932    1.666314   -2.430649
    118          1           0      -10.304112    2.452313   -0.529482
    119          1           0       -8.571727    2.132045    0.081560
    120          1           0       -9.039371    1.879670    2.037366
    121          1           0      -10.386453    0.842378    1.850123
    122          1           0      -11.215654    3.535248    1.065489
    123          1           0      -10.299908    3.652738    2.604528
    124          1           0      -11.984186    1.490142    3.285189
    125          1           0      -12.693184    2.847812    4.863999
    126          1           0      -12.890586    4.260447    3.796314
    127          1           0      -11.277902    3.771027    4.363540
    128          1           0      -13.287212    3.308062    1.286425
    129          1           0      -14.246668    2.706785    2.623512
    130          1           0      -14.782149    0.964811    1.565296
    131          1           0      -13.159805    0.247241    1.666942
    132          1           0      -12.647597    0.531168   -0.490419
    133          1           0      -13.222914    2.167358   -0.462563
    134          1           0      -14.864060   -0.315119   -0.540362
    135          1           0      -14.975696    0.465374   -3.146961
    136          1           0      -13.711776   -0.589394   -2.507498
    137          1           0      -13.398990    1.143146   -2.691891
    138          1           0      -15.705899    2.501361   -0.468343
    139          1           0      -16.679622    1.081118   -0.403372
    140          1           0      -16.225947    1.761184   -1.965838
 ---------------------------------------------------------------------

 SCF Done:  E(RCAM-B3LYP) =  -3007.16529253     A.U. after   19 cycles

 Excitation energies and oscillator strengths:

 Excited State   1:      Singlet-A      1.6795 eV  738.22 nm  f=0.3989  <S**2>=0.000
     245 -> 248        0.17990
     246 -> 247        0.68577
     245 <- 248        0.10900
 This state for optimization and/or second-order correction.
 Total Energy, E(TD-HF/TD-DFT) =  -3007.10357186
 Copying the excited state density for this state as the 1-particle RhoCI density.

 Excited State   2:      Singlet-A      2.1217 eV  584.36 nm  f=0.1524  <S**2>=0.000
     245 -> 247        0.65883
     246 -> 248       -0.24436

 Excited State   3:      Singlet-A      3.2884 eV  377.04 nm  f=0.0034  <S**2>=0.000
     242 -> 247       -0.41806
     244 -> 247        0.55053

 Excited State   4:      Singlet-A      3.4378 eV  360.65 nm  f=0.0221  <S**2>=0.000
     241 -> 247        0.56582
     241 -> 249        0.25994
     241 -> 250       -0.18585
     246 -> 248        0.15723

 Excited State   5:      Singlet-A      3.4488 eV  359.50 nm  f=0.0043  <S**2>=0.000
     240 -> 247       -0.10291
     242 -> 247        0.51287
     244 -> 247        0.41541
     246 -> 248        0.17003

 The electronic state is 1-A.
 Alpha  occ. eigenvalues --  -46.88853 -19.24798 -19.22921 -19.20292 -19.19107
 Alpha  occ. eigenvalues --  -19.18875 -19.18491 -14.42579 -14.41877 -14.39543
 Alpha  occ. eigenvalues --  -14.39443 -10.40174 -10.38148 -10.34918 -10.34725
 Alpha  occ. eigenvalues --  -10.32164 -10.32061 -10.31525 -10.30902 -10.30873
 Alpha  occ. eigenvalues --  -10.30263 -10.30255 -10.29801 -10.29632 -10.29491
 Alpha  occ. eigenvalues --  -10.29391 -10.29122 -10.28731 -10.28290 -10.28147
 Alpha  occ. eigenvalues --  -10.28109 -10.28097 -10.28059 -10.27841 -10.27577
 Alpha  occ. eigenvalues --  -10.27472 -10.27261 -10.27224 -10.26896 -10.26846
 Alpha  occ. eigenvalues --  -10.26485 -10.26418 -10.26295 -10.26084 -10.26066
 Alpha  occ. eigenvalues --  -10.26004 -10.25933 -10.25638 -10.25629 -10.25561
 Alpha  occ. eigenvalues --  -10.25385 -10.25176 -10.25152 -10.25036 -10.24992
 Alpha  occ. eigenvalues --  -10.24944 -10.24849 -10.24589 -10.24494 -10.24392
 Alpha  occ. eigenvalues --  -10.24349 -10.24213 -10.24135 -10.24034 -10.23930
 Alpha  occ. eigenvalues --  -10.23923  -3.17305  -1.92223  -1.91734  -1.91625
 Alpha  occ. eigenvalues --   -1.15446  -1.13698  -1.10598  -1.08829  -1.07240
 Alpha  occ. eigenvalues --   -1.05788  -1.04036  -1.03188  -1.02527  -1.01458
 Alpha  occ. eigenvalues --   -0.91582  -0.90751  -0.90476  -0.89973  -0.89155
 Alpha  occ. eigenvalues --   -0.88919  -0.88284  -0.87863  -0.87179  -0.87032
 Alpha  occ. eigenvalues --   -0.86157  -0.85659  -0.84382  -0.83704  -0.83361
 Alpha  occ. eigenvalues --   -0.82594  -0.82357  -0.81613  -0.80943  -0.80136
 Alpha  occ. eigenvalues --   -0.79604  -0.78585  -0.78001  -0.77197  -0.75993
 Alpha  occ. eigenvalues --   -0.75731  -0.75654  -0.74880  -0.74380  -0.74163
 Alpha  occ. eigenvalues --   -0.73162  -0.72790  -0.71708  -0.70641  -0.69071
 Alpha  occ. eigenvalues --   -0.68766  -0.68409  -0.67461  -0.67030  -0.65452
 Alpha  occ. eigenvalues --   -0.65345  -0.65166  -0.64911  -0.64179  -0.63604
 Alpha  occ. eigenvalues --   -0.63489  -0.62958  -0.62512  -0.60804  -0.60134
 Alpha  occ. eigenvalues --   -0.59892  -0.59060  -0.58872  -0.58483  -0.57789
 Alpha  occ. eigenvalues --   -0.57314  -0.57000  -0.56696  -0.56034  -0.55201
 Alpha  occ. eigenvalues --   -0.54953  -0.54708  -0.54455  -0.54183  -0.54058
 Alpha  occ. eigenvalues --   -0.53460  -0.53272  -0.53215  -0.52763  -0.52582
 Alpha  occ. eigenvalues --   -0.52525  -0.52300  -0.52215  -0.52112  -0.51630
 Alpha  occ. eigenvalues --   -0.51416  -0.51171  -0.50921  -0.50788  -0.50553
 Alpha  occ. eigenvalues --   -0.50455  -0.50190  -0.50101  -0.50004  -0.49903
 Alpha  occ. eigenvalues --   -0.49520  -0.49446  -0.48940  -0.48889  -0.48714
 Alpha  occ. eigenvalues --   -0.48544  -0.48362  -0.48090  -0.47791  -0.47522
 Alpha  occ. eigenvalues --   -0.47424  -0.47311  -0.47061  -0.46832  -0.46605
 Alpha  occ. eigenvalues --   -0.46383  -0.46334  -0.45755  -0.45650  -0.45509
 Alpha  occ. eigenvalues --   -0.45339  -0.45296  -0.45095  -0.44856  -0.44784
 Alpha  occ. eigenvalues --   -0.44557  -0.44530  -0.44335  -0.44146  -0.43891
 Alpha  occ. eigenvalues --   -0.43793  -0.43701  -0.43567  -0.43482  -0.43026
 Alpha  occ. eigenvalues --   -0.42903  -0.42700  -0.42100  -0.41991  -0.41867
 Alpha  occ. eigenvalues --   -0.41735  -0.41433  -0.41414  -0.41168  -0.41114
 Alpha  occ. eigenvalues --   -0.41079  -0.40919  -0.40310  -0.40283  -0.40175
 Alpha  occ. eigenvalues --   -0.39814  -0.39582  -0.39382  -0.39113  -0.38834
 Alpha  occ. eigenvalues --   -0.38622  -0.38109  -0.37956  -0.37893  -0.37261
 Alpha  occ. eigenvalues --   -0.37069  -0.36802  -0.36723  -0.36370  -0.35520
 Alpha  occ. eigenvalues --   -0.35233  -0.35169  -0.34498  -0.34495  -0.34161
 Alpha  occ. eigenvalues --   -0.33798  -0.33351  -0.32793  -0.31579  -0.31233
 Alpha  occ. eigenvalues --   -0.30461  -0.29964  -0.29805  -0.29734  -0.23800
 Alpha  occ. eigenvalues --   -0.21486
 Alpha virt. eigenvalues --   -0.09187  -0.01640   0.00146   0.02280   0.03005
 Alpha virt. eigenvalues --    0.04646   0.04944   0.05643   0.05938   0.06364
 Alpha virt. eigenvalues --    0.08034   0.08396   0.08435   0.08876   0.09257

 Mulliken charges:
               1
     1  Mg   0.824437
     2  C   -0.046268
     3  C   -0.096478
     4  C   -0.057278
     5  C   -0.071039
     6  N   -0.291250
     7  C    0.003514
     8  C   -0.011759
     9  C   -0.058499
    10  C    0.094039
    11  C    0.061703
    12  C    0.016130
    13  C    0.085615
    14  C    0.161875
    15  O   -0.223598
    16  O   -0.370101
    17  N   -0.354410
    18  C    0.148083
    19  C   -0.164073
    20  C   -0.024150
    21  C    0.104948
    22  C    0.098373
    23  C   -0.005600
    24  O   -0.197363
    25  C    0.053820
    26  N   -0.336294
    27  C    0.046346
    28  C    0.001071
    29  C   -0.033005
    30  C    0.065508
    31  C    0.063456
    32  C    0.031092
    33  C    0.014306
    34  N   -0.357982
    35  C    0.092579
    36  C   -0.156430
    37  C    0.007982
    38  C    0.092853
    39  C    0.133998
    40  C    0.063952
    41  O   -0.169008
    42  C   -0.016370
    43  C    0.197817
    44  O   -0.220251
    45  O   -0.349892
    46  C    0.207271
    47  C    0.275227
    48  C   -0.125291
    49  C   -0.176150
    50  C    0.080118
    51  C    0.066705
    52  C    0.072877
    53  C   -0.020253
    54  C   -0.119028
    55  C    0.040455
    56  C    0.052199
    57  C   -0.002181
    58  C    0.091299
    59  C   -0.143447
    60  C    0.056130
    61  C    0.041734
    62  C    0.059752
    63  C    0.002629
    64  C   -0.166136
    65  C    0.040569
    66  C    0.062071
    67  H   -0.027193
    68  H   -0.011122
    69  H   -0.023993
    70  H    0.029766
    71  H    0.010901
    72  H    0.005837
    73  H    0.034889
    74  H    0.024760
    75  H   -0.004699
    76  H    0.020332
    77  H    0.026558
    78  H    0.056686
    79  H    0.032745
    80  H    0.031682
    81  H    0.019252
    82  H    0.036043
    83  H    0.023419
    84  H    0.033776
    85  H    0.018228
    86  H    0.000151
    87  H    0.020273
    88  H    0.024498
    89  H    0.018126
    90  H    0.009018
    91  H    0.009531
    92  H    0.013991
    93  H    0.011065
    94  H    0.008942
    95  H   -0.007380
    96  H    0.041133
    97  H    0.037672
    98  H    0.051754
    99  H    0.024972
   100  H    0.013421
   101  H    0.037537
   102  H    0.032937
   103  H    0.027484
   104  H    0.004012
   105  H    0.002218
   106  H    0.023939
   107  H    0.031767
   108  H    0.027817
   109  H   -0.009254
   110  H   -0.013335
   111  H    0.015839
   112  H   -0.004396
   113  H   -0.014931
   114  H    0.000450
   115  H    0.013120
   116  H   -0.012369
   117  H   -0.003069
   118  H    0.009064
   119  H    0.004403
   120  H   -0.009554
   121  H   -0.002911
   122  H   -0.000992
   123  H   -0.012161
   124  H   -0.005405
   125  H    0.002749
   126  H    0.006547
   127  H   -0.002043
   128  H   -0.002533
   129  H   -0.014603
   130  H   -0.004043
   131  H   -0.001733
   132  H   -0.002933
   133  H   -0.012397
   134  H   -0.009248
   135  H    0.002878
   136  H    0.008195
   137  H    0.014321
   138  H   -0.000380
   139  H    0.006497
   140  H    0.002537
 Sum of Mulliken charges =  -0.00000

 Dipole moment (field-independent basis, Debye):
    X=             -3.4030    Y=              4.5159    Z=              1.2503  Tot=              5.7911
 Quadrupole moment (field-independent basis, Debye-Ang):
   XX=           -373.2599   YY=           -429.0787   ZZ=           -405.5876
   XY=             14.4040   XZ=              8.7870   YZ=             -7.5596

 Normal termination of Gaussian 16 at Thu May  5 06:24:40 2022.
