 Gaussian 16, Revision A.03,
 Gaussian 16:  ES64L-G16RevA.03 25-Dec-2016

 ---------------------------------
 #p PBE1PBE/Def2SVP td=(nstates=5)
 ---------------------------------

 ----------------------------------------------------
 step_701_chromophore_4 TDDFT with PBE1PBE functional
 ----------------------------------------------------
 Symbolic Z-matrix:
 Charge =  0 Multiplicity = 1

                         Standard orientation:
 ---------------------------------------------------------------------
 Center     Atomic      Atomic             Coordinates (Angstroms)
 Number     Number       Type             X           Y           Z
 ---------------------------------------------------------------------
      1         12           0        6.014379    0.566933    0.010631
      2          6           0        3.739725   -2.145374    0.066053
      3          6           0        3.321894    2.586656   -1.200904
      4          6           0        7.992862    3.241873   -0.102059
      5          6           0        8.634022   -1.523339    0.806592
      6          7           0        3.806884    0.219553   -0.655625
      7          6           0        3.080271   -0.971264   -0.499577
      8          6           0        1.602415   -0.818579   -0.872999
      9          6           0        1.510514    0.681359   -1.168403
     10          6           0        2.992739    1.261000   -1.108415
     11          6           0        0.746426    1.005770   -2.499681
     12          6           0        0.759667   -1.191408    0.356960
     13          6           0       -0.745995   -1.032406    0.237658
     14          6           0       -1.568480   -2.265616   -0.122625
     15          8           0       -1.156336   -3.424415   -0.190119
     16          8           0       -2.925172   -1.979559   -0.345668
     17          7           0        5.738086    2.644698   -0.555855
     18          6           0        4.575477    3.202373   -1.024511
     19          6           0        4.797196    4.628062   -1.192670
     20          6           0        6.094817    4.939314   -0.626136
     21          6           0        6.700756    3.620293   -0.389652
     22          6           0        3.679855    5.652542   -1.576651
     23          6           0        6.776756    6.234406   -0.317065
     24          8           0        7.921597    6.312211    0.091700
     25          6           0        6.003936    7.473927   -0.464394
     26          7           0        8.048461    0.852212    0.343185
     27          6           0        8.656064    2.070008    0.180590
     28          6           0       10.122084    1.938901    0.411622
     29          6           0       10.307275    0.452719    0.964833
     30          6           0        8.943056   -0.154102    0.629081
     31          6           0       11.112455    2.265449   -0.809216
     32          6           0       10.733945    0.283395    2.427927
     33          6           0       11.681369   -0.762344    2.872745
     34          7           0        6.243099   -1.421574    0.331443
     35          6           0        7.337822   -2.146577    0.651298
     36          6           0        7.026253   -3.543888    0.909806
     37          6           0        5.614456   -3.578450    0.649533
     38          6           0        5.182436   -2.269560    0.374942
     39          6           0        7.975669   -4.660964    1.230796
     40          6           0        4.507759   -4.474911    0.583761
     41          8           0        4.479052   -5.698758    0.688677
     42          6           0        3.211234   -3.597842    0.228455
     43          6           0        2.474782   -4.010747   -0.955210
     44          8           0        2.854974   -3.923358   -2.112926
     45          8           0        1.363181   -4.792620   -0.560106
     46          6           0        0.624951   -5.414008   -1.678674
     47          6           0       -3.867152   -3.104155   -0.412132
     48          6           0       -5.229546   -2.524170   -0.071607
     49          6           0       -6.307185   -3.263892    0.209287
     50          6           0       -6.374109   -4.802771    0.163445
     51          6           0       -7.600892   -2.578155    0.606429
     52          6           0       -8.303784   -1.855532   -0.646288
     53          6           0       -8.403137   -0.388590   -0.380967
     54          6           0       -9.703889    0.391384   -0.641633
     55          6           0       -9.831522    0.671556   -2.179710
     56          6           0       -9.609058    1.804968    0.005544
     57          6           0      -10.001167    1.809286    1.528254
     58          6           0      -10.866257    2.995099    1.945224
     59          6           0      -12.094036    2.486721    2.856454
     60          6           0      -12.254410    3.409120    4.039555
     61          6           0      -13.370197    2.498112    2.011069
     62          6           0      -13.725225    1.123342    1.351696
     63          6           0      -13.470522    1.155589   -0.141676
     64          6           0      -14.644840    0.653870   -0.988772
     65          6           0      -14.155588    0.403763   -2.431910
     66          6           0      -15.864503    1.542228   -0.961078
     67          1           0        2.551840    3.332360   -1.410347
     68          1           0        8.647521    4.115299   -0.077774
     69          1           0        9.387927   -2.154329    1.281336
     70          1           0        1.331738   -1.482181   -1.694816
     71          1           0        0.979064    1.146563   -0.338913
     72          1           0        1.072439    2.022960   -2.718035
     73          1           0       -0.337336    0.894500   -2.482845
     74          1           0        1.230594    0.302589   -3.177999
     75          1           0        1.204266   -0.708954    1.226796
     76          1           0        0.966511   -2.212152    0.677820
     77          1           0       -0.881510   -0.578918   -0.743339
     78          1           0       -1.147438   -0.490230    1.093807
     79          1           0        3.327768    6.158852   -0.677621
     80          1           0        2.782264    5.213794   -2.012569
     81          1           0        4.195684    6.452534   -2.107479
     82          1           0        6.568161    8.296623   -0.026454
     83          1           0        4.978810    7.403260   -0.101686
     84          1           0        5.866494    7.565354   -1.541878
     85          1           0       10.155041    2.604318    1.273890
     86          1           0       11.082962   -0.017504    0.359119
     87          1           0       11.762180    1.475551   -1.187100
     88          1           0       11.781366    3.098913   -0.595537
     89          1           0       10.547596    2.553692   -1.695963
     90          1           0        9.817097   -0.006930    2.940023
     91          1           0       11.113053    1.213334    2.850750
     92          1           0       12.046524   -1.385306    2.055413
     93          1           0       11.206553   -1.382522    3.632742
     94          1           0       12.529324   -0.328498    3.404439
     95          1           0        8.975969   -4.238440    1.326981
     96          1           0        8.037553   -5.371759    0.406669
     97          1           0        7.729985   -5.201065    2.144993
     98          1           0        2.527662   -3.575819    1.077908
     99          1           0        1.307532   -6.104849   -2.173858
    100          1           0        0.325578   -4.736621   -2.477413
    101          1           0       -0.280657   -5.906339   -1.325689
    102          1           0       -3.621022   -3.927011    0.258729
    103          1           0       -3.820779   -3.581026   -1.390725
    104          1           0       -5.290176   -1.437004   -0.032869
    105          1           0       -5.477976   -5.156379   -0.346191
    106          1           0       -7.226039   -5.199960   -0.389472
    107          1           0       -6.396645   -5.215168    1.172271
    108          1           0       -7.279414   -1.911044    1.405754
    109          1           0       -8.332925   -3.294661    0.979260
    110          1           0       -9.335561   -2.202656   -0.681496
    111          1           0       -7.762327   -1.966059   -1.586136
    112          1           0       -7.621852    0.084493   -0.976633
    113          1           0       -8.299955   -0.291320    0.700634
    114          1           0      -10.431497   -0.305368   -0.225050
    115          1           0      -10.814709    0.548188   -2.633939
    116          1           0       -9.149182    0.141592   -2.844460
    117          1           0       -9.461932    1.666314   -2.430649
    118          1           0      -10.304112    2.452313   -0.529482
    119          1           0       -8.571727    2.132045    0.081560
    120          1           0       -9.039371    1.879670    2.037366
    121          1           0      -10.386453    0.842378    1.850123
    122          1           0      -11.215654    3.535248    1.065489
    123          1           0      -10.299908    3.652738    2.604528
    124          1           0      -11.984186    1.490142    3.285189
    125          1           0      -12.693184    2.847812    4.863999
    126          1           0      -12.890586    4.260447    3.796314
    127          1           0      -11.277902    3.771027    4.363540
    128          1           0      -13.287212    3.308062    1.286425
    129          1           0      -14.246668    2.706785    2.623512
    130          1           0      -14.782149    0.964811    1.565296
    131          1           0      -13.159805    0.247241    1.666942
    132          1           0      -12.647597    0.531168   -0.490419
    133          1           0      -13.222914    2.167358   -0.462563
    134          1           0      -14.864060   -0.315119   -0.540362
    135          1           0      -14.975696    0.465374   -3.146961
    136          1           0      -13.711776   -0.589394   -2.507498
    137          1           0      -13.398990    1.143146   -2.691891
    138          1           0      -15.705899    2.501361   -0.468343
    139          1           0      -16.679622    1.081118   -0.403372
    140          1           0      -16.225947    1.761184   -1.965838
 ---------------------------------------------------------------------

 SCF Done:  E(RPBE1PBE) =  -3005.35351401     A.U. after   16 cycles

 Excitation energies and oscillator strengths:

 Excited State   1:      Singlet-A      1.8383 eV  674.45 nm  f=0.3842  <S**2>=0.000
     245 -> 248       -0.17432
     246 -> 247        0.69267
     246 <- 247       -0.10954
 This state for optimization and/or second-order correction.
 Total Energy, E(TD-HF/TD-DFT) =  -3005.28595784
 Copying the excited state density for this state as the 1-particle RhoCI density.

 Excited State   2:      Singlet-A      2.1324 eV  581.44 nm  f=0.1410  <S**2>=0.000
     245 -> 247        0.66755
     246 -> 248        0.22070

 Excited State   3:      Singlet-A      2.9024 eV  427.18 nm  f=0.0027  <S**2>=0.000
     241 -> 247       -0.14938
     242 -> 247       -0.44188
     242 -> 249        0.12154
     243 -> 247        0.49461

 Excited State   4:      Singlet-A      2.9777 eV  416.38 nm  f=0.0027  <S**2>=0.000
     241 -> 247        0.16740
     242 -> 247        0.46342
     243 -> 247        0.48546

 Excited State   5:      Singlet-A      3.0737 eV  403.37 nm  f=0.0052  <S**2>=0.000
     240 -> 247        0.49570
     241 -> 247       -0.44024
     242 -> 247        0.17480

 The electronic state is 1-A.
 Alpha  occ. eigenvalues --  -46.92265 -19.25511 -19.23635 -19.20542 -19.19328
 Alpha  occ. eigenvalues --  -19.18969 -19.18895 -14.42142 -14.41406 -14.39181
 Alpha  occ. eigenvalues --  -14.39144 -10.37217 -10.35168 -10.31995 -10.31887
 Alpha  occ. eigenvalues --  -10.29946 -10.29586 -10.29176 -10.28731 -10.28492
 Alpha  occ. eigenvalues --  -10.27798 -10.27792 -10.27701 -10.27256 -10.27155
 Alpha  occ. eigenvalues --  -10.27079 -10.26761 -10.26232 -10.26067 -10.26039
 Alpha  occ. eigenvalues --  -10.25926 -10.25920 -10.25551 -10.25407 -10.25347
 Alpha  occ. eigenvalues --  -10.25152 -10.24935 -10.24837 -10.24572 -10.24497
 Alpha  occ. eigenvalues --  -10.23934 -10.23897 -10.23730 -10.23685 -10.23632
 Alpha  occ. eigenvalues --  -10.23532 -10.23270 -10.23256 -10.23221 -10.23129
 Alpha  occ. eigenvalues --  -10.22952 -10.22942 -10.22887 -10.22620 -10.22595
 Alpha  occ. eigenvalues --  -10.22534 -10.22443 -10.22111 -10.22069 -10.21939
 Alpha  occ. eigenvalues --  -10.21772 -10.21694 -10.21598 -10.21444 -10.21385
 Alpha  occ. eigenvalues --  -10.21310  -3.14301  -1.87160  -1.86649  -1.86543
 Alpha  occ. eigenvalues --   -1.10238  -1.08452  -1.05208  -1.03723  -1.02099
 Alpha  occ. eigenvalues --   -1.00653  -0.98806  -0.97823  -0.97092  -0.96044
 Alpha  occ. eigenvalues --   -0.85978  -0.84931  -0.84659  -0.84065  -0.83442
 Alpha  occ. eigenvalues --   -0.83053  -0.82584  -0.81978  -0.81507  -0.81152
 Alpha  occ. eigenvalues --   -0.80571  -0.79923  -0.78558  -0.77981  -0.77726
 Alpha  occ. eigenvalues --   -0.76783  -0.76496  -0.75826  -0.75189  -0.74386
 Alpha  occ. eigenvalues --   -0.73902  -0.72799  -0.72342  -0.71525  -0.70194
 Alpha  occ. eigenvalues --   -0.70030  -0.69719  -0.69217  -0.68521  -0.68320
 Alpha  occ. eigenvalues --   -0.67555  -0.67221  -0.66144  -0.64945  -0.63498
 Alpha  occ. eigenvalues --   -0.63287  -0.62668  -0.61864  -0.61248  -0.59858
 Alpha  occ. eigenvalues --   -0.59753  -0.59487  -0.59343  -0.58804  -0.58003
 Alpha  occ. eigenvalues --   -0.57693  -0.57073  -0.56698  -0.55409  -0.54619
 Alpha  occ. eigenvalues --   -0.54374  -0.53635  -0.53511  -0.53142  -0.52398
 Alpha  occ. eigenvalues --   -0.51755  -0.51463  -0.51219  -0.50510  -0.49667
 Alpha  occ. eigenvalues --   -0.49493  -0.49159  -0.48958  -0.48690  -0.48567
 Alpha  occ. eigenvalues --   -0.47934  -0.47851  -0.47767  -0.47331  -0.46972
 Alpha  occ. eigenvalues --   -0.46971  -0.46929  -0.46728  -0.46642  -0.46173
 Alpha  occ. eigenvalues --   -0.45959  -0.45754  -0.45470  -0.45392  -0.45074
 Alpha  occ. eigenvalues --   -0.45011  -0.44743  -0.44640  -0.44562  -0.44476
 Alpha  occ. eigenvalues --   -0.44235  -0.44003  -0.43586  -0.43424  -0.43329
 Alpha  occ. eigenvalues --   -0.43190  -0.43008  -0.42666  -0.42435  -0.42176
 Alpha  occ. eigenvalues --   -0.42059  -0.41977  -0.41652  -0.41509  -0.41422
 Alpha  occ. eigenvalues --   -0.41128  -0.41096  -0.40497  -0.40307  -0.40181
 Alpha  occ. eigenvalues --   -0.40129  -0.39903  -0.39793  -0.39644  -0.39455
 Alpha  occ. eigenvalues --   -0.39353  -0.39277  -0.39014  -0.38902  -0.38657
 Alpha  occ. eigenvalues --   -0.38570  -0.38456  -0.38403  -0.38280  -0.37823
 Alpha  occ. eigenvalues --   -0.37630  -0.37539  -0.36956  -0.36828  -0.36585
 Alpha  occ. eigenvalues --   -0.36557  -0.36311  -0.36148  -0.36018  -0.35957
 Alpha  occ. eigenvalues --   -0.35920  -0.35755  -0.35312  -0.35056  -0.34993
 Alpha  occ. eigenvalues --   -0.34619  -0.34366  -0.34328  -0.33872  -0.33757
 Alpha  occ. eigenvalues --   -0.33380  -0.33070  -0.32926  -0.32687  -0.32043
 Alpha  occ. eigenvalues --   -0.31891  -0.31853  -0.31682  -0.31411  -0.30407
 Alpha  occ. eigenvalues --   -0.30178  -0.30019  -0.29712  -0.29423  -0.29124
 Alpha  occ. eigenvalues --   -0.28734  -0.28544  -0.27995  -0.27010  -0.26078
 Alpha  occ. eigenvalues --   -0.25657  -0.25521  -0.25349  -0.25083  -0.20786
 Alpha  occ. eigenvalues --   -0.19100
 Alpha virt. eigenvalues --   -0.11587  -0.05189  -0.04064  -0.02111  -0.00023
 Alpha virt. eigenvalues --    0.00115   0.00293   0.01331   0.01566   0.02765
 Alpha virt. eigenvalues --    0.03905   0.04464   0.05130   0.05257   0.05888

 Mulliken charges:
               1
     1  Mg   0.973632
     2  C   -0.043700
     3  C   -0.090733
     4  C   -0.057398
     5  C   -0.064763
     6  N   -0.389539
     7  C    0.074996
     8  C   -0.092156
     9  C   -0.134105
    10  C    0.136485
    11  C    0.000117
    12  C   -0.026860
    13  C   -0.001515
    14  C    0.228883
    15  O   -0.255749
    16  O   -0.401790
    17  N   -0.466052
    18  C    0.172320
    19  C   -0.183935
    20  C   -0.074287
    21  C    0.138442
    22  C    0.031967
    23  C    0.047449
    24  O   -0.237733
    25  C   -0.023055
    26  N   -0.441110
    27  C    0.083741
    28  C   -0.079535
    29  C   -0.103086
    30  C    0.099628
    31  C    0.005404
    32  C   -0.028927
    33  C   -0.057385
    34  N   -0.487842
    35  C    0.114687
    36  C   -0.167209
    37  C   -0.048792
    38  C    0.142278
    39  C    0.080114
    40  C    0.159143
    41  O   -0.214020
    42  C   -0.128756
    43  C    0.286227
    44  O   -0.255447
    45  O   -0.379921
    46  C    0.150609
    47  C    0.240286
    48  C   -0.134006
    49  C   -0.222819
    50  C    0.015260
    51  C    0.003129
    52  C    0.010231
    53  C   -0.068896
    54  C   -0.212926
    55  C   -0.016681
    56  C   -0.006163
    57  C   -0.057129
    58  C    0.036924
    59  C   -0.230267
    60  C   -0.004887
    61  C   -0.011475
    62  C   -0.000748
    63  C   -0.059388
    64  C   -0.256669
    65  C   -0.025107
    66  C    0.002846
    67  H    0.005738
    68  H    0.021360
    69  H    0.010417
    70  H    0.065848
    71  H    0.049671
    72  H    0.035728
    73  H    0.060642
    74  H    0.053341
    75  H    0.028736
    76  H    0.057689
    77  H    0.065479
    78  H    0.085990
    79  H    0.060630
    80  H    0.057024
    81  H    0.048391
    82  H    0.062798
    83  H    0.051111
    84  H    0.061882
    85  H    0.055678
    86  H    0.038498
    87  H    0.045774
    88  H    0.051485
    89  H    0.045862
    90  H    0.043136
    91  H    0.042015
    92  H    0.040070
    93  H    0.038463
    94  H    0.037395
    95  H    0.021311
    96  H    0.068943
    97  H    0.065075
    98  H    0.088857
    99  H    0.048264
   100  H    0.036259
   101  H    0.059496
   102  H    0.058567
   103  H    0.053519
   104  H    0.034604
   105  H    0.029796
   106  H    0.051468
   107  H    0.059594
   108  H    0.058379
   109  H    0.023423
   110  H    0.020061
   111  H    0.047274
   112  H    0.027665
   113  H    0.021529
   114  H    0.033920
   115  H    0.042657
   116  H    0.015243
   117  H    0.024161
   118  H    0.041519
   119  H    0.037015
   120  H    0.023436
   121  H    0.027830
   122  H    0.028871
   123  H    0.020922
   124  H    0.031218
   125  H    0.031462
   126  H    0.034115
   127  H    0.025875
   128  H    0.028224
   129  H    0.018684
   130  H    0.028639
   131  H    0.029523
   132  H    0.039869
   133  H    0.019906
   134  H    0.029596
   135  H    0.030840
   136  H    0.036186
   137  H    0.042402
   138  H    0.027624
   139  H    0.033484
   140  H    0.029606
 Sum of Mulliken charges =  -0.00000

 Dipole moment (field-independent basis, Debye):
    X=             -3.3018    Y=              4.1452    Z=              1.3573  Tot=              5.4706
 Quadrupole moment (field-independent basis, Debye-Ang):
   XX=           -366.9262   YY=           -426.5573   ZZ=           -403.1629
   XY=             12.0199   XZ=              9.9426   YZ=             -7.5328

 Normal termination of Gaussian 16 at Thu May  5 06:50:12 2022.
