 Gaussian 16, Revision A.03,
 Gaussian 16:  ES64L-G16RevA.03 25-Dec-2016

 --------------------------------
 #p wB97XD/Def2SVP td=(nstates=5)
 --------------------------------

 ---------------------------------------------------
 step_701_chromophore_4 TDDFT with wB97XD functional
 ---------------------------------------------------
 Symbolic Z-matrix:
 Charge =  0 Multiplicity = 1

                         Standard orientation:
 ---------------------------------------------------------------------
 Center     Atomic      Atomic             Coordinates (Angstroms)
 Number     Number       Type             X           Y           Z
 ---------------------------------------------------------------------
      1         12           0        6.014379    0.566933    0.010631
      2          6           0        3.739725   -2.145374    0.066053
      3          6           0        3.321894    2.586656   -1.200904
      4          6           0        7.992862    3.241873   -0.102059
      5          6           0        8.634022   -1.523339    0.806592
      6          7           0        3.806884    0.219553   -0.655625
      7          6           0        3.080271   -0.971264   -0.499577
      8          6           0        1.602415   -0.818579   -0.872999
      9          6           0        1.510514    0.681359   -1.168403
     10          6           0        2.992739    1.261000   -1.108415
     11          6           0        0.746426    1.005770   -2.499681
     12          6           0        0.759667   -1.191408    0.356960
     13          6           0       -0.745995   -1.032406    0.237658
     14          6           0       -1.568480   -2.265616   -0.122625
     15          8           0       -1.156336   -3.424415   -0.190119
     16          8           0       -2.925172   -1.979559   -0.345668
     17          7           0        5.738086    2.644698   -0.555855
     18          6           0        4.575477    3.202373   -1.024511
     19          6           0        4.797196    4.628062   -1.192670
     20          6           0        6.094817    4.939314   -0.626136
     21          6           0        6.700756    3.620293   -0.389652
     22          6           0        3.679855    5.652542   -1.576651
     23          6           0        6.776756    6.234406   -0.317065
     24          8           0        7.921597    6.312211    0.091700
     25          6           0        6.003936    7.473927   -0.464394
     26          7           0        8.048461    0.852212    0.343185
     27          6           0        8.656064    2.070008    0.180590
     28          6           0       10.122084    1.938901    0.411622
     29          6           0       10.307275    0.452719    0.964833
     30          6           0        8.943056   -0.154102    0.629081
     31          6           0       11.112455    2.265449   -0.809216
     32          6           0       10.733945    0.283395    2.427927
     33          6           0       11.681369   -0.762344    2.872745
     34          7           0        6.243099   -1.421574    0.331443
     35          6           0        7.337822   -2.146577    0.651298
     36          6           0        7.026253   -3.543888    0.909806
     37          6           0        5.614456   -3.578450    0.649533
     38          6           0        5.182436   -2.269560    0.374942
     39          6           0        7.975669   -4.660964    1.230796
     40          6           0        4.507759   -4.474911    0.583761
     41          8           0        4.479052   -5.698758    0.688677
     42          6           0        3.211234   -3.597842    0.228455
     43          6           0        2.474782   -4.010747   -0.955210
     44          8           0        2.854974   -3.923358   -2.112926
     45          8           0        1.363181   -4.792620   -0.560106
     46          6           0        0.624951   -5.414008   -1.678674
     47          6           0       -3.867152   -3.104155   -0.412132
     48          6           0       -5.229546   -2.524170   -0.071607
     49          6           0       -6.307185   -3.263892    0.209287
     50          6           0       -6.374109   -4.802771    0.163445
     51          6           0       -7.600892   -2.578155    0.606429
     52          6           0       -8.303784   -1.855532   -0.646288
     53          6           0       -8.403137   -0.388590   -0.380967
     54          6           0       -9.703889    0.391384   -0.641633
     55          6           0       -9.831522    0.671556   -2.179710
     56          6           0       -9.609058    1.804968    0.005544
     57          6           0      -10.001167    1.809286    1.528254
     58          6           0      -10.866257    2.995099    1.945224
     59          6           0      -12.094036    2.486721    2.856454
     60          6           0      -12.254410    3.409120    4.039555
     61          6           0      -13.370197    2.498112    2.011069
     62          6           0      -13.725225    1.123342    1.351696
     63          6           0      -13.470522    1.155589   -0.141676
     64          6           0      -14.644840    0.653870   -0.988772
     65          6           0      -14.155588    0.403763   -2.431910
     66          6           0      -15.864503    1.542228   -0.961078
     67          1           0        2.551840    3.332360   -1.410347
     68          1           0        8.647521    4.115299   -0.077774
     69          1           0        9.387927   -2.154329    1.281336
     70          1           0        1.331738   -1.482181   -1.694816
     71          1           0        0.979064    1.146563   -0.338913
     72          1           0        1.072439    2.022960   -2.718035
     73          1           0       -0.337336    0.894500   -2.482845
     74          1           0        1.230594    0.302589   -3.177999
     75          1           0        1.204266   -0.708954    1.226796
     76          1           0        0.966511   -2.212152    0.677820
     77          1           0       -0.881510   -0.578918   -0.743339
     78          1           0       -1.147438   -0.490230    1.093807
     79          1           0        3.327768    6.158852   -0.677621
     80          1           0        2.782264    5.213794   -2.012569
     81          1           0        4.195684    6.452534   -2.107479
     82          1           0        6.568161    8.296623   -0.026454
     83          1           0        4.978810    7.403260   -0.101686
     84          1           0        5.866494    7.565354   -1.541878
     85          1           0       10.155041    2.604318    1.273890
     86          1           0       11.082962   -0.017504    0.359119
     87          1           0       11.762180    1.475551   -1.187100
     88          1           0       11.781366    3.098913   -0.595537
     89          1           0       10.547596    2.553692   -1.695963
     90          1           0        9.817097   -0.006930    2.940023
     91          1           0       11.113053    1.213334    2.850750
     92          1           0       12.046524   -1.385306    2.055413
     93          1           0       11.206553   -1.382522    3.632742
     94          1           0       12.529324   -0.328498    3.404439
     95          1           0        8.975969   -4.238440    1.326981
     96          1           0        8.037553   -5.371759    0.406669
     97          1           0        7.729985   -5.201065    2.144993
     98          1           0        2.527662   -3.575819    1.077908
     99          1           0        1.307532   -6.104849   -2.173858
    100          1           0        0.325578   -4.736621   -2.477413
    101          1           0       -0.280657   -5.906339   -1.325689
    102          1           0       -3.621022   -3.927011    0.258729
    103          1           0       -3.820779   -3.581026   -1.390725
    104          1           0       -5.290176   -1.437004   -0.032869
    105          1           0       -5.477976   -5.156379   -0.346191
    106          1           0       -7.226039   -5.199960   -0.389472
    107          1           0       -6.396645   -5.215168    1.172271
    108          1           0       -7.279414   -1.911044    1.405754
    109          1           0       -8.332925   -3.294661    0.979260
    110          1           0       -9.335561   -2.202656   -0.681496
    111          1           0       -7.762327   -1.966059   -1.586136
    112          1           0       -7.621852    0.084493   -0.976633
    113          1           0       -8.299955   -0.291320    0.700634
    114          1           0      -10.431497   -0.305368   -0.225050
    115          1           0      -10.814709    0.548188   -2.633939
    116          1           0       -9.149182    0.141592   -2.844460
    117          1           0       -9.461932    1.666314   -2.430649
    118          1           0      -10.304112    2.452313   -0.529482
    119          1           0       -8.571727    2.132045    0.081560
    120          1           0       -9.039371    1.879670    2.037366
    121          1           0      -10.386453    0.842378    1.850123
    122          1           0      -11.215654    3.535248    1.065489
    123          1           0      -10.299908    3.652738    2.604528
    124          1           0      -11.984186    1.490142    3.285189
    125          1           0      -12.693184    2.847812    4.863999
    126          1           0      -12.890586    4.260447    3.796314
    127          1           0      -11.277902    3.771027    4.363540
    128          1           0      -13.287212    3.308062    1.286425
    129          1           0      -14.246668    2.706785    2.623512
    130          1           0      -14.782149    0.964811    1.565296
    131          1           0      -13.159805    0.247241    1.666942
    132          1           0      -12.647597    0.531168   -0.490419
    133          1           0      -13.222914    2.167358   -0.462563
    134          1           0      -14.864060   -0.315119   -0.540362
    135          1           0      -14.975696    0.465374   -3.146961
    136          1           0      -13.711776   -0.589394   -2.507498
    137          1           0      -13.398990    1.143146   -2.691891
    138          1           0      -15.705899    2.501361   -0.468343
    139          1           0      -16.679622    1.081118   -0.403372
    140          1           0      -16.225947    1.761184   -1.965838
 ---------------------------------------------------------------------

 SCF Done:  E(RwB97XD) =  -3007.86384133     A.U. after   20 cycles

 Excitation energies and oscillator strengths:

 Excited State   1:      Singlet-A      1.6196 eV  765.51 nm  f=0.3972  <S**2>=0.000
     245 -> 248        0.18529
     246 -> 247        0.68367
     245 <- 248        0.11853
 This state for optimization and/or second-order correction.
 Total Energy, E(TD-HF/TD-DFT) =  -3007.80432073
 Copying the excited state density for this state as the 1-particle RhoCI density.

 Excited State   2:      Singlet-A      2.0657 eV  600.20 nm  f=0.1468  <S**2>=0.000
     245 -> 247        0.65599
     246 -> 248       -0.24901

 Excited State   3:      Singlet-A      3.3095 eV  374.63 nm  f=0.0035  <S**2>=0.000
     241 -> 247       -0.11490
     242 -> 247       -0.44722
     243 -> 247        0.50500

 Excited State   4:      Singlet-A      3.4813 eV  356.14 nm  f=0.0397  <S**2>=0.000
     241 -> 247        0.49003
     241 -> 249        0.19689
     241 -> 250       -0.14327
     242 -> 247        0.13857
     243 -> 247        0.25482
     246 -> 248        0.27263

 Excited State   5:      Singlet-A      3.4913 eV  355.13 nm  f=0.0054  <S**2>=0.000
     241 -> 247       -0.23062
     241 -> 249       -0.19040
     241 -> 250        0.13552
     242 -> 247        0.44525
     243 -> 247        0.37483

 The electronic state is 1-A.
 Alpha  occ. eigenvalues --  -46.95192 -19.30059 -19.28146 -19.25202 -19.24020
 Alpha  occ. eigenvalues --  -19.23933 -19.23544 -14.47211 -14.46493 -14.44177
 Alpha  occ. eigenvalues --  -14.44027 -10.43980 -10.41983 -10.38893 -10.38731
 Alpha  occ. eigenvalues --  -10.36108 -10.36072 -10.35606 -10.34939 -10.34878
 Alpha  occ. eigenvalues --  -10.34348 -10.34339 -10.33871 -10.33790 -10.33399
 Alpha  occ. eigenvalues --  -10.33291 -10.33246 -10.32653 -10.32347 -10.32264
 Alpha  occ. eigenvalues --  -10.32162 -10.32161 -10.32068 -10.31874 -10.31733
 Alpha  occ. eigenvalues --  -10.31522 -10.31320 -10.31278 -10.30897 -10.30846
 Alpha  occ. eigenvalues --  -10.30375 -10.30296 -10.30132 -10.30017 -10.29960
 Alpha  occ. eigenvalues --  -10.29941 -10.29886 -10.29692 -10.29529 -10.29506
 Alpha  occ. eigenvalues --  -10.29319 -10.29154 -10.29065 -10.28945 -10.28920
 Alpha  occ. eigenvalues --  -10.28897 -10.28797 -10.28496 -10.28427 -10.28314
 Alpha  occ. eigenvalues --  -10.28202 -10.28066 -10.28033 -10.27841 -10.27832
 Alpha  occ. eigenvalues --  -10.27744  -3.21098  -1.94704  -1.94194  -1.94082
 Alpha  occ. eigenvalues --   -1.17609  -1.15827  -1.12840  -1.11061  -1.09432
 Alpha  occ. eigenvalues --   -1.07982  -1.06046  -1.05222  -1.04572  -1.03479
 Alpha  occ. eigenvalues --   -0.93533  -0.92576  -0.92303  -0.91737  -0.91072
 Alpha  occ. eigenvalues --   -0.90714  -0.90186  -0.89638  -0.89128  -0.89005
 Alpha  occ. eigenvalues --   -0.88086  -0.87554  -0.86219  -0.85592  -0.85316
 Alpha  occ. eigenvalues --   -0.84533  -0.84209  -0.83509  -0.82825  -0.82020
 Alpha  occ. eigenvalues --   -0.81535  -0.80570  -0.79922  -0.79116  -0.77851
 Alpha  occ. eigenvalues --   -0.77664  -0.77430  -0.76804  -0.76200  -0.75993
 Alpha  occ. eigenvalues --   -0.75106  -0.74755  -0.73706  -0.72565  -0.71040
 Alpha  occ. eigenvalues --   -0.70736  -0.70291  -0.69488  -0.68892  -0.67423
 Alpha  occ. eigenvalues --   -0.67248  -0.67007  -0.66921  -0.66196  -0.65488
 Alpha  occ. eigenvalues --   -0.65367  -0.64762  -0.64339  -0.62804  -0.62167
 Alpha  occ. eigenvalues --   -0.61836  -0.61023  -0.60881  -0.60470  -0.59772
 Alpha  occ. eigenvalues --   -0.59239  -0.58926  -0.58681  -0.58000  -0.57116
 Alpha  occ. eigenvalues --   -0.56896  -0.56589  -0.56365  -0.56086  -0.55962
 Alpha  occ. eigenvalues --   -0.55332  -0.55213  -0.55147  -0.54709  -0.54532
 Alpha  occ. eigenvalues --   -0.54379  -0.54237  -0.54100  -0.54045  -0.53547
 Alpha  occ. eigenvalues --   -0.53293  -0.53066  -0.52807  -0.52712  -0.52430
 Alpha  occ. eigenvalues --   -0.52378  -0.52151  -0.52063  -0.51908  -0.51840
 Alpha  occ. eigenvalues --   -0.51459  -0.51336  -0.50947  -0.50863  -0.50642
 Alpha  occ. eigenvalues --   -0.50460  -0.50268  -0.49970  -0.49740  -0.49448
 Alpha  occ. eigenvalues --   -0.49317  -0.49201  -0.48921  -0.48756  -0.48537
 Alpha  occ. eigenvalues --   -0.48315  -0.48270  -0.47691  -0.47504  -0.47379
 Alpha  occ. eigenvalues --   -0.47244  -0.47143  -0.47043  -0.46801  -0.46650
 Alpha  occ. eigenvalues --   -0.46490  -0.46446  -0.46202  -0.46071  -0.45835
 Alpha  occ. eigenvalues --   -0.45705  -0.45582  -0.45534  -0.45388  -0.44938
 Alpha  occ. eigenvalues --   -0.44768  -0.44659  -0.44016  -0.43993  -0.43724
 Alpha  occ. eigenvalues --   -0.43695  -0.43351  -0.43271  -0.43093  -0.43031
 Alpha  occ. eigenvalues --   -0.43021  -0.42853  -0.42234  -0.42117  -0.42075
 Alpha  occ. eigenvalues --   -0.41670  -0.41433  -0.41283  -0.40956  -0.40733
 Alpha  occ. eigenvalues --   -0.40456  -0.40029  -0.39837  -0.39788  -0.39087
 Alpha  occ. eigenvalues --   -0.38931  -0.38892  -0.38740  -0.38308  -0.37366
 Alpha  occ. eigenvalues --   -0.37114  -0.37094  -0.36511  -0.36321  -0.36009
 Alpha  occ. eigenvalues --   -0.35727  -0.35360  -0.34956  -0.33687  -0.33310
 Alpha  occ. eigenvalues --   -0.32468  -0.32168  -0.31917  -0.31838  -0.25722
 Alpha  occ. eigenvalues --   -0.23289
 Alpha virt. eigenvalues --   -0.07559   0.00258   0.02187   0.04373   0.06035
 Alpha virt. eigenvalues --    0.06887   0.07074   0.08029   0.08231   0.09088
 Alpha virt. eigenvalues --    0.10477   0.11201   0.11764   0.11924   0.12557

 Mulliken charges:
               1
     1  Mg   0.963361
     2  C   -0.050391
     3  C   -0.106741
     4  C   -0.072028
     5  C   -0.077413
     6  N   -0.357636
     7  C    0.045455
     8  C   -0.064875
     9  C   -0.108601
    10  C    0.121693
    11  C    0.014027
    12  C   -0.012611
    13  C    0.022760
    14  C    0.217865
    15  O   -0.252082
    16  O   -0.400629
    17  N   -0.434485
    18  C    0.164581
    19  C   -0.176390
    20  C   -0.067571
    21  C    0.130868
    22  C    0.049602
    23  C    0.044350
    24  O   -0.230355
    25  C   -0.009601
    26  N   -0.409884
    27  C    0.071603
    28  C   -0.053361
    29  C   -0.077384
    30  C    0.086299
    31  C    0.016345
    32  C   -0.013756
    33  C   -0.044099
    34  N   -0.450060
    35  C    0.106418
    36  C   -0.168686
    37  C   -0.041466
    38  C    0.125036
    39  C    0.093529
    40  C    0.140133
    41  O   -0.205714
    42  C   -0.088196
    43  C    0.260887
    44  O   -0.249020
    45  O   -0.377069
    46  C    0.162230
    47  C    0.249677
    48  C   -0.144698
    49  C   -0.206610
    50  C    0.029847
    51  C    0.020879
    52  C    0.023076
    53  C   -0.048086
    54  C   -0.180068
    55  C   -0.003443
    56  C    0.015282
    57  C   -0.043947
    58  C    0.053468
    59  C   -0.200993
    60  C    0.008017
    61  C    0.004255
    62  C    0.011564
    63  C   -0.026488
    64  C   -0.226461
    65  C   -0.008284
    66  C    0.011493
    67  H   -0.003858
    68  H    0.015962
    69  H    0.000812
    70  H    0.055242
    71  H    0.037570
    72  H    0.027679
    73  H    0.057100
    74  H    0.046567
    75  H    0.021306
    76  H    0.039114
    77  H    0.049950
    78  H    0.083432
    79  H    0.054945
    80  H    0.054847
    81  H    0.040941
    82  H    0.062910
    83  H    0.044358
    84  H    0.054904
    85  H    0.044735
    86  H    0.025357
    87  H    0.041171
    88  H    0.046347
    89  H    0.039428
    90  H    0.032746
    91  H    0.034405
    92  H    0.034128
    93  H    0.033064
    94  H    0.032136
    95  H    0.014091
    96  H    0.063878
    97  H    0.060361
    98  H    0.082454
    99  H    0.044346
   100  H    0.031964
   101  H    0.057981
   102  H    0.052932
   103  H    0.049183
   104  H    0.031488
   105  H    0.023336
   106  H    0.046366
   107  H    0.054465
   108  H    0.050019
   109  H    0.017603
   110  H    0.012153
   111  H    0.039046
   112  H    0.017513
   113  H    0.004612
   114  H    0.020899
   115  H    0.034658
   116  H    0.009227
   117  H    0.017408
   118  H    0.028524
   119  H    0.028529
   120  H    0.015918
   121  H    0.015600
   122  H    0.018241
   123  H    0.012377
   124  H    0.019474
   125  H    0.026098
   126  H    0.027677
   127  H    0.019059
   128  H    0.017016
   129  H    0.010861
   130  H    0.020411
   131  H    0.022008
   132  H    0.014723
   133  H    0.004705
   134  H    0.018273
   135  H    0.024964
   136  H    0.030416
   137  H    0.033415
   138  H    0.020722
   139  H    0.028361
   140  H    0.023928
 Sum of Mulliken charges =  -0.00000

 Dipole moment (field-independent basis, Debye):
    X=             -3.4398    Y=              4.6613    Z=              1.2611  Tot=              5.9288
 Quadrupole moment (field-independent basis, Debye-Ang):
   XX=           -368.5466   YY=           -424.3532   ZZ=           -402.7409
   XY=             14.9962   XZ=              9.3422   YZ=             -7.7088

 Normal termination of Gaussian 16 at Thu May  5 07:25:14 2022.
