 Gaussian 16, Revision A.03,
 Gaussian 16:  ES64L-G16RevA.03 25-Dec-2016

 --------------------
 #p ZINDO=(nstates=5)
 --------------------

 ----------------------------
 step_701_chromophore_4 ZINDO
 ----------------------------
 Symbolic Z-matrix:
 Charge =  0 Multiplicity = 1

                         Standard orientation:
 ---------------------------------------------------------------------
 Center     Atomic      Atomic             Coordinates (Angstroms)
 Number     Number       Type             X           Y           Z
 ---------------------------------------------------------------------
      1         12           0        6.014379    0.566933    0.010631
      2          6           0        3.739725   -2.145374    0.066053
      3          6           0        3.321894    2.586656   -1.200904
      4          6           0        7.992862    3.241873   -0.102059
      5          6           0        8.634022   -1.523339    0.806592
      6          7           0        3.806884    0.219553   -0.655625
      7          6           0        3.080271   -0.971264   -0.499577
      8          6           0        1.602415   -0.818579   -0.872999
      9          6           0        1.510514    0.681359   -1.168403
     10          6           0        2.992739    1.261000   -1.108415
     11          6           0        0.746426    1.005770   -2.499681
     12          6           0        0.759667   -1.191408    0.356960
     13          6           0       -0.745995   -1.032406    0.237658
     14          6           0       -1.568480   -2.265616   -0.122625
     15          8           0       -1.156336   -3.424415   -0.190119
     16          8           0       -2.925172   -1.979559   -0.345668
     17          7           0        5.738086    2.644698   -0.555855
     18          6           0        4.575477    3.202373   -1.024511
     19          6           0        4.797196    4.628062   -1.192670
     20          6           0        6.094817    4.939314   -0.626136
     21          6           0        6.700756    3.620293   -0.389652
     22          6           0        3.679855    5.652542   -1.576651
     23          6           0        6.776756    6.234406   -0.317065
     24          8           0        7.921597    6.312211    0.091700
     25          6           0        6.003936    7.473927   -0.464394
     26          7           0        8.048461    0.852212    0.343185
     27          6           0        8.656064    2.070008    0.180590
     28          6           0       10.122084    1.938901    0.411622
     29          6           0       10.307275    0.452719    0.964833
     30          6           0        8.943056   -0.154102    0.629081
     31          6           0       11.112455    2.265449   -0.809216
     32          6           0       10.733945    0.283395    2.427927
     33          6           0       11.681369   -0.762344    2.872745
     34          7           0        6.243099   -1.421574    0.331443
     35          6           0        7.337822   -2.146577    0.651298
     36          6           0        7.026253   -3.543888    0.909806
     37          6           0        5.614456   -3.578450    0.649533
     38          6           0        5.182436   -2.269560    0.374942
     39          6           0        7.975669   -4.660964    1.230796
     40          6           0        4.507759   -4.474911    0.583761
     41          8           0        4.479052   -5.698758    0.688677
     42          6           0        3.211234   -3.597842    0.228455
     43          6           0        2.474782   -4.010747   -0.955210
     44          8           0        2.854974   -3.923358   -2.112926
     45          8           0        1.363181   -4.792620   -0.560106
     46          6           0        0.624951   -5.414008   -1.678674
     47          6           0       -3.867152   -3.104155   -0.412132
     48          6           0       -5.229546   -2.524170   -0.071607
     49          6           0       -6.307185   -3.263892    0.209287
     50          6           0       -6.374109   -4.802771    0.163445
     51          6           0       -7.600892   -2.578155    0.606429
     52          6           0       -8.303784   -1.855532   -0.646288
     53          6           0       -8.403137   -0.388590   -0.380967
     54          6           0       -9.703889    0.391384   -0.641633
     55          6           0       -9.831522    0.671556   -2.179710
     56          6           0       -9.609058    1.804968    0.005544
     57          6           0      -10.001167    1.809286    1.528254
     58          6           0      -10.866257    2.995099    1.945224
     59          6           0      -12.094036    2.486721    2.856454
     60          6           0      -12.254410    3.409120    4.039555
     61          6           0      -13.370197    2.498112    2.011069
     62          6           0      -13.725225    1.123342    1.351696
     63          6           0      -13.470522    1.155589   -0.141676
     64          6           0      -14.644840    0.653870   -0.988772
     65          6           0      -14.155588    0.403763   -2.431910
     66          6           0      -15.864503    1.542228   -0.961078
     67          1           0        2.551840    3.332360   -1.410347
     68          1           0        8.647521    4.115299   -0.077774
     69          1           0        9.387927   -2.154329    1.281336
     70          1           0        1.331738   -1.482181   -1.694816
     71          1           0        0.979064    1.146563   -0.338913
     72          1           0        1.072439    2.022960   -2.718035
     73          1           0       -0.337336    0.894500   -2.482845
     74          1           0        1.230594    0.302589   -3.177999
     75          1           0        1.204266   -0.708954    1.226796
     76          1           0        0.966511   -2.212152    0.677820
     77          1           0       -0.881510   -0.578918   -0.743339
     78          1           0       -1.147438   -0.490230    1.093807
     79          1           0        3.327768    6.158852   -0.677621
     80          1           0        2.782264    5.213794   -2.012569
     81          1           0        4.195684    6.452534   -2.107479
     82          1           0        6.568161    8.296623   -0.026454
     83          1           0        4.978810    7.403260   -0.101686
     84          1           0        5.866494    7.565354   -1.541878
     85          1           0       10.155041    2.604318    1.273890
     86          1           0       11.082962   -0.017504    0.359119
     87          1           0       11.762180    1.475551   -1.187100
     88          1           0       11.781366    3.098913   -0.595537
     89          1           0       10.547596    2.553692   -1.695963
     90          1           0        9.817097   -0.006930    2.940023
     91          1           0       11.113053    1.213334    2.850750
     92          1           0       12.046524   -1.385306    2.055413
     93          1           0       11.206553   -1.382522    3.632742
     94          1           0       12.529324   -0.328498    3.404439
     95          1           0        8.975969   -4.238440    1.326981
     96          1           0        8.037553   -5.371759    0.406669
     97          1           0        7.729985   -5.201065    2.144993
     98          1           0        2.527662   -3.575819    1.077908
     99          1           0        1.307532   -6.104849   -2.173858
    100          1           0        0.325578   -4.736621   -2.477413
    101          1           0       -0.280657   -5.906339   -1.325689
    102          1           0       -3.621022   -3.927011    0.258729
    103          1           0       -3.820779   -3.581026   -1.390725
    104          1           0       -5.290176   -1.437004   -0.032869
    105          1           0       -5.477976   -5.156379   -0.346191
    106          1           0       -7.226039   -5.199960   -0.389472
    107          1           0       -6.396645   -5.215168    1.172271
    108          1           0       -7.279414   -1.911044    1.405754
    109          1           0       -8.332925   -3.294661    0.979260
    110          1           0       -9.335561   -2.202656   -0.681496
    111          1           0       -7.762327   -1.966059   -1.586136
    112          1           0       -7.621852    0.084493   -0.976633
    113          1           0       -8.299955   -0.291320    0.700634
    114          1           0      -10.431497   -0.305368   -0.225050
    115          1           0      -10.814709    0.548188   -2.633939
    116          1           0       -9.149182    0.141592   -2.844460
    117          1           0       -9.461932    1.666314   -2.430649
    118          1           0      -10.304112    2.452313   -0.529482
    119          1           0       -8.571727    2.132045    0.081560
    120          1           0       -9.039371    1.879670    2.037366
    121          1           0      -10.386453    0.842378    1.850123
    122          1           0      -11.215654    3.535248    1.065489
    123          1           0      -10.299908    3.652738    2.604528
    124          1           0      -11.984186    1.490142    3.285189
    125          1           0      -12.693184    2.847812    4.863999
    126          1           0      -12.890586    4.260447    3.796314
    127          1           0      -11.277902    3.771027    4.363540
    128          1           0      -13.287212    3.308062    1.286425
    129          1           0      -14.246668    2.706785    2.623512
    130          1           0      -14.782149    0.964811    1.565296
    131          1           0      -13.159805    0.247241    1.666942
    132          1           0      -12.647597    0.531168   -0.490419
    133          1           0      -13.222914    2.167358   -0.462563
    134          1           0      -14.864060   -0.315119   -0.540362
    135          1           0      -14.975696    0.465374   -3.146961
    136          1           0      -13.711776   -0.589394   -2.507498
    137          1           0      -13.398990    1.143146   -2.691891
    138          1           0      -15.705899    2.501361   -0.468343
    139          1           0      -16.679622    1.081118   -0.403372
    140          1           0      -16.225947    1.761184   -1.965838
 ---------------------------------------------------------------------

 SCF Done:  E(RZINDO/S) =  -474.174287476     A.U. after   20 cycles

 Excitation energies and oscillator strengths:

 Excited State   1:      Singlet-A      1.2221 eV 1014.52 nm  f=0.6343  <S**2>=0.000
     175 ->178         0.18779
     176 ->177         0.66359
 This state for optimization and/or second-order correction.
 Total Energy, E(CIS/TDA) =  -474.129376197
 Copying the excited state density for this state as the 1-particle RhoCI density.

 Excited State   2:      Singlet-A      1.8623 eV  665.74 nm  f=0.1022  <S**2>=0.000
     175 ->177         0.58607
     176 ->178        -0.36649

 Excited State   3:      Singlet-A      2.9607 eV  418.76 nm  f=0.0100  <S**2>=0.000
     168 ->177         0.33133
     168 ->178        -0.14068
     168 ->179        -0.38494
     168 ->180         0.27139
     168 ->185        -0.18683
     168 ->187        -0.19247
     171 ->177         0.11006

 Excited State   4:      Singlet-A      2.9958 eV  413.86 nm  f=0.1563  <S**2>=0.000
     169 ->177         0.26354
     169 ->179         0.26121
     169 ->180         0.27895
     169 ->185         0.16170
     169 ->200        -0.10934
     170 ->177         0.17631
     170 ->179         0.16807
     170 ->180         0.17086
     175 ->177         0.13181
     176 ->178         0.21591

 Excited State   5:      Singlet-A      3.0444 eV  407.26 nm  f=0.9294  <S**2>=0.000
     169 ->177        -0.12378
     169 ->179        -0.12754
     169 ->180        -0.12471
     171 ->177        -0.13773
     175 ->177         0.31629
     176 ->178         0.52471

 The electronic state is 1-A.
 Alpha  occ. eigenvalues --   -1.82618  -1.80328  -1.78003  -1.71753  -1.69426
 Alpha  occ. eigenvalues --   -1.69251  -1.67045  -1.62091  -1.60722  -1.56292
 Alpha  occ. eigenvalues --   -1.56182  -1.52655  -1.49411  -1.47844  -1.46646
 Alpha  occ. eigenvalues --   -1.43213  -1.41721  -1.40217  -1.38363  -1.37444
 Alpha  occ. eigenvalues --   -1.34728  -1.33452  -1.32967  -1.32229  -1.29407
 Alpha  occ. eigenvalues --   -1.28580  -1.24900  -1.22486  -1.20857  -1.17713
 Alpha  occ. eigenvalues --   -1.16881  -1.15417  -1.14698  -1.13797  -1.13204
 Alpha  occ. eigenvalues --   -1.11800  -1.11248  -1.10965  -1.06200  -1.02856
 Alpha  occ. eigenvalues --   -1.01900  -1.01225  -0.98212  -0.97063  -0.96552
 Alpha  occ. eigenvalues --   -0.95619  -0.94712  -0.93431  -0.93102  -0.91877
 Alpha  occ. eigenvalues --   -0.90893  -0.89887  -0.89679  -0.88526  -0.87284
 Alpha  occ. eigenvalues --   -0.86354  -0.85441  -0.83286  -0.82235  -0.80165
 Alpha  occ. eigenvalues --   -0.79721  -0.79053  -0.76823  -0.75858  -0.75620
 Alpha  occ. eigenvalues --   -0.75142  -0.74741  -0.74307  -0.74199  -0.73727
 Alpha  occ. eigenvalues --   -0.73046  -0.72658  -0.72015  -0.71185  -0.70875
 Alpha  occ. eigenvalues --   -0.70227  -0.69306  -0.69292  -0.68274  -0.67901
 Alpha  occ. eigenvalues --   -0.67268  -0.66957  -0.66605  -0.65894  -0.65438
 Alpha  occ. eigenvalues --   -0.65405  -0.64323  -0.64320  -0.63548  -0.63061
 Alpha  occ. eigenvalues --   -0.62710  -0.62332  -0.62137  -0.61790  -0.61570
 Alpha  occ. eigenvalues --   -0.61239  -0.60955  -0.60391  -0.59966  -0.59849
 Alpha  occ. eigenvalues --   -0.59519  -0.59484  -0.58623  -0.58487  -0.58140
 Alpha  occ. eigenvalues --   -0.57769  -0.57658  -0.57121  -0.56511  -0.56216
 Alpha  occ. eigenvalues --   -0.55653  -0.55377  -0.55249  -0.54823  -0.54602
 Alpha  occ. eigenvalues --   -0.54475  -0.54147  -0.53070  -0.52988  -0.52714
 Alpha  occ. eigenvalues --   -0.52541  -0.52366  -0.51976  -0.51781  -0.51153
 Alpha  occ. eigenvalues --   -0.51012  -0.50881  -0.50667  -0.50358  -0.50130
 Alpha  occ. eigenvalues --   -0.49878  -0.49322  -0.49086  -0.49009  -0.48787
 Alpha  occ. eigenvalues --   -0.48735  -0.48440  -0.48124  -0.47888  -0.47441
 Alpha  occ. eigenvalues --   -0.47345  -0.46831  -0.46665  -0.46438  -0.46154
 Alpha  occ. eigenvalues --   -0.45851  -0.45773  -0.45571  -0.45258  -0.45200
 Alpha  occ. eigenvalues --   -0.45070  -0.44660  -0.44429  -0.44251  -0.43777
 Alpha  occ. eigenvalues --   -0.43149  -0.42676  -0.42606  -0.42267  -0.42175
 Alpha  occ. eigenvalues --   -0.42073  -0.41789  -0.40800  -0.38779  -0.38748
 Alpha  occ. eigenvalues --   -0.37714  -0.36980  -0.35464  -0.34529  -0.34253
 Alpha  occ. eigenvalues --   -0.33183  -0.32468  -0.32159  -0.31948  -0.26314
 Alpha  occ. eigenvalues --   -0.21950
 Alpha virt. eigenvalues --   -0.08986  -0.01864  -0.00536   0.01297   0.01905
 Alpha virt. eigenvalues --    0.02639   0.02822   0.03095   0.04812   0.05015
 Alpha virt. eigenvalues --    0.06012   0.06619   0.06855   0.07810   0.08120

 Mulliken charges:
               1
     1  Mg   0.425809
     2  C   -0.059849
     3  C   -0.069378
     4  C   -0.052203
     5  C   -0.073244
     6  N   -0.301817
     7  C    0.118758
     8  C    0.018085
     9  C    0.000502
    10  C    0.128612
    11  C   -0.061605
    12  C   -0.028548
    13  C    0.007562
    14  C    0.460646
    15  O   -0.515820
    16  O   -0.289446
    17  N   -0.335796
    18  C    0.126296
    19  C   -0.001140
    20  C   -0.045238
    21  C    0.145141
    22  C   -0.051630
    23  C    0.338670
    24  O   -0.527119
    25  C   -0.030932
    26  N   -0.273088
    27  C    0.164011
    28  C    0.003463
    29  C    0.002003
    30  C    0.109376
    31  C   -0.049607
    32  C   -0.024025
    33  C   -0.050266
    34  N   -0.302060
    35  C    0.095005
    36  C    0.017144
    37  C   -0.050863
    38  C    0.105426
    39  C   -0.031022
    40  C    0.337362
    41  O   -0.519996
    42  C    0.059867
    43  C    0.489940
    44  O   -0.516747
    45  O   -0.269434
    46  C    0.076691
    47  C    0.107921
    48  C   -0.090965
    49  C   -0.008360
    50  C   -0.044212
    51  C   -0.029436
    52  C   -0.033497
    53  C   -0.040022
    54  C   -0.014996
    55  C   -0.066652
    56  C   -0.039550
    57  C   -0.047722
    58  C   -0.036697
    59  C   -0.016699
    60  C   -0.056462
    61  C   -0.034850
    62  C   -0.038943
    63  C   -0.035406
    64  C   -0.008577
    65  C   -0.058560
    66  C   -0.051575
    67  H    0.027430
    68  H    0.029598
    69  H    0.031866
    70  H    0.052401
    71  H    0.022214
    72  H    0.019980
    73  H    0.030878
    74  H    0.028900
    75  H    0.019063
    76  H    0.026406
    77  H    0.046569
    78  H    0.053410
    79  H    0.025380
    80  H    0.036090
    81  H    0.032472
    82  H    0.042492
    83  H    0.034422
    84  H    0.039825
    85  H    0.041778
    86  H    0.023404
    87  H    0.027193
    88  H    0.022658
    89  H    0.021233
    90  H    0.018052
    91  H    0.019740
    92  H    0.020857
    93  H    0.016752
    94  H    0.015054
    95  H    0.015606
    96  H    0.038522
    97  H    0.037907
    98  H    0.052823
    99  H    0.038616
   100  H    0.038238
   101  H    0.038358
   102  H    0.052370
   103  H    0.047911
   104  H    0.036678
   105  H    0.018602
   106  H    0.028434
   107  H    0.032143
   108  H    0.032377
   109  H    0.017626
   110  H    0.019747
   111  H    0.031358
   112  H    0.017849
   113  H    0.013033
   114  H    0.035583
   115  H    0.019707
   116  H    0.011644
   117  H    0.013821
   118  H    0.026622
   119  H    0.030717
   120  H    0.007625
   121  H    0.022775
   122  H    0.029711
   123  H    0.020553
   124  H    0.027233
   125  H    0.012834
   126  H    0.019413
   127  H    0.013633
   128  H    0.025171
   129  H    0.009021
   130  H    0.019402
   131  H    0.024268
   132  H    0.013809
   133  H    0.014557
   134  H    0.015550
   135  H    0.016311
   136  H    0.014448
   137  H    0.019317
   138  H    0.016084
   139  H    0.013961
   140  H    0.017679
 Sum of Mulliken charges =  -0.00000

 Dipole moment (field-independent basis, Debye):
    X=             -4.8124    Y=              8.2825    Z=              1.2460  Tot=              9.6598
 N-N= 4.250182680629D+03 E-N= 0.000000000000D+00  KE=-9.175108486991D+03
 Leave Link  601 at Thu May  5 07:42:40 2022, MaxMem=  6710886400 cpu:               1.5 elap:               0.1
 (Enter /sw/apps/gaussian-16.0/g16/l9999.exe)
 1\1\GINC-BP1-COMPUTE181\SP\RZINDO CIS\STO-3G\C55H74Mg1N4O6\OF15641\05-
 May-2022\0\\#p ZINDO=(nstates=5)\\step_701_chromophore_4 ZINDO\\0,1\Mg
 ,0,8.715,2.989,27.779\C,0,10.121,1.591,30.712\C,0,6.912,5.228,29.908\C
 ,0,7.294,4.445,25.144\C,0,10.183,0.556,25.832\N,0,8.42,3.27,30.075\C,0
 ,9.137,2.605,31.082\C,0,8.833,3.145,32.483\C,0,7.908,4.324,32.167\C,0,
 7.606,4.275,30.604\C,0,6.625,4.365,33.069\C,0,10.153,3.63,33.103\C,0,1
 0.075,4.285,34.471\C,0,10.356,3.419,35.695\O,0,10.784,2.264,35.69\O,0,

 Normal termination of Gaussian 16 at Thu May  5 07:42:40 2022.
