 Gaussian 16, Revision A.03,
 Gaussian 16:  ES64L-G16RevA.03 25-Dec-2016

 ------------------------------
 #p blyp/Def2SVP td=(nstates=5)
 ------------------------------

 ---------------------------------------------------
 step_1601_chromophore_11 TDDFT with blyp functional
 ---------------------------------------------------
 Symbolic Z-matrix:
 Charge =  0 Multiplicity = 1

                         Standard orientation:
 ---------------------------------------------------------------------
 Center     Atomic      Atomic             Coordinates (Angstroms)
 Number     Number       Type             X           Y           Z
 ---------------------------------------------------------------------
      1         12           0       -4.349698    1.661501    0.542211
      2          6           0       -5.386991   -1.662206    0.291926
      3          6           0       -2.784606    0.843725    3.509964
      4          6           0       -2.566842    4.497250    0.373631
      5          6           0       -5.484318    2.189788   -2.736574
      6          7           0       -4.028951   -0.207417    1.632138
      7          6           0       -4.560854   -1.423502    1.451220
      8          6           0       -4.228640   -2.397169    2.542471
      9          6           0       -3.587039   -1.577321    3.599042
     10          6           0       -3.502342   -0.212755    2.891802
     11          6           0       -4.406597   -1.488003    4.962587
     12          6           0       -3.323687   -3.524689    2.081194
     13          6           0       -2.169885   -3.146969    1.180578
     14          6           0       -1.831336   -4.075079    0.013263
     15          8           0       -2.383387   -5.063220   -0.349098
     16          8           0       -0.679952   -3.694987   -0.601631
     17          7           0       -2.840213    2.515919    1.785361
     18          6           0       -2.441431    2.072886    2.992989
     19          6           0       -1.558865    3.034040    3.620834
     20          6           0       -1.556242    4.112226    2.728715
     21          6           0       -2.348616    3.734362    1.544035
     22          6           0       -1.057016    3.003926    5.044842
     23          6           0       -0.897268    5.493227    3.078647
     24          8           0       -0.253653    5.588458    4.121076
     25          6           0       -1.015415    6.693794    2.178130
     26          7           0       -3.962976    3.026989   -1.136874
     27          6           0       -3.310569    4.218039   -0.823895
     28          6           0       -3.379982    5.109508   -2.034443
     29          6           0       -4.293545    4.387436   -3.058662
     30          6           0       -4.555991    3.107171   -2.280621
     31          6           0       -3.810230    6.602960   -1.787288
     32          6           0       -3.731101    4.193363   -4.544448
     33          6           0       -4.546603    4.610829   -5.800398
     34          7           0       -5.408761    0.576452   -0.908053
     35          6           0       -5.791807    0.917052   -2.165480
     36          6           0       -6.741897   -0.105648   -2.636745
     37          6           0       -6.627927   -1.091832   -1.682644
     38          6           0       -5.723131   -0.677011   -0.693436
     39          6           0       -7.569111   -0.048552   -3.929379
     40          6           0       -7.014267   -2.418319   -1.382653
     41          8           0       -7.860385   -3.170052   -1.929453
     42          6           0       -6.264447   -2.873115   -0.118143
     43          6           0       -5.575683   -4.050536   -0.572722
     44          8           0       -4.783241   -4.014031   -1.500985
     45          8           0       -5.981546   -5.199282    0.087759
     46          6           0       -5.586335   -6.474274   -0.508363
     47          6           0        0.210902   -4.711633   -1.087344
     48          6           0        1.510383   -3.928646   -1.141175
     49          6           0        2.410138   -3.763167   -0.127804
     50          6           0        2.155013   -4.118849    1.304217
     51          6           0        3.855524   -3.252539   -0.466328
     52          6           0        4.129700   -1.809099   -0.000229
     53          6           0        5.659137   -1.454998    0.209199
     54          6           0        6.043531   -0.375954   -0.786704
     55          6           0        6.560534   -1.083501   -2.016403
     56          6           0        7.097125    0.624568   -0.133022
     57          6           0        8.236700   -0.144874    0.582191
     58          6           0        9.588588    0.640572    0.530224
     59          6           0       10.800175   -0.188504    1.073101
     60          6           0       10.831267   -0.003631    2.628204
     61          6           0       12.182299    0.224295    0.599382
     62          6           0       12.557458   -0.607845   -0.588582
     63          6           0       13.182702    0.368093   -1.633134
     64          6           0       14.745599    0.255326   -1.687465
     65          6           0       15.329323    1.671953   -1.604548
     66          6           0       15.141615   -0.521969   -2.991166
     67          1           0       -2.486520    0.631865    4.538958
     68          1           0       -2.082735    5.454898    0.166360
     69          1           0       -5.857574    2.373294   -3.746740
     70          1           0       -5.146880   -2.874510    2.883191
     71          1           0       -2.572562   -1.892391    3.845122
     72          1           0       -5.458377   -1.725946    4.807818
     73          1           0       -4.465858   -0.466123    5.336765
     74          1           0       -4.089533   -2.262512    5.660454
     75          1           0       -3.980888   -4.199086    1.531885
     76          1           0       -2.952134   -4.088551    2.937061
     77          1           0       -1.301788   -3.098215    1.836846
     78          1           0       -2.248090   -2.129329    0.798257
     79          1           0       -0.005284    3.255298    4.910849
     80          1           0       -1.199547    1.977502    5.380863
     81          1           0       -1.574154    3.702231    5.702825
     82          1           0       -0.805670    7.562898    2.800988
     83          1           0       -2.027793    6.784946    1.783204
     84          1           0       -0.251455    6.680022    1.400143
     85          1           0       -2.335642    5.052814   -2.340733
     86          1           0       -5.167862    5.034939   -3.130211
     87          1           0       -4.834053    6.861737   -2.056880
     88          1           0       -3.163011    7.366982   -2.218813
     89          1           0       -3.706551    6.712945   -0.708344
     90          1           0       -3.603636    3.131788   -4.753903
     91          1           0       -2.741505    4.564014   -4.814017
     92          1           0       -4.020522    5.466399   -6.223642
     93          1           0       -5.495226    5.061299   -5.508148
     94          1           0       -4.674950    3.819299   -6.539344
     95          1           0       -7.319219   -0.864828   -4.606906
     96          1           0       -7.451880    0.834691   -4.558249
     97          1           0       -8.596894   -0.156414   -3.582961
     98          1           0       -6.929117   -3.133881    0.705626
     99          1           0       -4.517858   -6.613986   -0.347556
    100          1           0       -5.640114   -6.373163   -1.592686
    101          1           0       -6.095139   -7.361200   -0.132514
    102          1           0        0.031800   -5.156724   -2.066353
    103          1           0        0.284449   -5.495010   -0.333845
    104          1           0        1.922115   -3.760057   -2.136394
    105          1           0        2.972269   -4.774524    1.602295
    106          1           0        1.289513   -4.776819    1.387589
    107          1           0        2.221760   -3.219369    1.916037
    108          1           0        4.081379   -3.280289   -1.532380
    109          1           0        4.466526   -4.010739    0.024327
    110          1           0        3.578768   -1.673473    0.930217
    111          1           0        3.709120   -1.055155   -0.665131
    112          1           0        6.260859   -2.362922    0.214242
    113          1           0        5.713390   -1.051758    1.220262
    114          1           0        5.272367    0.279526   -1.192589
    115          1           0        6.672042   -2.163926   -1.926305
    116          1           0        7.546321   -0.717037   -2.305310
    117          1           0        5.950213   -0.766427   -2.862756
    118          1           0        6.498679    1.269707    0.510914
    119          1           0        7.548208    1.094768   -1.006865
    120          1           0        8.364974   -1.083764    0.044582
    121          1           0        7.882792   -0.413995    1.576720
    122          1           0        9.373603    1.525419    1.130592
    123          1           0        9.842245    1.002114   -0.466120
    124          1           0       10.601728   -1.255659    0.977201
    125          1           0       11.544600    0.731965    2.999413
    126          1           0       11.221311   -0.950339    3.000391
    127          1           0        9.876999    0.221908    3.104258
    128          1           0       12.924879    0.117273    1.390176
    129          1           0       12.236247    1.308148    0.503148
    130          1           0       11.667088   -1.103106   -0.975249
    131          1           0       13.272212   -1.370367   -0.279547
    132          1           0       12.846980    1.404489   -1.677854
    133          1           0       12.858985   -0.036060   -2.591639
    134          1           0       15.181345   -0.309086   -0.863155
    135          1           0       16.282232    1.513582   -1.099268
    136          1           0       14.788683    2.383657   -0.981553
    137          1           0       15.593375    2.096827   -2.573216
    138          1           0       15.133510   -1.561179   -2.664481
    139          1           0       16.186908   -0.547869   -3.298365
    140          1           0       14.536951   -0.405357   -3.890997
 ---------------------------------------------------------------------

 SCF Done:  E(RB-LYP) =  -3007.34104545     A.U. after   20 cycles

 Excitation energies and oscillator strengths:

 Excited State   1:      Singlet-A      1.8306 eV  677.30 nm  f=0.2217  <S**2>=0.000
     244 -> 247        0.34597
     245 -> 248        0.17615
     246 -> 247        0.59804
     246 <- 247       -0.12383
 This state for optimization and/or second-order correction.
 Total Energy, E(TD-HF/TD-DFT) =  -3007.27377340
 Copying the excited state density for this state as the 1-particle RhoCI density.

 Excited State   2:      Singlet-A      1.8385 eV  674.37 nm  f=0.0790  <S**2>=0.000
     244 -> 247        0.61547
     246 -> 247       -0.33633

 Excited State   3:      Singlet-A      2.0276 eV  611.48 nm  f=0.0070  <S**2>=0.000
     243 -> 247        0.66944
     245 -> 247        0.20533

 Excited State   4:      Singlet-A      2.0696 eV  599.07 nm  f=0.0533  <S**2>=0.000
     243 -> 247       -0.22281
     245 -> 247        0.60079
     246 -> 248       -0.26155

 Excited State   5:      Singlet-A      2.1921 eV  565.61 nm  f=0.0003  <S**2>=0.000
     242 -> 247        0.70458

 The electronic state is 1-A.
 Alpha  occ. eigenvalues --  -46.28692 -18.80875 -18.79744 -18.76133 -18.75704
 Alpha  occ. eigenvalues --  -18.75111 -18.74638 -14.04065 -14.03005 -14.01263
 Alpha  occ. eigenvalues --  -14.00633 -10.03003 -10.02426 -10.00121  -9.98703
 Alpha  occ. eigenvalues --   -9.97295  -9.96976  -9.96959  -9.96589  -9.96264
 Alpha  occ. eigenvalues --   -9.95868  -9.95765  -9.95558  -9.95033  -9.94402
 Alpha  occ. eigenvalues --   -9.94340  -9.94262  -9.94172  -9.94171  -9.93654
 Alpha  occ. eigenvalues --   -9.93549  -9.93461  -9.93123  -9.93097  -9.93046
 Alpha  occ. eigenvalues --   -9.93021  -9.92975  -9.92943  -9.92767  -9.92650
 Alpha  occ. eigenvalues --   -9.92473  -9.92441  -9.92309  -9.92283  -9.92274
 Alpha  occ. eigenvalues --   -9.92263  -9.92217  -9.92097  -9.92012  -9.91768
 Alpha  occ. eigenvalues --   -9.91425  -9.91415  -9.91374  -9.91154  -9.91116
 Alpha  occ. eigenvalues --   -9.91109  -9.90951  -9.90849  -9.90797  -9.90783
 Alpha  occ. eigenvalues --   -9.90507  -9.90413  -9.90384  -9.90265  -9.90196
 Alpha  occ. eigenvalues --   -9.89976  -2.93183  -1.73569  -1.73100  -1.72877
 Alpha  occ. eigenvalues --   -0.98144  -0.96056  -0.91396  -0.89857  -0.89269
 Alpha  occ. eigenvalues --   -0.88316  -0.87980  -0.87509  -0.86988  -0.86470
 Alpha  occ. eigenvalues --   -0.75184  -0.74157  -0.73385  -0.72796  -0.72443
 Alpha  occ. eigenvalues --   -0.72018  -0.71941  -0.71076  -0.70528  -0.70022
 Alpha  occ. eigenvalues --   -0.69503  -0.69210  -0.67868  -0.67577  -0.67302
 Alpha  occ. eigenvalues --   -0.66367  -0.65906  -0.65229  -0.64737  -0.64484
 Alpha  occ. eigenvalues --   -0.63849  -0.62638  -0.62230  -0.61474  -0.60495
 Alpha  occ. eigenvalues --   -0.60412  -0.60339  -0.60280  -0.59002  -0.58371
 Alpha  occ. eigenvalues --   -0.58218  -0.57920  -0.57146  -0.55832  -0.54476
 Alpha  occ. eigenvalues --   -0.54194  -0.53604  -0.52684  -0.52112  -0.51933
 Alpha  occ. eigenvalues --   -0.51834  -0.51343  -0.51244  -0.50524  -0.49552
 Alpha  occ. eigenvalues --   -0.49256  -0.49129  -0.47830  -0.47719  -0.46398
 Alpha  occ. eigenvalues --   -0.46150  -0.45799  -0.45552  -0.45335  -0.44979
 Alpha  occ. eigenvalues --   -0.44217  -0.43916  -0.43530  -0.43297  -0.42620
 Alpha  occ. eigenvalues --   -0.42381  -0.42113  -0.41652  -0.41618  -0.40698
 Alpha  occ. eigenvalues --   -0.40271  -0.40244  -0.39979  -0.39748  -0.39601
 Alpha  occ. eigenvalues --   -0.39530  -0.39440  -0.39245  -0.39172  -0.38894
 Alpha  occ. eigenvalues --   -0.38654  -0.38450  -0.38367  -0.38269  -0.38163
 Alpha  occ. eigenvalues --   -0.37967  -0.37848  -0.37397  -0.37322  -0.37160
 Alpha  occ. eigenvalues --   -0.36776  -0.36709  -0.36287  -0.36225  -0.36167
 Alpha  occ. eigenvalues --   -0.36119  -0.36010  -0.35892  -0.35624  -0.35597
 Alpha  occ. eigenvalues --   -0.35248  -0.35167  -0.34974  -0.34704  -0.34661
 Alpha  occ. eigenvalues --   -0.34419  -0.34301  -0.34240  -0.34126  -0.33822
 Alpha  occ. eigenvalues --   -0.33749  -0.33613  -0.33404  -0.33269  -0.32954
 Alpha  occ. eigenvalues --   -0.32683  -0.32510  -0.32414  -0.32092  -0.31976
 Alpha  occ. eigenvalues --   -0.31897  -0.31775  -0.31660  -0.31409  -0.31170
 Alpha  occ. eigenvalues --   -0.30969  -0.30743  -0.30618  -0.30585  -0.30398
 Alpha  occ. eigenvalues --   -0.30174  -0.30081  -0.29983  -0.29851  -0.29794
 Alpha  occ. eigenvalues --   -0.29593  -0.29300  -0.29067  -0.28768  -0.28662
 Alpha  occ. eigenvalues --   -0.28485  -0.28344  -0.28323  -0.28151  -0.27868
 Alpha  occ. eigenvalues --   -0.27782  -0.27623  -0.27449  -0.26739  -0.26629
 Alpha  occ. eigenvalues --   -0.26408  -0.25905  -0.25767  -0.25357  -0.24714
 Alpha  occ. eigenvalues --   -0.23975  -0.23910  -0.23692  -0.23268  -0.23201
 Alpha  occ. eigenvalues --   -0.22438  -0.22120  -0.21869  -0.20750  -0.20497
 Alpha  occ. eigenvalues --   -0.20336  -0.19386  -0.18728  -0.17960  -0.17381
 Alpha  occ. eigenvalues --   -0.15755
 Alpha virt. eigenvalues --   -0.11335  -0.07086  -0.06058  -0.04688  -0.04543
 Alpha virt. eigenvalues --   -0.02351  -0.01950  -0.01640  -0.01200  -0.00230
 Alpha virt. eigenvalues --    0.01320   0.01756   0.02311   0.02735   0.03237

 Mulliken charges:
               1
     1  Mg   0.705125
     2  C    0.003821
     3  C   -0.102654
     4  C   -0.059941
     5  C   -0.063443
     6  N   -0.189325
     7  C   -0.116540
     8  C    0.116248
     9  C    0.002175
    10  C    0.003988
    11  C    0.119368
    12  C    0.103898
    13  C    0.078759
    14  C    0.070734
    15  O   -0.133418
    16  O   -0.264935
    17  N   -0.234852
    18  C    0.143898
    19  C   -0.178862
    20  C    0.021557
    21  C    0.154824
    22  C    0.207975
    23  C   -0.082974
    24  O   -0.174209
    25  C    0.145331
    26  N   -0.176495
    27  C   -0.077235
    28  C    0.038181
    29  C    0.084795
    30  C   -0.018542
    31  C    0.122411
    32  C    0.063633
    33  C    0.039878
    34  N   -0.227073
    35  C    0.088795
    36  C   -0.174276
    37  C    0.163387
    38  C    0.043957
    39  C    0.165087
    40  C   -0.093738
    41  O   -0.174798
    42  C    0.142004
    43  C    0.089798
    44  O   -0.181183
    45  O   -0.280923
    46  C    0.229094
    47  C    0.324457
    48  C   -0.069388
    49  C   -0.183929
    50  C    0.178158
    51  C    0.125722
    52  C    0.086411
    53  C    0.124213
    54  C   -0.117824
    55  C    0.116372
    56  C    0.117690
    57  C    0.030609
    58  C    0.133889
    59  C   -0.062877
    60  C    0.073596
    61  C    0.123938
    62  C    0.098867
    63  C    0.109615
    64  C   -0.078881
    65  C    0.105446
    66  C    0.085318
    67  H   -0.060438
    68  H   -0.065132
    69  H   -0.061144
    70  H   -0.035806
    71  H   -0.017870
    72  H   -0.024394
    73  H   -0.003361
    74  H   -0.000837
    75  H   -0.004742
    76  H   -0.027122
    77  H   -0.007084
    78  H    0.023491
    79  H    0.015425
    80  H   -0.031504
    81  H    0.016520
    82  H   -0.010471
    83  H    0.009246
    84  H    0.021133
    85  H   -0.015213
    86  H   -0.022680
    87  H   -0.005601
    88  H   -0.007706
    89  H   -0.019390
    90  H   -0.021722
    91  H   -0.022533
    92  H   -0.012578
    93  H   -0.017840
    94  H    0.008834
    95  H    0.012718
    96  H   -0.018786
    97  H    0.014497
    98  H   -0.022174
    99  H    0.007824
   100  H    0.009322
   101  H    0.012335
   102  H   -0.002119
   103  H   -0.023852
   104  H   -0.047677
   105  H   -0.022512
   106  H   -0.016653
   107  H    0.013184
   108  H   -0.029364
   109  H   -0.027723
   110  H   -0.044474
   111  H   -0.028252
   112  H   -0.025435
   113  H   -0.044486
   114  H   -0.032961
   115  H   -0.010860
   116  H   -0.033021
   117  H   -0.022074
   118  H   -0.020842
   119  H   -0.043079
   120  H   -0.034892
   121  H   -0.023715
   122  H   -0.032591
   123  H   -0.038634
   124  H   -0.035821
   125  H   -0.021644
   126  H   -0.029338
   127  H   -0.023340
   128  H   -0.049963
   129  H   -0.040080
   130  H   -0.023808
   131  H   -0.025578
   132  H   -0.027463
   133  H   -0.055092
   134  H   -0.030963
   135  H   -0.033657
   136  H   -0.012667
   137  H   -0.015684
   138  H   -0.032079
   139  H   -0.031754
   140  H    0.001038
 Sum of Mulliken charges =  -0.00000

 Dipole moment (field-independent basis, Debye):
    X=              1.5739    Y=              2.8987    Z=              1.1374  Tot=              3.4890
 Quadrupole moment (field-independent basis, Debye-Ang):
   XX=           -417.5322   YY=           -397.6948   ZZ=           -401.2441
   XY=            -46.4060   XZ=            -19.9903   YZ=            -39.4545

 Normal termination of Gaussian 16 at Thu Apr 28 14:21:48 2022.
