 Gaussian 16, Revision A.03,
 Gaussian 16:  ES64L-G16RevA.03 25-Dec-2016

 -----------------------------------
 #p cam-b3lyp/Def2SVP td=(nstates=5)
 -----------------------------------

 --------------------------------------------------------
 step_1601_chromophore_11 TDDFT with cam-b3lyp functional
 --------------------------------------------------------
 Symbolic Z-matrix:
 Charge =  0 Multiplicity = 1

                         Standard orientation:
 ---------------------------------------------------------------------
 Center     Atomic      Atomic             Coordinates (Angstroms)
 Number     Number       Type             X           Y           Z
 ---------------------------------------------------------------------
      1         12           0       -4.349698    1.661501    0.542211
      2          6           0       -5.386991   -1.662206    0.291926
      3          6           0       -2.784606    0.843725    3.509964
      4          6           0       -2.566842    4.497250    0.373631
      5          6           0       -5.484318    2.189788   -2.736574
      6          7           0       -4.028951   -0.207417    1.632138
      7          6           0       -4.560854   -1.423502    1.451220
      8          6           0       -4.228640   -2.397169    2.542471
      9          6           0       -3.587039   -1.577321    3.599042
     10          6           0       -3.502342   -0.212755    2.891802
     11          6           0       -4.406597   -1.488003    4.962587
     12          6           0       -3.323687   -3.524689    2.081194
     13          6           0       -2.169885   -3.146969    1.180578
     14          6           0       -1.831336   -4.075079    0.013263
     15          8           0       -2.383387   -5.063220   -0.349098
     16          8           0       -0.679952   -3.694987   -0.601631
     17          7           0       -2.840213    2.515919    1.785361
     18          6           0       -2.441431    2.072886    2.992989
     19          6           0       -1.558865    3.034040    3.620834
     20          6           0       -1.556242    4.112226    2.728715
     21          6           0       -2.348616    3.734362    1.544035
     22          6           0       -1.057016    3.003926    5.044842
     23          6           0       -0.897268    5.493227    3.078647
     24          8           0       -0.253653    5.588458    4.121076
     25          6           0       -1.015415    6.693794    2.178130
     26          7           0       -3.962976    3.026989   -1.136874
     27          6           0       -3.310569    4.218039   -0.823895
     28          6           0       -3.379982    5.109508   -2.034443
     29          6           0       -4.293545    4.387436   -3.058662
     30          6           0       -4.555991    3.107171   -2.280621
     31          6           0       -3.810230    6.602960   -1.787288
     32          6           0       -3.731101    4.193363   -4.544448
     33          6           0       -4.546603    4.610829   -5.800398
     34          7           0       -5.408761    0.576452   -0.908053
     35          6           0       -5.791807    0.917052   -2.165480
     36          6           0       -6.741897   -0.105648   -2.636745
     37          6           0       -6.627927   -1.091832   -1.682644
     38          6           0       -5.723131   -0.677011   -0.693436
     39          6           0       -7.569111   -0.048552   -3.929379
     40          6           0       -7.014267   -2.418319   -1.382653
     41          8           0       -7.860385   -3.170052   -1.929453
     42          6           0       -6.264447   -2.873115   -0.118143
     43          6           0       -5.575683   -4.050536   -0.572722
     44          8           0       -4.783241   -4.014031   -1.500985
     45          8           0       -5.981546   -5.199282    0.087759
     46          6           0       -5.586335   -6.474274   -0.508363
     47          6           0        0.210902   -4.711633   -1.087344
     48          6           0        1.510383   -3.928646   -1.141175
     49          6           0        2.410138   -3.763167   -0.127804
     50          6           0        2.155013   -4.118849    1.304217
     51          6           0        3.855524   -3.252539   -0.466328
     52          6           0        4.129700   -1.809099   -0.000229
     53          6           0        5.659137   -1.454998    0.209199
     54          6           0        6.043531   -0.375954   -0.786704
     55          6           0        6.560534   -1.083501   -2.016403
     56          6           0        7.097125    0.624568   -0.133022
     57          6           0        8.236700   -0.144874    0.582191
     58          6           0        9.588588    0.640572    0.530224
     59          6           0       10.800175   -0.188504    1.073101
     60          6           0       10.831267   -0.003631    2.628204
     61          6           0       12.182299    0.224295    0.599382
     62          6           0       12.557458   -0.607845   -0.588582
     63          6           0       13.182702    0.368093   -1.633134
     64          6           0       14.745599    0.255326   -1.687465
     65          6           0       15.329323    1.671953   -1.604548
     66          6           0       15.141615   -0.521969   -2.991166
     67          1           0       -2.486520    0.631865    4.538958
     68          1           0       -2.082735    5.454898    0.166360
     69          1           0       -5.857574    2.373294   -3.746740
     70          1           0       -5.146880   -2.874510    2.883191
     71          1           0       -2.572562   -1.892391    3.845122
     72          1           0       -5.458377   -1.725946    4.807818
     73          1           0       -4.465858   -0.466123    5.336765
     74          1           0       -4.089533   -2.262512    5.660454
     75          1           0       -3.980888   -4.199086    1.531885
     76          1           0       -2.952134   -4.088551    2.937061
     77          1           0       -1.301788   -3.098215    1.836846
     78          1           0       -2.248090   -2.129329    0.798257
     79          1           0       -0.005284    3.255298    4.910849
     80          1           0       -1.199547    1.977502    5.380863
     81          1           0       -1.574154    3.702231    5.702825
     82          1           0       -0.805670    7.562898    2.800988
     83          1           0       -2.027793    6.784946    1.783204
     84          1           0       -0.251455    6.680022    1.400143
     85          1           0       -2.335642    5.052814   -2.340733
     86          1           0       -5.167862    5.034939   -3.130211
     87          1           0       -4.834053    6.861737   -2.056880
     88          1           0       -3.163011    7.366982   -2.218813
     89          1           0       -3.706551    6.712945   -0.708344
     90          1           0       -3.603636    3.131788   -4.753903
     91          1           0       -2.741505    4.564014   -4.814017
     92          1           0       -4.020522    5.466399   -6.223642
     93          1           0       -5.495226    5.061299   -5.508148
     94          1           0       -4.674950    3.819299   -6.539344
     95          1           0       -7.319219   -0.864828   -4.606906
     96          1           0       -7.451880    0.834691   -4.558249
     97          1           0       -8.596894   -0.156414   -3.582961
     98          1           0       -6.929117   -3.133881    0.705626
     99          1           0       -4.517858   -6.613986   -0.347556
    100          1           0       -5.640114   -6.373163   -1.592686
    101          1           0       -6.095139   -7.361200   -0.132514
    102          1           0        0.031800   -5.156724   -2.066353
    103          1           0        0.284449   -5.495010   -0.333845
    104          1           0        1.922115   -3.760057   -2.136394
    105          1           0        2.972269   -4.774524    1.602295
    106          1           0        1.289513   -4.776819    1.387589
    107          1           0        2.221760   -3.219369    1.916037
    108          1           0        4.081379   -3.280289   -1.532380
    109          1           0        4.466526   -4.010739    0.024327
    110          1           0        3.578768   -1.673473    0.930217
    111          1           0        3.709120   -1.055155   -0.665131
    112          1           0        6.260859   -2.362922    0.214242
    113          1           0        5.713390   -1.051758    1.220262
    114          1           0        5.272367    0.279526   -1.192589
    115          1           0        6.672042   -2.163926   -1.926305
    116          1           0        7.546321   -0.717037   -2.305310
    117          1           0        5.950213   -0.766427   -2.862756
    118          1           0        6.498679    1.269707    0.510914
    119          1           0        7.548208    1.094768   -1.006865
    120          1           0        8.364974   -1.083764    0.044582
    121          1           0        7.882792   -0.413995    1.576720
    122          1           0        9.373603    1.525419    1.130592
    123          1           0        9.842245    1.002114   -0.466120
    124          1           0       10.601728   -1.255659    0.977201
    125          1           0       11.544600    0.731965    2.999413
    126          1           0       11.221311   -0.950339    3.000391
    127          1           0        9.876999    0.221908    3.104258
    128          1           0       12.924879    0.117273    1.390176
    129          1           0       12.236247    1.308148    0.503148
    130          1           0       11.667088   -1.103106   -0.975249
    131          1           0       13.272212   -1.370367   -0.279547
    132          1           0       12.846980    1.404489   -1.677854
    133          1           0       12.858985   -0.036060   -2.591639
    134          1           0       15.181345   -0.309086   -0.863155
    135          1           0       16.282232    1.513582   -1.099268
    136          1           0       14.788683    2.383657   -0.981553
    137          1           0       15.593375    2.096827   -2.573216
    138          1           0       15.133510   -1.561179   -2.664481
    139          1           0       16.186908   -0.547869   -3.298365
    140          1           0       14.536951   -0.405357   -3.890997
 ---------------------------------------------------------------------

 SCF Done:  E(RCAM-B3LYP) =  -3007.14861319     A.U. after   17 cycles

 Excitation energies and oscillator strengths:

 Excited State   1:      Singlet-A      1.7314 eV  716.07 nm  f=0.3605  <S**2>=0.000
     245 -> 248        0.18852
     246 -> 247        0.68319
     245 <- 248        0.10942
 This state for optimization and/or second-order correction.
 Total Energy, E(TD-HF/TD-DFT) =  -3007.08498376
 Copying the excited state density for this state as the 1-particle RhoCI density.

 Excited State   2:      Singlet-A      2.2826 eV  543.17 nm  f=0.0642  <S**2>=0.000
     245 -> 247        0.61374
     246 -> 248       -0.34040

 Excited State   3:      Singlet-A      3.3717 eV  367.72 nm  f=0.1311  <S**2>=0.000
     241 -> 247        0.20382
     241 -> 250       -0.12812
     241 -> 251        0.10358
     242 -> 247       -0.16326
     243 -> 247       -0.27203
     245 -> 247       -0.15112
     246 -> 248       -0.33285
     246 -> 249        0.36538
     246 -> 250        0.18494

 Excited State   4:      Singlet-A      3.3904 eV  365.69 nm  f=0.0586  <S**2>=0.000
     241 -> 247        0.39530
     241 -> 249        0.12317
     241 -> 250       -0.19209
     241 -> 251        0.15904
     242 -> 247       -0.14919
     243 -> 247       -0.17182
     245 -> 247        0.10454
     246 -> 248        0.20116
     246 -> 249       -0.31692
     246 -> 250       -0.16424

 Excited State   5:      Singlet-A      3.5013 eV  354.11 nm  f=0.1896  <S**2>=0.000
     241 -> 247        0.20559
     242 -> 247       -0.10436
     243 -> 247        0.37494
     245 -> 247        0.16827
     246 -> 248        0.32009
     246 -> 249        0.36531
     246 -> 250        0.13941

 The electronic state is 1-A.
 Alpha  occ. eigenvalues --  -46.90373 -19.23762 -19.22427 -19.18982 -19.18962
 Alpha  occ. eigenvalues --  -19.18188 -19.17811 -14.43041 -14.41802 -14.39759
 Alpha  occ. eigenvalues --  -14.38985 -10.38045 -10.37828 -10.35364 -10.34026
 Alpha  occ. eigenvalues --  -10.31551 -10.31477 -10.31272 -10.31082 -10.30738
 Alpha  occ. eigenvalues --  -10.30132 -10.29792 -10.29676 -10.29289 -10.28587
 Alpha  occ. eigenvalues --  -10.28557 -10.28360 -10.28178 -10.28161 -10.28123
 Alpha  occ. eigenvalues --  -10.27612 -10.27478 -10.27477 -10.27427 -10.26961
 Alpha  occ. eigenvalues --  -10.26849 -10.26832 -10.26822 -10.26795 -10.26728
 Alpha  occ. eigenvalues --  -10.26686 -10.26340 -10.26301 -10.26262 -10.26195
 Alpha  occ. eigenvalues --  -10.25930 -10.25906 -10.25741 -10.25709 -10.25575
 Alpha  occ. eigenvalues --  -10.25122 -10.25078 -10.25013 -10.24825 -10.24790
 Alpha  occ. eigenvalues --  -10.24754 -10.24694 -10.24617 -10.24444 -10.24389
 Alpha  occ. eigenvalues --  -10.24378 -10.24156 -10.23915 -10.23820 -10.23780
 Alpha  occ. eigenvalues --  -10.23567  -3.18754  -1.93619  -1.93232  -1.93031
 Alpha  occ. eigenvalues --   -1.16538  -1.14564  -1.09825  -1.07599  -1.07495
 Alpha  occ. eigenvalues --   -1.06258  -1.05822  -1.05249  -1.04646  -1.04075
 Alpha  occ. eigenvalues --   -0.92335  -0.91000  -0.90208  -0.89558  -0.89177
 Alpha  occ. eigenvalues --   -0.88675  -0.88607  -0.87655  -0.87078  -0.86603
 Alpha  occ. eigenvalues --   -0.86076  -0.85601  -0.84091  -0.83763  -0.83489
 Alpha  occ. eigenvalues --   -0.82364  -0.82142  -0.81195  -0.80549  -0.80293
 Alpha  occ. eigenvalues --   -0.79598  -0.78258  -0.77751  -0.77086  -0.75871
 Alpha  occ. eigenvalues --   -0.75730  -0.75651  -0.75640  -0.74224  -0.73567
 Alpha  occ. eigenvalues --   -0.73273  -0.72929  -0.72086  -0.70636  -0.69034
 Alpha  occ. eigenvalues --   -0.68822  -0.68165  -0.67113  -0.66316  -0.66179
 Alpha  occ. eigenvalues --   -0.66091  -0.65516  -0.65309  -0.64590  -0.63547
 Alpha  occ. eigenvalues --   -0.63198  -0.62784  -0.61472  -0.61454  -0.60036
 Alpha  occ. eigenvalues --   -0.59799  -0.59238  -0.59003  -0.58760  -0.58410
 Alpha  occ. eigenvalues --   -0.57713  -0.57506  -0.56749  -0.56408  -0.55757
 Alpha  occ. eigenvalues --   -0.55477  -0.55085  -0.54699  -0.54399  -0.53434
 Alpha  occ. eigenvalues --   -0.53255  -0.52892  -0.52786  -0.52508  -0.52352
 Alpha  occ. eigenvalues --   -0.52248  -0.52065  -0.51967  -0.51880  -0.51466
 Alpha  occ. eigenvalues --   -0.51209  -0.51033  -0.50928  -0.50622  -0.50537
 Alpha  occ. eigenvalues --   -0.50289  -0.50077  -0.49828  -0.49654  -0.49480
 Alpha  occ. eigenvalues --   -0.49140  -0.48932  -0.48797  -0.48619  -0.48397
 Alpha  occ. eigenvalues --   -0.48321  -0.48175  -0.48053  -0.47835  -0.47673
 Alpha  occ. eigenvalues --   -0.47499  -0.47202  -0.47053  -0.46863  -0.46563
 Alpha  occ. eigenvalues --   -0.46389  -0.46244  -0.46144  -0.46065  -0.45546
 Alpha  occ. eigenvalues --   -0.45465  -0.45325  -0.45257  -0.44954  -0.44709
 Alpha  occ. eigenvalues --   -0.44232  -0.44028  -0.43923  -0.43698  -0.43552
 Alpha  occ. eigenvalues --   -0.43446  -0.43327  -0.43231  -0.43161  -0.42560
 Alpha  occ. eigenvalues --   -0.42486  -0.42189  -0.42127  -0.41963  -0.41957
 Alpha  occ. eigenvalues --   -0.41542  -0.41442  -0.41217  -0.41119  -0.40951
 Alpha  occ. eigenvalues --   -0.40906  -0.40663  -0.40372  -0.40230  -0.40019
 Alpha  occ. eigenvalues --   -0.39795  -0.39675  -0.39514  -0.39093  -0.38962
 Alpha  occ. eigenvalues --   -0.38712  -0.38481  -0.38351  -0.37624  -0.37491
 Alpha  occ. eigenvalues --   -0.37361  -0.36794  -0.36425  -0.36006  -0.35448
 Alpha  occ. eigenvalues --   -0.35252  -0.34783  -0.34540  -0.33698  -0.33480
 Alpha  occ. eigenvalues --   -0.33430  -0.32800  -0.32775  -0.31165  -0.30990
 Alpha  occ. eigenvalues --   -0.30345  -0.30121  -0.29815  -0.29231  -0.24169
 Alpha  occ. eigenvalues --   -0.20971
 Alpha virt. eigenvalues --   -0.08298  -0.02065   0.00104   0.00750   0.02452
 Alpha virt. eigenvalues --    0.05014   0.05437   0.06074   0.06678   0.07135
 Alpha virt. eigenvalues --    0.07815   0.08488   0.08859   0.08901   0.09393

 Mulliken charges:
               1
     1  Mg   0.834914
     2  C   -0.012381
     3  C   -0.106919
     4  C   -0.084322
     5  C   -0.066881
     6  N   -0.255536
     7  C   -0.081899
     8  C    0.061526
     9  C   -0.056643
    10  C    0.018343
    11  C    0.063700
    12  C    0.054924
    13  C    0.007321
    14  C    0.153947
    15  O   -0.175204
    16  O   -0.326796
    17  N   -0.324204
    18  C    0.144214
    19  C   -0.175515
    20  C   -0.048043
    21  C    0.182867
    22  C    0.153534
    23  C   -0.002994
    24  O   -0.213942
    25  C    0.061040
    26  N   -0.250749
    27  C   -0.043960
    28  C   -0.025035
    29  C    0.029328
    30  C    0.001253
    31  C    0.064786
    32  C    0.007237
    33  C   -0.019548
    34  N   -0.316896
    35  C    0.093417
    36  C   -0.168629
    37  C    0.078265
    38  C    0.076392
    39  C    0.119703
    40  C    0.004396
    41  O   -0.213288
    42  C    0.061738
    43  C    0.178224
    44  O   -0.214876
    45  O   -0.345641
    46  C    0.187169
    47  C    0.288066
    48  C   -0.089269
    49  C   -0.203739
    50  C    0.116691
    51  C    0.072791
    52  C    0.037892
    53  C    0.056098
    54  C   -0.167889
    55  C    0.053001
    56  C    0.068620
    57  C   -0.023824
    58  C    0.083384
    59  C   -0.124496
    60  C    0.018495
    61  C    0.071282
    62  C    0.042975
    63  C    0.045758
    64  C   -0.134259
    65  C    0.044821
    66  C    0.024971
    67  H   -0.025838
    68  H   -0.030364
    69  H   -0.029842
    70  H    0.002588
    71  H    0.017176
    72  H    0.001446
    73  H    0.021756
    74  H    0.024031
    75  H    0.024443
    76  H    0.005021
    77  H    0.023631
    78  H    0.056327
    79  H    0.043417
    80  H   -0.007118
    81  H    0.043041
    82  H    0.025368
    83  H    0.034618
    84  H    0.049454
    85  H    0.020205
    86  H    0.010954
    87  H    0.019580
    88  H    0.018042
    89  H    0.002411
    90  H    0.009098
    91  H    0.006777
    92  H    0.010652
    93  H    0.004723
    94  H    0.031884
    95  H    0.038834
    96  H    0.006394
    97  H    0.039422
    98  H    0.024800
    99  H    0.031193
   100  H    0.034856
   101  H    0.036017
   102  H    0.026778
   103  H    0.004942
   104  H   -0.015071
   105  H    0.002820
   106  H    0.005960
   107  H    0.035252
   108  H   -0.001041
   109  H   -0.000539
   110  H   -0.016631
   111  H    0.000847
   112  H    0.003178
   113  H   -0.012842
   114  H    0.000831
   115  H    0.012466
   116  H   -0.007801
   117  H    0.003652
   118  H    0.007006
   119  H   -0.013924
   120  H   -0.008945
   121  H    0.002079
   122  H   -0.004358
   123  H   -0.011916
   124  H   -0.003275
   125  H    0.002144
   126  H   -0.004298
   127  H    0.000862
   128  H   -0.017989
   129  H   -0.011354
   130  H    0.004172
   131  H    0.002589
   132  H    0.001885
   133  H   -0.023154
   134  H   -0.000890
   135  H   -0.008777
   136  H    0.010390
   137  H    0.008738
   138  H   -0.007284
   139  H   -0.005190
   140  H    0.023987
 Sum of Mulliken charges =  -0.00000

 Dipole moment (field-independent basis, Debye):
    X=              1.6582    Y=              3.2518    Z=              1.3812  Tot=              3.9027
 Quadrupole moment (field-independent basis, Debye-Ang):
   XX=           -417.4047   YY=           -393.1711   ZZ=           -398.8102
   XY=            -47.6194   XZ=            -20.8257   YZ=            -40.6608

 Normal termination of Gaussian 16 at Thu Apr 28 13:14:47 2022.
