 Gaussian 16, Revision A.03,
 Gaussian 16:  ES64L-G16RevA.03 25-Dec-2016

 ---------------------------------
 #p PBE1PBE/Def2SVP td=(nstates=5)
 ---------------------------------

 ------------------------------------------------------
 step_1601_chromophore_11 TDDFT with PBE1PBE functional
 ------------------------------------------------------
 Symbolic Z-matrix:
 Charge =  0 Multiplicity = 1

                         Standard orientation:
 ---------------------------------------------------------------------
 Center     Atomic      Atomic             Coordinates (Angstroms)
 Number     Number       Type             X           Y           Z
 ---------------------------------------------------------------------
      1         12           0       -4.349698    1.661501    0.542211
      2          6           0       -5.386991   -1.662206    0.291926
      3          6           0       -2.784606    0.843725    3.509964
      4          6           0       -2.566842    4.497250    0.373631
      5          6           0       -5.484318    2.189788   -2.736574
      6          7           0       -4.028951   -0.207417    1.632138
      7          6           0       -4.560854   -1.423502    1.451220
      8          6           0       -4.228640   -2.397169    2.542471
      9          6           0       -3.587039   -1.577321    3.599042
     10          6           0       -3.502342   -0.212755    2.891802
     11          6           0       -4.406597   -1.488003    4.962587
     12          6           0       -3.323687   -3.524689    2.081194
     13          6           0       -2.169885   -3.146969    1.180578
     14          6           0       -1.831336   -4.075079    0.013263
     15          8           0       -2.383387   -5.063220   -0.349098
     16          8           0       -0.679952   -3.694987   -0.601631
     17          7           0       -2.840213    2.515919    1.785361
     18          6           0       -2.441431    2.072886    2.992989
     19          6           0       -1.558865    3.034040    3.620834
     20          6           0       -1.556242    4.112226    2.728715
     21          6           0       -2.348616    3.734362    1.544035
     22          6           0       -1.057016    3.003926    5.044842
     23          6           0       -0.897268    5.493227    3.078647
     24          8           0       -0.253653    5.588458    4.121076
     25          6           0       -1.015415    6.693794    2.178130
     26          7           0       -3.962976    3.026989   -1.136874
     27          6           0       -3.310569    4.218039   -0.823895
     28          6           0       -3.379982    5.109508   -2.034443
     29          6           0       -4.293545    4.387436   -3.058662
     30          6           0       -4.555991    3.107171   -2.280621
     31          6           0       -3.810230    6.602960   -1.787288
     32          6           0       -3.731101    4.193363   -4.544448
     33          6           0       -4.546603    4.610829   -5.800398
     34          7           0       -5.408761    0.576452   -0.908053
     35          6           0       -5.791807    0.917052   -2.165480
     36          6           0       -6.741897   -0.105648   -2.636745
     37          6           0       -6.627927   -1.091832   -1.682644
     38          6           0       -5.723131   -0.677011   -0.693436
     39          6           0       -7.569111   -0.048552   -3.929379
     40          6           0       -7.014267   -2.418319   -1.382653
     41          8           0       -7.860385   -3.170052   -1.929453
     42          6           0       -6.264447   -2.873115   -0.118143
     43          6           0       -5.575683   -4.050536   -0.572722
     44          8           0       -4.783241   -4.014031   -1.500985
     45          8           0       -5.981546   -5.199282    0.087759
     46          6           0       -5.586335   -6.474274   -0.508363
     47          6           0        0.210902   -4.711633   -1.087344
     48          6           0        1.510383   -3.928646   -1.141175
     49          6           0        2.410138   -3.763167   -0.127804
     50          6           0        2.155013   -4.118849    1.304217
     51          6           0        3.855524   -3.252539   -0.466328
     52          6           0        4.129700   -1.809099   -0.000229
     53          6           0        5.659137   -1.454998    0.209199
     54          6           0        6.043531   -0.375954   -0.786704
     55          6           0        6.560534   -1.083501   -2.016403
     56          6           0        7.097125    0.624568   -0.133022
     57          6           0        8.236700   -0.144874    0.582191
     58          6           0        9.588588    0.640572    0.530224
     59          6           0       10.800175   -0.188504    1.073101
     60          6           0       10.831267   -0.003631    2.628204
     61          6           0       12.182299    0.224295    0.599382
     62          6           0       12.557458   -0.607845   -0.588582
     63          6           0       13.182702    0.368093   -1.633134
     64          6           0       14.745599    0.255326   -1.687465
     65          6           0       15.329323    1.671953   -1.604548
     66          6           0       15.141615   -0.521969   -2.991166
     67          1           0       -2.486520    0.631865    4.538958
     68          1           0       -2.082735    5.454898    0.166360
     69          1           0       -5.857574    2.373294   -3.746740
     70          1           0       -5.146880   -2.874510    2.883191
     71          1           0       -2.572562   -1.892391    3.845122
     72          1           0       -5.458377   -1.725946    4.807818
     73          1           0       -4.465858   -0.466123    5.336765
     74          1           0       -4.089533   -2.262512    5.660454
     75          1           0       -3.980888   -4.199086    1.531885
     76          1           0       -2.952134   -4.088551    2.937061
     77          1           0       -1.301788   -3.098215    1.836846
     78          1           0       -2.248090   -2.129329    0.798257
     79          1           0       -0.005284    3.255298    4.910849
     80          1           0       -1.199547    1.977502    5.380863
     81          1           0       -1.574154    3.702231    5.702825
     82          1           0       -0.805670    7.562898    2.800988
     83          1           0       -2.027793    6.784946    1.783204
     84          1           0       -0.251455    6.680022    1.400143
     85          1           0       -2.335642    5.052814   -2.340733
     86          1           0       -5.167862    5.034939   -3.130211
     87          1           0       -4.834053    6.861737   -2.056880
     88          1           0       -3.163011    7.366982   -2.218813
     89          1           0       -3.706551    6.712945   -0.708344
     90          1           0       -3.603636    3.131788   -4.753903
     91          1           0       -2.741505    4.564014   -4.814017
     92          1           0       -4.020522    5.466399   -6.223642
     93          1           0       -5.495226    5.061299   -5.508148
     94          1           0       -4.674950    3.819299   -6.539344
     95          1           0       -7.319219   -0.864828   -4.606906
     96          1           0       -7.451880    0.834691   -4.558249
     97          1           0       -8.596894   -0.156414   -3.582961
     98          1           0       -6.929117   -3.133881    0.705626
     99          1           0       -4.517858   -6.613986   -0.347556
    100          1           0       -5.640114   -6.373163   -1.592686
    101          1           0       -6.095139   -7.361200   -0.132514
    102          1           0        0.031800   -5.156724   -2.066353
    103          1           0        0.284449   -5.495010   -0.333845
    104          1           0        1.922115   -3.760057   -2.136394
    105          1           0        2.972269   -4.774524    1.602295
    106          1           0        1.289513   -4.776819    1.387589
    107          1           0        2.221760   -3.219369    1.916037
    108          1           0        4.081379   -3.280289   -1.532380
    109          1           0        4.466526   -4.010739    0.024327
    110          1           0        3.578768   -1.673473    0.930217
    111          1           0        3.709120   -1.055155   -0.665131
    112          1           0        6.260859   -2.362922    0.214242
    113          1           0        5.713390   -1.051758    1.220262
    114          1           0        5.272367    0.279526   -1.192589
    115          1           0        6.672042   -2.163926   -1.926305
    116          1           0        7.546321   -0.717037   -2.305310
    117          1           0        5.950213   -0.766427   -2.862756
    118          1           0        6.498679    1.269707    0.510914
    119          1           0        7.548208    1.094768   -1.006865
    120          1           0        8.364974   -1.083764    0.044582
    121          1           0        7.882792   -0.413995    1.576720
    122          1           0        9.373603    1.525419    1.130592
    123          1           0        9.842245    1.002114   -0.466120
    124          1           0       10.601728   -1.255659    0.977201
    125          1           0       11.544600    0.731965    2.999413
    126          1           0       11.221311   -0.950339    3.000391
    127          1           0        9.876999    0.221908    3.104258
    128          1           0       12.924879    0.117273    1.390176
    129          1           0       12.236247    1.308148    0.503148
    130          1           0       11.667088   -1.103106   -0.975249
    131          1           0       13.272212   -1.370367   -0.279547
    132          1           0       12.846980    1.404489   -1.677854
    133          1           0       12.858985   -0.036060   -2.591639
    134          1           0       15.181345   -0.309086   -0.863155
    135          1           0       16.282232    1.513582   -1.099268
    136          1           0       14.788683    2.383657   -0.981553
    137          1           0       15.593375    2.096827   -2.573216
    138          1           0       15.133510   -1.561179   -2.664481
    139          1           0       16.186908   -0.547869   -3.298365
    140          1           0       14.536951   -0.405357   -3.890997
 ---------------------------------------------------------------------

 SCF Done:  E(RPBE1PBE) =  -3005.33687637     A.U. after   15 cycles

 Excitation energies and oscillator strengths:

 Excited State   1:      Singlet-A      1.8861 eV  657.36 nm  f=0.3512  <S**2>=0.000
     245 -> 248       -0.18274
     246 -> 247        0.68997
     246 <- 247       -0.10134
 This state for optimization and/or second-order correction.
 Total Energy, E(TD-HF/TD-DFT) =  -3005.26756409
 Copying the excited state density for this state as the 1-particle RhoCI density.

 Excited State   2:      Singlet-A      2.2940 eV  540.48 nm  f=0.0698  <S**2>=0.000
     245 -> 247        0.63066
     246 -> 248        0.30846

 Excited State   3:      Singlet-A      2.8993 eV  427.63 nm  f=0.0002  <S**2>=0.000
     243 -> 247        0.66098
     243 -> 249       -0.16991

 Excited State   4:      Singlet-A      3.1826 eV  389.57 nm  f=0.0207  <S**2>=0.000
     242 -> 247        0.65304
     246 -> 248       -0.18737

 Excited State   5:      Singlet-A      3.1940 eV  388.18 nm  f=0.0126  <S**2>=0.000
     240 -> 247        0.22885
     241 -> 247        0.59837
     246 -> 248       -0.18407

 The electronic state is 1-A.
 Alpha  occ. eigenvalues --  -46.93741 -19.24398 -19.23067 -19.19161 -19.19157
 Alpha  occ. eigenvalues --  -19.18377 -19.18069 -14.42510 -14.41293 -14.39330
 Alpha  occ. eigenvalues --  -14.38617 -10.35013 -10.34807 -10.32512 -10.31175
 Alpha  occ. eigenvalues --  -10.29262 -10.29233 -10.28829 -10.28618 -10.28351
 Alpha  occ. eigenvalues --  -10.27809 -10.27528 -10.26923 -10.26899 -10.26398
 Alpha  occ. eigenvalues --  -10.26263 -10.26197 -10.25989 -10.25948 -10.25815
 Alpha  occ. eigenvalues --  -10.25297 -10.25237 -10.25118 -10.25012 -10.24536
 Alpha  occ. eigenvalues --  -10.24424 -10.24411 -10.24398 -10.24391 -10.24324
 Alpha  occ. eigenvalues --  -10.24289 -10.23919 -10.23903 -10.23624 -10.23623
 Alpha  occ. eigenvalues --  -10.23601 -10.23283 -10.23256 -10.23185 -10.22998
 Alpha  occ. eigenvalues --  -10.22816 -10.22784 -10.22562 -10.22368 -10.22340
 Alpha  occ. eigenvalues --  -10.22322 -10.22257 -10.22189 -10.22127 -10.21913
 Alpha  occ. eigenvalues --  -10.21782 -10.21742 -10.21307 -10.21299 -10.21188
 Alpha  occ. eigenvalues --  -10.20969  -3.15705  -1.88508  -1.88102  -1.87903
 Alpha  occ. eigenvalues --   -1.11315  -1.09284  -1.04533  -1.02424  -1.02202
 Alpha  occ. eigenvalues --   -1.01044  -1.00455  -0.99883  -0.99351  -0.98764
 Alpha  occ. eigenvalues --   -0.86688  -0.85274  -0.84283  -0.83651  -0.83501
 Alpha  occ. eigenvalues --   -0.82957  -0.82741  -0.81964  -0.81169  -0.80921
 Alpha  occ. eigenvalues --   -0.80390  -0.79824  -0.78290  -0.78034  -0.77686
 Alpha  occ. eigenvalues --   -0.76568  -0.76284  -0.75415  -0.74868  -0.74569
 Alpha  occ. eigenvalues --   -0.73750  -0.72507  -0.72059  -0.71364  -0.70182
 Alpha  occ. eigenvalues --   -0.70049  -0.69803  -0.69712  -0.68373  -0.67709
 Alpha  occ. eigenvalues --   -0.67649  -0.67294  -0.66496  -0.64951  -0.63403
 Alpha  occ. eigenvalues --   -0.63315  -0.62313  -0.61511  -0.60611  -0.60434
 Alpha  occ. eigenvalues --   -0.60349  -0.59953  -0.59893  -0.59135  -0.57682
 Alpha  occ. eigenvalues --   -0.57360  -0.57304  -0.56046  -0.55683  -0.54564
 Alpha  occ. eigenvalues --   -0.54400  -0.53846  -0.53426  -0.53284  -0.52764
 Alpha  occ. eigenvalues --   -0.52286  -0.51930  -0.51315  -0.50720  -0.50330
 Alpha  occ. eigenvalues --   -0.49958  -0.49604  -0.49218  -0.48672  -0.48054
 Alpha  occ. eigenvalues --   -0.47786  -0.47370  -0.47227  -0.47061  -0.46848
 Alpha  occ. eigenvalues --   -0.46687  -0.46511  -0.46448  -0.46403  -0.46053
 Alpha  occ. eigenvalues --   -0.45708  -0.45563  -0.45483  -0.45250  -0.45032
 Alpha  occ. eigenvalues --   -0.44820  -0.44657  -0.44418  -0.44236  -0.44064
 Alpha  occ. eigenvalues --   -0.43700  -0.43525  -0.43396  -0.43193  -0.43006
 Alpha  occ. eigenvalues --   -0.42923  -0.42760  -0.42702  -0.42477  -0.42336
 Alpha  occ. eigenvalues --   -0.42188  -0.41870  -0.41687  -0.41541  -0.41164
 Alpha  occ. eigenvalues --   -0.41081  -0.40951  -0.40754  -0.40677  -0.40333
 Alpha  occ. eigenvalues --   -0.40100  -0.40056  -0.39910  -0.39709  -0.39489
 Alpha  occ. eigenvalues --   -0.38857  -0.38848  -0.38660  -0.38466  -0.38376
 Alpha  occ. eigenvalues --   -0.38238  -0.38076  -0.37999  -0.37963  -0.37403
 Alpha  occ. eigenvalues --   -0.37201  -0.37005  -0.36860  -0.36720  -0.36660
 Alpha  occ. eigenvalues --   -0.36359  -0.36234  -0.35945  -0.35898  -0.35828
 Alpha  occ. eigenvalues --   -0.35599  -0.35458  -0.35251  -0.35132  -0.34882
 Alpha  occ. eigenvalues --   -0.34668  -0.34456  -0.34283  -0.33851  -0.33828
 Alpha  occ. eigenvalues --   -0.33476  -0.33265  -0.33141  -0.32601  -0.32392
 Alpha  occ. eigenvalues --   -0.32260  -0.31860  -0.31328  -0.30791  -0.30300
 Alpha  occ. eigenvalues --   -0.30099  -0.29833  -0.29573  -0.28964  -0.28484
 Alpha  occ. eigenvalues --   -0.28420  -0.27706  -0.27680  -0.26738  -0.25838
 Alpha  occ. eigenvalues --   -0.25598  -0.25494  -0.24993  -0.24514  -0.21081
 Alpha  occ. eigenvalues --   -0.18639
 Alpha virt. eigenvalues --   -0.10838  -0.05475  -0.03744  -0.02360  -0.01960
 Alpha virt. eigenvalues --    0.00689   0.00965   0.01473   0.02232   0.02820
 Alpha virt. eigenvalues --    0.04419   0.04533   0.05133   0.05675   0.06146

 Mulliken charges:
               1
     1  Mg   0.970850
     2  C    0.000162
     3  C   -0.092452
     4  C   -0.080299
     5  C   -0.057770
     6  N   -0.359605
     7  C   -0.017398
     8  C   -0.009852
     9  C   -0.133921
    10  C    0.054717
    11  C    0.009139
    12  C    0.001302
    13  C   -0.071139
    14  C    0.227910
    15  O   -0.211845
    16  O   -0.358874
    17  N   -0.445432
    18  C    0.162819
    19  C   -0.189895
    20  C   -0.095941
    21  C    0.209976
    22  C    0.088071
    23  C    0.048982
    24  O   -0.247641
    25  C   -0.016673
    26  N   -0.356143
    27  C   -0.000613
    28  C   -0.104376
    29  C   -0.048101
    30  C    0.041193
    31  C    0.004287
    32  C   -0.047286
    33  C   -0.090916
    34  N   -0.443765
    35  C    0.113280
    36  C   -0.176237
    37  C    0.018204
    38  C    0.127873
    39  C    0.070010
    40  C    0.094190
    41  O   -0.257476
    42  C   -0.055129
    43  C    0.272764
    44  O   -0.247181
    45  O   -0.379556
    46  C    0.130077
    47  C    0.243397
    48  C   -0.099717
    49  C   -0.244178
    50  C    0.052179
    51  C    0.009318
    52  C   -0.020017
    53  C   -0.005304
    54  C   -0.252452
    55  C   -0.000600
    56  C    0.009373
    57  C   -0.086870
    58  C    0.030443
    59  C   -0.218250
    60  C   -0.040045
    61  C    0.027495
    62  C   -0.024035
    63  C   -0.013628
    64  C   -0.223221
    65  C   -0.016615
    66  C   -0.034943
    67  H    0.004480
    68  H    0.004506
    69  H    0.003651
    70  H    0.039726
    71  H    0.053112
    72  H    0.029137
    73  H    0.048538
    74  H    0.051337
    75  H    0.063685
    76  H    0.038759
    77  H    0.056334
    78  H    0.090508
    79  H    0.071469
    80  H    0.022389
    81  H    0.070357
    82  H    0.053368
    83  H    0.061188
    84  H    0.075992
    85  H    0.058336
    86  H    0.048697
    87  H    0.045828
    88  H    0.045677
    89  H    0.031123
    90  H    0.041929
    91  H    0.038193
    92  H    0.038675
    93  H    0.032418
    94  H    0.058153
    95  H    0.065622
    96  H    0.032373
    97  H    0.066617
    98  H    0.061059
    99  H    0.055656
   100  H    0.056740
   101  H    0.058121
   102  H    0.052248
   103  H    0.032092
   104  H    0.014970
   105  H    0.031256
   106  H    0.034118
   107  H    0.061563
   108  H    0.031002
   109  H    0.032040
   110  H    0.018528
   111  H    0.033269
   112  H    0.033639
   113  H    0.022319
   114  H    0.037247
   115  H    0.038653
   116  H    0.019804
   117  H    0.031448
   118  H    0.039995
   119  H    0.020409
   120  H    0.025571
   121  H    0.033671
   122  H    0.028927
   123  H    0.020438
   124  H    0.033623
   125  H    0.029888
   126  H    0.024905
   127  H    0.028222
   128  H    0.014873
   129  H    0.020105
   130  H    0.036810
   131  H    0.034841
   132  H    0.032166
   133  H    0.011776
   134  H    0.035005
   135  H    0.019908
   136  H    0.037681
   137  H    0.036431
   138  H    0.021730
   139  H    0.022724
   140  H    0.049730
 Sum of Mulliken charges =  -0.00000

 Dipole moment (field-independent basis, Debye):
    X=              1.6712    Y=              3.2556    Z=              1.3178  Tot=              3.8896
 Quadrupole moment (field-independent basis, Debye-Ang):
   XX=           -414.1158   YY=           -389.7031   ZZ=           -394.3749
   XY=            -47.9582   XZ=            -20.1860   YZ=            -41.9455

 Normal termination of Gaussian 16 at Thu Apr 28 13:36:51 2022.
