 Gaussian 16, Revision A.03,
 Gaussian 16:  ES64L-G16RevA.03 25-Dec-2016

 --------------------------------
 #p wB97XD/Def2SVP td=(nstates=5)
 --------------------------------

 -----------------------------------------------------
 step_1601_chromophore_11 TDDFT with wB97XD functional
 -----------------------------------------------------
 Symbolic Z-matrix:
 Charge =  0 Multiplicity = 1

                         Standard orientation:
 ---------------------------------------------------------------------
 Center     Atomic      Atomic             Coordinates (Angstroms)
 Number     Number       Type             X           Y           Z
 ---------------------------------------------------------------------
      1         12           0       -4.349698    1.661501    0.542211
      2          6           0       -5.386991   -1.662206    0.291926
      3          6           0       -2.784606    0.843725    3.509964
      4          6           0       -2.566842    4.497250    0.373631
      5          6           0       -5.484318    2.189788   -2.736574
      6          7           0       -4.028951   -0.207417    1.632138
      7          6           0       -4.560854   -1.423502    1.451220
      8          6           0       -4.228640   -2.397169    2.542471
      9          6           0       -3.587039   -1.577321    3.599042
     10          6           0       -3.502342   -0.212755    2.891802
     11          6           0       -4.406597   -1.488003    4.962587
     12          6           0       -3.323687   -3.524689    2.081194
     13          6           0       -2.169885   -3.146969    1.180578
     14          6           0       -1.831336   -4.075079    0.013263
     15          8           0       -2.383387   -5.063220   -0.349098
     16          8           0       -0.679952   -3.694987   -0.601631
     17          7           0       -2.840213    2.515919    1.785361
     18          6           0       -2.441431    2.072886    2.992989
     19          6           0       -1.558865    3.034040    3.620834
     20          6           0       -1.556242    4.112226    2.728715
     21          6           0       -2.348616    3.734362    1.544035
     22          6           0       -1.057016    3.003926    5.044842
     23          6           0       -0.897268    5.493227    3.078647
     24          8           0       -0.253653    5.588458    4.121076
     25          6           0       -1.015415    6.693794    2.178130
     26          7           0       -3.962976    3.026989   -1.136874
     27          6           0       -3.310569    4.218039   -0.823895
     28          6           0       -3.379982    5.109508   -2.034443
     29          6           0       -4.293545    4.387436   -3.058662
     30          6           0       -4.555991    3.107171   -2.280621
     31          6           0       -3.810230    6.602960   -1.787288
     32          6           0       -3.731101    4.193363   -4.544448
     33          6           0       -4.546603    4.610829   -5.800398
     34          7           0       -5.408761    0.576452   -0.908053
     35          6           0       -5.791807    0.917052   -2.165480
     36          6           0       -6.741897   -0.105648   -2.636745
     37          6           0       -6.627927   -1.091832   -1.682644
     38          6           0       -5.723131   -0.677011   -0.693436
     39          6           0       -7.569111   -0.048552   -3.929379
     40          6           0       -7.014267   -2.418319   -1.382653
     41          8           0       -7.860385   -3.170052   -1.929453
     42          6           0       -6.264447   -2.873115   -0.118143
     43          6           0       -5.575683   -4.050536   -0.572722
     44          8           0       -4.783241   -4.014031   -1.500985
     45          8           0       -5.981546   -5.199282    0.087759
     46          6           0       -5.586335   -6.474274   -0.508363
     47          6           0        0.210902   -4.711633   -1.087344
     48          6           0        1.510383   -3.928646   -1.141175
     49          6           0        2.410138   -3.763167   -0.127804
     50          6           0        2.155013   -4.118849    1.304217
     51          6           0        3.855524   -3.252539   -0.466328
     52          6           0        4.129700   -1.809099   -0.000229
     53          6           0        5.659137   -1.454998    0.209199
     54          6           0        6.043531   -0.375954   -0.786704
     55          6           0        6.560534   -1.083501   -2.016403
     56          6           0        7.097125    0.624568   -0.133022
     57          6           0        8.236700   -0.144874    0.582191
     58          6           0        9.588588    0.640572    0.530224
     59          6           0       10.800175   -0.188504    1.073101
     60          6           0       10.831267   -0.003631    2.628204
     61          6           0       12.182299    0.224295    0.599382
     62          6           0       12.557458   -0.607845   -0.588582
     63          6           0       13.182702    0.368093   -1.633134
     64          6           0       14.745599    0.255326   -1.687465
     65          6           0       15.329323    1.671953   -1.604548
     66          6           0       15.141615   -0.521969   -2.991166
     67          1           0       -2.486520    0.631865    4.538958
     68          1           0       -2.082735    5.454898    0.166360
     69          1           0       -5.857574    2.373294   -3.746740
     70          1           0       -5.146880   -2.874510    2.883191
     71          1           0       -2.572562   -1.892391    3.845122
     72          1           0       -5.458377   -1.725946    4.807818
     73          1           0       -4.465858   -0.466123    5.336765
     74          1           0       -4.089533   -2.262512    5.660454
     75          1           0       -3.980888   -4.199086    1.531885
     76          1           0       -2.952134   -4.088551    2.937061
     77          1           0       -1.301788   -3.098215    1.836846
     78          1           0       -2.248090   -2.129329    0.798257
     79          1           0       -0.005284    3.255298    4.910849
     80          1           0       -1.199547    1.977502    5.380863
     81          1           0       -1.574154    3.702231    5.702825
     82          1           0       -0.805670    7.562898    2.800988
     83          1           0       -2.027793    6.784946    1.783204
     84          1           0       -0.251455    6.680022    1.400143
     85          1           0       -2.335642    5.052814   -2.340733
     86          1           0       -5.167862    5.034939   -3.130211
     87          1           0       -4.834053    6.861737   -2.056880
     88          1           0       -3.163011    7.366982   -2.218813
     89          1           0       -3.706551    6.712945   -0.708344
     90          1           0       -3.603636    3.131788   -4.753903
     91          1           0       -2.741505    4.564014   -4.814017
     92          1           0       -4.020522    5.466399   -6.223642
     93          1           0       -5.495226    5.061299   -5.508148
     94          1           0       -4.674950    3.819299   -6.539344
     95          1           0       -7.319219   -0.864828   -4.606906
     96          1           0       -7.451880    0.834691   -4.558249
     97          1           0       -8.596894   -0.156414   -3.582961
     98          1           0       -6.929117   -3.133881    0.705626
     99          1           0       -4.517858   -6.613986   -0.347556
    100          1           0       -5.640114   -6.373163   -1.592686
    101          1           0       -6.095139   -7.361200   -0.132514
    102          1           0        0.031800   -5.156724   -2.066353
    103          1           0        0.284449   -5.495010   -0.333845
    104          1           0        1.922115   -3.760057   -2.136394
    105          1           0        2.972269   -4.774524    1.602295
    106          1           0        1.289513   -4.776819    1.387589
    107          1           0        2.221760   -3.219369    1.916037
    108          1           0        4.081379   -3.280289   -1.532380
    109          1           0        4.466526   -4.010739    0.024327
    110          1           0        3.578768   -1.673473    0.930217
    111          1           0        3.709120   -1.055155   -0.665131
    112          1           0        6.260859   -2.362922    0.214242
    113          1           0        5.713390   -1.051758    1.220262
    114          1           0        5.272367    0.279526   -1.192589
    115          1           0        6.672042   -2.163926   -1.926305
    116          1           0        7.546321   -0.717037   -2.305310
    117          1           0        5.950213   -0.766427   -2.862756
    118          1           0        6.498679    1.269707    0.510914
    119          1           0        7.548208    1.094768   -1.006865
    120          1           0        8.364974   -1.083764    0.044582
    121          1           0        7.882792   -0.413995    1.576720
    122          1           0        9.373603    1.525419    1.130592
    123          1           0        9.842245    1.002114   -0.466120
    124          1           0       10.601728   -1.255659    0.977201
    125          1           0       11.544600    0.731965    2.999413
    126          1           0       11.221311   -0.950339    3.000391
    127          1           0        9.876999    0.221908    3.104258
    128          1           0       12.924879    0.117273    1.390176
    129          1           0       12.236247    1.308148    0.503148
    130          1           0       11.667088   -1.103106   -0.975249
    131          1           0       13.272212   -1.370367   -0.279547
    132          1           0       12.846980    1.404489   -1.677854
    133          1           0       12.858985   -0.036060   -2.591639
    134          1           0       15.181345   -0.309086   -0.863155
    135          1           0       16.282232    1.513582   -1.099268
    136          1           0       14.788683    2.383657   -0.981553
    137          1           0       15.593375    2.096827   -2.573216
    138          1           0       15.133510   -1.561179   -2.664481
    139          1           0       16.186908   -0.547869   -3.298365
    140          1           0       14.536951   -0.405357   -3.890997
 ---------------------------------------------------------------------

 SCF Done:  E(RwB97XD) =  -3007.84733691     A.U. after   19 cycles

 Excitation energies and oscillator strengths:

 Excited State   1:      Singlet-A      1.6740 eV  740.66 nm  f=0.3586  <S**2>=0.000
     245 -> 248       -0.19487
     246 -> 247        0.68110
     245 <- 248       -0.11950
 This state for optimization and/or second-order correction.
 Total Energy, E(TD-HF/TD-DFT) =  -3007.78581963
 Copying the excited state density for this state as the 1-particle RhoCI density.

 Excited State   2:      Singlet-A      2.2273 eV  556.66 nm  f=0.0631  <S**2>=0.000
     245 -> 247        0.61296
     246 -> 248        0.34134

 Excited State   3:      Singlet-A      3.4007 eV  364.58 nm  f=0.0302  <S**2>=0.000
     241 -> 247       -0.21878
     241 -> 249        0.17593
     241 -> 251        0.12515
     242 -> 247       -0.27800
     242 -> 249        0.17991
     242 -> 251        0.13067
     243 -> 247        0.42693
     243 -> 249       -0.16443
     246 -> 248       -0.16209

 Excited State   4:      Singlet-A      3.4677 eV  357.54 nm  f=0.4210  <S**2>=0.000
     241 -> 247       -0.26795
     242 -> 247       -0.18629
     242 -> 249        0.10823
     243 -> 247       -0.16741
     245 -> 247       -0.25490
     246 -> 248        0.50260
     246 -> 250       -0.10551

 Excited State   5:      Singlet-A      3.5997 eV  344.43 nm  f=0.1419  <S**2>=0.000
     241 -> 249       -0.10096
     242 -> 247        0.46059
     243 -> 247        0.41563
     245 -> 247       -0.13144
     246 -> 248        0.22076
     246 -> 250       -0.12150

 The electronic state is 1-A.
 Alpha  occ. eigenvalues --  -46.96707 -19.28986 -19.27617 -19.23969 -19.23839
 Alpha  occ. eigenvalues --  -19.23116 -19.22900 -14.47637 -14.46351 -14.44315
 Alpha  occ. eigenvalues --  -14.43546 -10.41796 -10.41671 -10.39329 -10.38057
 Alpha  occ. eigenvalues --  -10.35592 -10.35499 -10.35128 -10.35113 -10.34769
 Alpha  occ. eigenvalues --  -10.34084 -10.33815 -10.33416 -10.33287 -10.32749
 Alpha  occ. eigenvalues --  -10.32558 -10.32411 -10.32256 -10.32203 -10.32203
 Alpha  occ. eigenvalues --  -10.31681 -10.31590 -10.31504 -10.31458 -10.30882
 Alpha  occ. eigenvalues --  -10.30838 -10.30836 -10.30775 -10.30710 -10.30674
 Alpha  occ. eigenvalues --  -10.30669 -10.30268 -10.30267 -10.30201 -10.30070
 Alpha  occ. eigenvalues --  -10.29876 -10.29723 -10.29628 -10.29548 -10.29495
 Alpha  occ. eigenvalues --  -10.29099 -10.29031 -10.28927 -10.28753 -10.28717
 Alpha  occ. eigenvalues --  -10.28685 -10.28601 -10.28535 -10.28471 -10.28278
 Alpha  occ. eigenvalues --  -10.28201 -10.28077 -10.27720 -10.27679 -10.27616
 Alpha  occ. eigenvalues --  -10.27396  -3.22558  -1.96106  -1.95696  -1.95499
 Alpha  occ. eigenvalues --   -1.18663  -1.16715  -1.12023  -1.09753  -1.09699
 Alpha  occ. eigenvalues --   -1.08456  -1.07835  -1.07246  -1.06691  -1.06117
 Alpha  occ. eigenvalues --   -0.94327  -0.92862  -0.91948  -0.91312  -0.91100
 Alpha  occ. eigenvalues --   -0.90537  -0.90394  -0.89555  -0.88831  -0.88548
 Alpha  occ. eigenvalues --   -0.88028  -0.87470  -0.85945  -0.85648  -0.85339
 Alpha  occ. eigenvalues --   -0.84209  -0.84033  -0.83075  -0.82482  -0.82200
 Alpha  occ. eigenvalues --   -0.81409  -0.80152  -0.79656  -0.79021  -0.77807
 Alpha  occ. eigenvalues --   -0.77650  -0.77473  -0.77406  -0.76043  -0.75374
 Alpha  occ. eigenvalues --   -0.75212  -0.74873  -0.74043  -0.72548  -0.70945
 Alpha  occ. eigenvalues --   -0.70825  -0.69986  -0.69075  -0.68178  -0.68020
 Alpha  occ. eigenvalues --   -0.67969  -0.67476  -0.67304  -0.66581  -0.65351
 Alpha  occ. eigenvalues --   -0.65006  -0.64740  -0.63468  -0.63291  -0.61996
 Alpha  occ. eigenvalues --   -0.61820  -0.61213  -0.60875  -0.60726  -0.60286
 Alpha  occ. eigenvalues --   -0.59689  -0.59480  -0.58721  -0.58255  -0.57732
 Alpha  occ. eigenvalues --   -0.57391  -0.57009  -0.56620  -0.56207  -0.55347
 Alpha  occ. eigenvalues --   -0.55174  -0.54772  -0.54635  -0.54430  -0.54283
 Alpha  occ. eigenvalues --   -0.54119  -0.53991  -0.53829  -0.53737  -0.53380
 Alpha  occ. eigenvalues --   -0.53079  -0.52977  -0.52827  -0.52534  -0.52424
 Alpha  occ. eigenvalues --   -0.52178  -0.51966  -0.51758  -0.51541  -0.51371
 Alpha  occ. eigenvalues --   -0.51094  -0.50812  -0.50677  -0.50512  -0.50293
 Alpha  occ. eigenvalues --   -0.50206  -0.50039  -0.49959  -0.49785  -0.49597
 Alpha  occ. eigenvalues --   -0.49420  -0.49131  -0.48933  -0.48784  -0.48421
 Alpha  occ. eigenvalues --   -0.48301  -0.48172  -0.47966  -0.47938  -0.47470
 Alpha  occ. eigenvalues --   -0.47316  -0.47241  -0.47116  -0.46874  -0.46626
 Alpha  occ. eigenvalues --   -0.46069  -0.45947  -0.45809  -0.45625  -0.45473
 Alpha  occ. eigenvalues --   -0.45373  -0.45180  -0.45169  -0.45098  -0.44460
 Alpha  occ. eigenvalues --   -0.44350  -0.44110  -0.44033  -0.43879  -0.43795
 Alpha  occ. eigenvalues --   -0.43409  -0.43323  -0.43061  -0.43031  -0.42838
 Alpha  occ. eigenvalues --   -0.42730  -0.42597  -0.42308  -0.42114  -0.41951
 Alpha  occ. eigenvalues --   -0.41669  -0.41515  -0.41353  -0.40919  -0.40848
 Alpha  occ. eigenvalues --   -0.40537  -0.40324  -0.40183  -0.39528  -0.39383
 Alpha  occ. eigenvalues --   -0.39304  -0.38869  -0.38271  -0.37828  -0.37366
 Alpha  occ. eigenvalues --   -0.37083  -0.36761  -0.36525  -0.35659  -0.35576
 Alpha  occ. eigenvalues --   -0.35311  -0.34769  -0.34601  -0.33371  -0.32912
 Alpha  occ. eigenvalues --   -0.32391  -0.32243  -0.31948  -0.31229  -0.26084
 Alpha  occ. eigenvalues --   -0.22774
 Alpha virt. eigenvalues --   -0.06634  -0.00141   0.02541   0.03667   0.04571
 Alpha virt. eigenvalues --    0.07408   0.07688   0.08231   0.09079   0.09563
 Alpha virt. eigenvalues --    0.10928   0.11393   0.11759   0.12348   0.12832

 Mulliken charges:
               1
     1  Mg   0.965450
     2  C   -0.015459
     3  C   -0.111419
     4  C   -0.096430
     5  C   -0.073646
     6  N   -0.324688
     7  C   -0.044717
     8  C    0.013724
     9  C   -0.111794
    10  C    0.041978
    11  C    0.018865
    12  C    0.019555
    13  C   -0.051651
    14  C    0.213531
    15  O   -0.206244
    16  O   -0.356467
    17  N   -0.408796
    18  C    0.156412
    19  C   -0.184786
    20  C   -0.091826
    21  C    0.206262
    22  C    0.103481
    23  C    0.043541
    24  O   -0.243166
    25  C   -0.003022
    26  N   -0.322828
    27  C   -0.011783
    28  C   -0.080944
    29  C   -0.020084
    30  C    0.028308
    31  C    0.019037
    32  C   -0.037281
    33  C   -0.074531
    34  N   -0.405318
    35  C    0.106658
    36  C   -0.177684
    37  C    0.025794
    38  C    0.109927
    39  C    0.080783
    40  C    0.079496
    41  O   -0.248215
    42  C   -0.011431
    43  C    0.242285
    44  O   -0.239898
    45  O   -0.376564
    46  C    0.146863
    47  C    0.255760
    48  C   -0.106513
    49  C   -0.232203
    50  C    0.067486
    51  C    0.028461
    52  C   -0.003722
    53  C    0.009272
    54  C   -0.219066
    55  C    0.003878
    56  C    0.026354
    57  C   -0.067005
    58  C    0.045351
    59  C   -0.184909
    60  C   -0.027080
    61  C    0.035693
    62  C   -0.004869
    63  C    0.003523
    64  C   -0.197021
    65  C   -0.004961
    66  C   -0.023149
    67  H   -0.003323
    68  H   -0.008240
    69  H   -0.005469
    70  H    0.030474
    71  H    0.043626
    72  H    0.022991
    73  H    0.042255
    74  H    0.046717
    75  H    0.046298
    76  H    0.032178
    77  H    0.049261
    78  H    0.080614
    79  H    0.066494
    80  H    0.016186
    81  H    0.066716
    82  H    0.051813
    83  H    0.053921
    84  H    0.072724
    85  H    0.047817
    86  H    0.035129
    87  H    0.041083
    88  H    0.040945
    89  H    0.020926
    90  H    0.032867
    91  H    0.031681
    92  H    0.032265
    93  H    0.025199
    94  H    0.053587
    95  H    0.061305
    96  H    0.027894
    97  H    0.061668
    98  H    0.056445
    99  H    0.049552
   100  H    0.052415
   101  H    0.055541
   102  H    0.049919
   103  H    0.025675
   104  H    0.011438
   105  H    0.025064
   106  H    0.026279
   107  H    0.056155
   108  H    0.023016
   109  H    0.022618
   110  H    0.007711
   111  H    0.024369
   112  H    0.024242
   113  H    0.012054
   114  H    0.027145
   115  H    0.032364
   116  H    0.012840
   117  H    0.026966
   118  H    0.032851
   119  H    0.009107
   120  H    0.010926
   121  H    0.023871
   122  H    0.019406
   123  H    0.010644
   124  H    0.021596
   125  H    0.022968
   126  H    0.018285
   127  H    0.022021
   128  H    0.006377
   129  H    0.009919
   130  H    0.027572
   131  H    0.026789
   132  H    0.023896
   133  H    0.001664
   134  H    0.024615
   135  H    0.013591
   136  H    0.031330
   137  H    0.030941
   138  H    0.014061
   139  H    0.017346
   140  H    0.044247
 Sum of Mulliken charges =  -0.00000

 Dipole moment (field-independent basis, Debye):
    X=              1.6486    Y=              3.3041    Z=              1.4405  Tot=              3.9635
 Quadrupole moment (field-independent basis, Debye-Ang):
   XX=           -413.3650   YY=           -388.7510   ZZ=           -394.2055
   XY=            -47.5944   XZ=            -20.6201   YZ=            -41.1964

 Normal termination of Gaussian 16 at Thu Apr 28 14:06:16 2022.
