 Gaussian 16, Revision A.03,
 Gaussian 16:  ES64L-G16RevA.03 25-Dec-2016

 --------------------
 #p ZINDO=(nstates=5)
 --------------------

 ------------------------------
 step_1601_chromophore_11 ZINDO
 ------------------------------
 Symbolic Z-matrix:
 Charge =  0 Multiplicity = 1

                         Standard orientation:
 ---------------------------------------------------------------------
 Center     Atomic      Atomic             Coordinates (Angstroms)
 Number     Number       Type             X           Y           Z
 ---------------------------------------------------------------------
      1         12           0       -4.349698    1.661501    0.542211
      2          6           0       -5.386991   -1.662206    0.291926
      3          6           0       -2.784606    0.843725    3.509964
      4          6           0       -2.566842    4.497250    0.373631
      5          6           0       -5.484318    2.189788   -2.736574
      6          7           0       -4.028951   -0.207417    1.632138
      7          6           0       -4.560854   -1.423502    1.451220
      8          6           0       -4.228640   -2.397169    2.542471
      9          6           0       -3.587039   -1.577321    3.599042
     10          6           0       -3.502342   -0.212755    2.891802
     11          6           0       -4.406597   -1.488003    4.962587
     12          6           0       -3.323687   -3.524689    2.081194
     13          6           0       -2.169885   -3.146969    1.180578
     14          6           0       -1.831336   -4.075079    0.013263
     15          8           0       -2.383387   -5.063220   -0.349098
     16          8           0       -0.679952   -3.694987   -0.601631
     17          7           0       -2.840213    2.515919    1.785361
     18          6           0       -2.441431    2.072886    2.992989
     19          6           0       -1.558865    3.034040    3.620834
     20          6           0       -1.556242    4.112226    2.728715
     21          6           0       -2.348616    3.734362    1.544035
     22          6           0       -1.057016    3.003926    5.044842
     23          6           0       -0.897268    5.493227    3.078647
     24          8           0       -0.253653    5.588458    4.121076
     25          6           0       -1.015415    6.693794    2.178130
     26          7           0       -3.962976    3.026989   -1.136874
     27          6           0       -3.310569    4.218039   -0.823895
     28          6           0       -3.379982    5.109508   -2.034443
     29          6           0       -4.293545    4.387436   -3.058662
     30          6           0       -4.555991    3.107171   -2.280621
     31          6           0       -3.810230    6.602960   -1.787288
     32          6           0       -3.731101    4.193363   -4.544448
     33          6           0       -4.546603    4.610829   -5.800398
     34          7           0       -5.408761    0.576452   -0.908053
     35          6           0       -5.791807    0.917052   -2.165480
     36          6           0       -6.741897   -0.105648   -2.636745
     37          6           0       -6.627927   -1.091832   -1.682644
     38          6           0       -5.723131   -0.677011   -0.693436
     39          6           0       -7.569111   -0.048552   -3.929379
     40          6           0       -7.014267   -2.418319   -1.382653
     41          8           0       -7.860385   -3.170052   -1.929453
     42          6           0       -6.264447   -2.873115   -0.118143
     43          6           0       -5.575683   -4.050536   -0.572722
     44          8           0       -4.783241   -4.014031   -1.500985
     45          8           0       -5.981546   -5.199282    0.087759
     46          6           0       -5.586335   -6.474274   -0.508363
     47          6           0        0.210902   -4.711633   -1.087344
     48          6           0        1.510383   -3.928646   -1.141175
     49          6           0        2.410138   -3.763167   -0.127804
     50          6           0        2.155013   -4.118849    1.304217
     51          6           0        3.855524   -3.252539   -0.466328
     52          6           0        4.129700   -1.809099   -0.000229
     53          6           0        5.659137   -1.454998    0.209199
     54          6           0        6.043531   -0.375954   -0.786704
     55          6           0        6.560534   -1.083501   -2.016403
     56          6           0        7.097125    0.624568   -0.133022
     57          6           0        8.236700   -0.144874    0.582191
     58          6           0        9.588588    0.640572    0.530224
     59          6           0       10.800175   -0.188504    1.073101
     60          6           0       10.831267   -0.003631    2.628204
     61          6           0       12.182299    0.224295    0.599382
     62          6           0       12.557458   -0.607845   -0.588582
     63          6           0       13.182702    0.368093   -1.633134
     64          6           0       14.745599    0.255326   -1.687465
     65          6           0       15.329323    1.671953   -1.604548
     66          6           0       15.141615   -0.521969   -2.991166
     67          1           0       -2.486520    0.631865    4.538958
     68          1           0       -2.082735    5.454898    0.166360
     69          1           0       -5.857574    2.373294   -3.746740
     70          1           0       -5.146880   -2.874510    2.883191
     71          1           0       -2.572562   -1.892391    3.845122
     72          1           0       -5.458377   -1.725946    4.807818
     73          1           0       -4.465858   -0.466123    5.336765
     74          1           0       -4.089533   -2.262512    5.660454
     75          1           0       -3.980888   -4.199086    1.531885
     76          1           0       -2.952134   -4.088551    2.937061
     77          1           0       -1.301788   -3.098215    1.836846
     78          1           0       -2.248090   -2.129329    0.798257
     79          1           0       -0.005284    3.255298    4.910849
     80          1           0       -1.199547    1.977502    5.380863
     81          1           0       -1.574154    3.702231    5.702825
     82          1           0       -0.805670    7.562898    2.800988
     83          1           0       -2.027793    6.784946    1.783204
     84          1           0       -0.251455    6.680022    1.400143
     85          1           0       -2.335642    5.052814   -2.340733
     86          1           0       -5.167862    5.034939   -3.130211
     87          1           0       -4.834053    6.861737   -2.056880
     88          1           0       -3.163011    7.366982   -2.218813
     89          1           0       -3.706551    6.712945   -0.708344
     90          1           0       -3.603636    3.131788   -4.753903
     91          1           0       -2.741505    4.564014   -4.814017
     92          1           0       -4.020522    5.466399   -6.223642
     93          1           0       -5.495226    5.061299   -5.508148
     94          1           0       -4.674950    3.819299   -6.539344
     95          1           0       -7.319219   -0.864828   -4.606906
     96          1           0       -7.451880    0.834691   -4.558249
     97          1           0       -8.596894   -0.156414   -3.582961
     98          1           0       -6.929117   -3.133881    0.705626
     99          1           0       -4.517858   -6.613986   -0.347556
    100          1           0       -5.640114   -6.373163   -1.592686
    101          1           0       -6.095139   -7.361200   -0.132514
    102          1           0        0.031800   -5.156724   -2.066353
    103          1           0        0.284449   -5.495010   -0.333845
    104          1           0        1.922115   -3.760057   -2.136394
    105          1           0        2.972269   -4.774524    1.602295
    106          1           0        1.289513   -4.776819    1.387589
    107          1           0        2.221760   -3.219369    1.916037
    108          1           0        4.081379   -3.280289   -1.532380
    109          1           0        4.466526   -4.010739    0.024327
    110          1           0        3.578768   -1.673473    0.930217
    111          1           0        3.709120   -1.055155   -0.665131
    112          1           0        6.260859   -2.362922    0.214242
    113          1           0        5.713390   -1.051758    1.220262
    114          1           0        5.272367    0.279526   -1.192589
    115          1           0        6.672042   -2.163926   -1.926305
    116          1           0        7.546321   -0.717037   -2.305310
    117          1           0        5.950213   -0.766427   -2.862756
    118          1           0        6.498679    1.269707    0.510914
    119          1           0        7.548208    1.094768   -1.006865
    120          1           0        8.364974   -1.083764    0.044582
    121          1           0        7.882792   -0.413995    1.576720
    122          1           0        9.373603    1.525419    1.130592
    123          1           0        9.842245    1.002114   -0.466120
    124          1           0       10.601728   -1.255659    0.977201
    125          1           0       11.544600    0.731965    2.999413
    126          1           0       11.221311   -0.950339    3.000391
    127          1           0        9.876999    0.221908    3.104258
    128          1           0       12.924879    0.117273    1.390176
    129          1           0       12.236247    1.308148    0.503148
    130          1           0       11.667088   -1.103106   -0.975249
    131          1           0       13.272212   -1.370367   -0.279547
    132          1           0       12.846980    1.404489   -1.677854
    133          1           0       12.858985   -0.036060   -2.591639
    134          1           0       15.181345   -0.309086   -0.863155
    135          1           0       16.282232    1.513582   -1.099268
    136          1           0       14.788683    2.383657   -0.981553
    137          1           0       15.593375    2.096827   -2.573216
    138          1           0       15.133510   -1.561179   -2.664481
    139          1           0       16.186908   -0.547869   -3.298365
    140          1           0       14.536951   -0.405357   -3.890997
 ---------------------------------------------------------------------

 SCF Done:  E(RZINDO/S) =  -474.645447124     A.U. after   20 cycles

 Excitation energies and oscillator strengths:

 Excited State   1:      Singlet-A      1.2424 eV  997.97 nm  f=0.5657  <S**2>=0.000
     175 ->178        -0.20429
     176 ->177         0.65972
 This state for optimization and/or second-order correction.
 Total Energy, E(CIS/TDA) =  -474.599791119
 Copying the excited state density for this state as the 1-particle RhoCI density.

 Excited State   2:      Singlet-A      1.8836 eV  658.25 nm  f=0.0052  <S**2>=0.000
     175 ->177         0.50528
     176 ->178         0.47499

 Excited State   3:      Singlet-A      2.6651 eV  465.21 nm  f=0.0243  <S**2>=0.000
     176 ->178         0.10718
     176 ->179         0.26178
     176 ->180         0.63829

 Excited State   4:      Singlet-A      2.8916 eV  428.78 nm  f=0.0024  <S**2>=0.000
     169 ->177        -0.12851
     169 ->179        -0.14330
     169 ->181         0.10673
     170 ->177         0.34290
     170 ->179         0.35585
     170 ->180        -0.12055
     170 ->181        -0.27690
     170 ->185         0.14448
     170 ->187         0.13698
     170 ->200        -0.12053

 Excited State   5:      Singlet-A      2.9744 eV  416.84 nm  f=0.5798  <S**2>=0.000
     172 ->177        -0.14627
     175 ->177         0.31831
     176 ->178        -0.34646
     176 ->179         0.45407

 The electronic state is 1-A.
 Alpha  occ. eigenvalues --   -1.87604  -1.84055  -1.82480  -1.75531  -1.74324
 Alpha  occ. eigenvalues --   -1.72395  -1.66233  -1.62221  -1.58877  -1.58339
 Alpha  occ. eigenvalues --   -1.54469  -1.52487  -1.49108  -1.46390  -1.45553
 Alpha  occ. eigenvalues --   -1.44383  -1.43441  -1.40936  -1.39116  -1.37977
 Alpha  occ. eigenvalues --   -1.36120  -1.32761  -1.31833  -1.31342  -1.28551
 Alpha  occ. eigenvalues --   -1.27168  -1.26351  -1.23035  -1.21313  -1.18544
 Alpha  occ. eigenvalues --   -1.17401  -1.16961  -1.15701  -1.15014  -1.13279
 Alpha  occ. eigenvalues --   -1.11527  -1.09789  -1.09104  -1.05650  -1.04268
 Alpha  occ. eigenvalues --   -1.02616  -1.01904  -1.00141  -0.99197  -0.97410
 Alpha  occ. eigenvalues --   -0.95230  -0.95142  -0.93970  -0.93004  -0.92284
 Alpha  occ. eigenvalues --   -0.91161  -0.89571  -0.89266  -0.89028  -0.86495
 Alpha  occ. eigenvalues --   -0.84541  -0.84173  -0.83662  -0.80691  -0.79676
 Alpha  occ. eigenvalues --   -0.78899  -0.78580  -0.78270  -0.77630  -0.77239
 Alpha  occ. eigenvalues --   -0.76851  -0.75955  -0.74613  -0.74318  -0.73755
 Alpha  occ. eigenvalues --   -0.73421  -0.72912  -0.72344  -0.72220  -0.71936
 Alpha  occ. eigenvalues --   -0.70597  -0.69470  -0.69169  -0.68244  -0.67939
 Alpha  occ. eigenvalues --   -0.67384  -0.66577  -0.66151  -0.65432  -0.64947
 Alpha  occ. eigenvalues --   -0.64884  -0.64471  -0.64064  -0.63646  -0.63433
 Alpha  occ. eigenvalues --   -0.62909  -0.62720  -0.62413  -0.61658  -0.61418
 Alpha  occ. eigenvalues --   -0.61311  -0.60712  -0.60252  -0.59942  -0.59702
 Alpha  occ. eigenvalues --   -0.59456  -0.59383  -0.59239  -0.59002  -0.58432
 Alpha  occ. eigenvalues --   -0.57694  -0.57368  -0.56793  -0.56272  -0.55762
 Alpha  occ. eigenvalues --   -0.55720  -0.55361  -0.55239  -0.54992  -0.54826
 Alpha  occ. eigenvalues --   -0.54261  -0.53966  -0.53606  -0.53425  -0.52926
 Alpha  occ. eigenvalues --   -0.52512  -0.51987  -0.51886  -0.51730  -0.51267
 Alpha  occ. eigenvalues --   -0.50973  -0.50456  -0.49913  -0.49774  -0.49723
 Alpha  occ. eigenvalues --   -0.49516  -0.49394  -0.49324  -0.48809  -0.48525
 Alpha  occ. eigenvalues --   -0.48334  -0.48240  -0.47939  -0.47806  -0.47653
 Alpha  occ. eigenvalues --   -0.47569  -0.47340  -0.47089  -0.47075  -0.46898
 Alpha  occ. eigenvalues --   -0.46551  -0.46168  -0.45754  -0.45554  -0.45106
 Alpha  occ. eigenvalues --   -0.45016  -0.44831  -0.44265  -0.44041  -0.43393
 Alpha  occ. eigenvalues --   -0.42961  -0.42905  -0.42826  -0.41857  -0.41309
 Alpha  occ. eigenvalues --   -0.40998  -0.39838  -0.39602  -0.38938  -0.37917
 Alpha  occ. eigenvalues --   -0.37372  -0.37102  -0.35320  -0.34893  -0.34568
 Alpha  occ. eigenvalues --   -0.33251  -0.32754  -0.32438  -0.31642  -0.26755
 Alpha  occ. eigenvalues --   -0.21558
 Alpha virt. eigenvalues --   -0.08193  -0.02539  -0.00453  -0.00028   0.01390
 Alpha virt. eigenvalues --    0.02816   0.03514   0.03681   0.04599   0.04810
 Alpha virt. eigenvalues --    0.06133   0.07274   0.07294   0.08030   0.08213

 Mulliken charges:
               1
     1  Mg   0.440876
     2  C   -0.073595
     3  C   -0.075701
     4  C   -0.093667
     5  C   -0.081931
     6  N   -0.272060
     7  C    0.137821
     8  C    0.023095
     9  C    0.003459
    10  C    0.106275
    11  C   -0.059541
    12  C   -0.018363
    13  C    0.010459
    14  C    0.473272
    15  O   -0.494587
    16  O   -0.281965
    17  N   -0.310671
    18  C    0.110114
    19  C    0.022341
    20  C   -0.058440
    21  C    0.127112
    22  C   -0.036213
    23  C    0.320159
    24  O   -0.522570
    25  C   -0.027839
    26  N   -0.264586
    27  C    0.109110
    28  C    0.008892
    29  C    0.004989
    30  C    0.148431
    31  C   -0.058081
    32  C   -0.043938
    33  C   -0.059416
    34  N   -0.310455
    35  C    0.095651
    36  C    0.041227
    37  C   -0.032524
    38  C    0.124350
    39  C   -0.037049
    40  C    0.342919
    41  O   -0.545915
    42  C    0.063251
    43  C    0.504129
    44  O   -0.518999
    45  O   -0.278193
    46  C    0.070100
    47  C    0.115865
    48  C   -0.100484
    49  C   -0.008702
    50  C   -0.042593
    51  C   -0.022622
    52  C   -0.039830
    53  C   -0.028711
    54  C   -0.014104
    55  C   -0.058376
    56  C   -0.046739
    57  C   -0.036691
    58  C   -0.032230
    59  C   -0.014492
    60  C   -0.068770
    61  C   -0.025685
    62  C   -0.030147
    63  C   -0.041531
    64  C   -0.004256
    65  C   -0.060085
    66  C   -0.066733
    67  H    0.025258
    68  H    0.027975
    69  H    0.021948
    70  H    0.026202
    71  H    0.032873
    72  H    0.013761
    73  H    0.030659
    74  H    0.025959
    75  H    0.028049
    76  H    0.020111
    77  H    0.031251
    78  H    0.050229
    79  H    0.045935
    80  H    0.016305
    81  H    0.046388
    82  H    0.033781
    83  H    0.032828
    84  H    0.046382
    85  H    0.035066
    86  H    0.034735
    87  H    0.027482
    88  H    0.022080
    89  H    0.015056
    90  H    0.014943
    91  H    0.025667
    92  H    0.013183
    93  H    0.015418
    94  H    0.032250
    95  H    0.037915
    96  H    0.023787
    97  H    0.037269
    98  H    0.046996
    99  H    0.040974
   100  H    0.049052
   101  H    0.039653
   102  H    0.053910
   103  H    0.039082
   104  H    0.022961
   105  H    0.018522
   106  H    0.029617
   107  H    0.038431
   108  H    0.021922
   109  H    0.024374
   110  H    0.012536
   111  H    0.024802
   112  H    0.030638
   113  H    0.007260
   114  H    0.024230
   115  H    0.023844
   116  H    0.008460
   117  H    0.014030
   118  H    0.026597
   119  H    0.018943
   120  H    0.016315
   121  H    0.025739
   122  H    0.019044
   123  H    0.018530
   124  H    0.026678
   125  H    0.016793
   126  H    0.007019
   127  H    0.015449
   128  H    0.011226
   129  H    0.021158
   130  H    0.021197
   131  H    0.024830
   132  H    0.033388
   133  H    0.003008
   134  H    0.026952
   135  H    0.004060
   136  H    0.022685
   137  H    0.022560
   138  H    0.006273
   139  H    0.014372
   140  H    0.030328
 Sum of Mulliken charges =  -0.00000

 Dipole moment (field-independent basis, Debye):
    X=              1.3927    Y=              4.2189    Z=              2.5206  Tot=              5.1080
 N-N= 4.430178807342D+03 E-N= 0.000000000000D+00  KE=-9.535406078650D+03
 Leave Link  601 at Thu Apr 28 14:21:56 2022, MaxMem=  6710886400 cpu:               0.8 elap:               0.1
 (Enter /sw/apps/gaussian-16.0/g16/l9999.exe)
 1\1\GINC-BP1-COMPUTE060\SP\RZINDO CIS\STO-3G\C55H74Mg1N4O6\OF15641\28-
 Apr-2022\0\\#p ZINDO=(nstates=5)\\step_1601_chromophore_11 ZINDO\\0,1\
 Mg,0,53.664,23.834,44.419\C,0,50.876,25.86,43.864\C,0,51.54,21.113,44.
 522\C,0,56.285,21.783,44.004\C,0,55.72,26.59,43.716\N,0,51.521,23.559,
 44.079\C,0,50.538,24.459,43.944\C,0,49.165,23.856,43.922\C,0,49.369,22
 .436,44.299\C,0,50.906,22.371,44.352\C,0,48.71,22.014,45.687\C,0,48.47
 8,23.985,42.575\C,0,49.322,23.712,41.351\C,0,49.134,24.612,40.129\O,0,

 Normal termination of Gaussian 16 at Thu Apr 28 14:21:56 2022.
