 Gaussian 16, Revision A.03,
 Gaussian 16:  ES64L-G16RevA.03 25-Dec-2016

 ------------------------------
 #p blyp/Def2SVP td=(nstates=5)
 ------------------------------

 ------------------------------------------------
 step_1_chromophore_11 TDDFT with blyp functional
 ------------------------------------------------
 Symbolic Z-matrix:
 Charge =  0 Multiplicity = 1

                         Standard orientation:
 ---------------------------------------------------------------------
 Center     Atomic      Atomic             Coordinates (Angstroms)
 Number     Number       Type             X           Y           Z
 ---------------------------------------------------------------------
      1         12           0       -4.861612    1.334028    0.753108
      2          6           0       -4.883369   -2.293755    0.431137
      3          6           0       -2.202668    0.978759    2.896325
      4          6           0       -3.886077    4.425492   -0.067620
      5          6           0       -7.583492    1.485720   -1.275363
      6          7           0       -3.560542   -0.489843    1.407113
      7          6           0       -3.820149   -1.892786    1.201486
      8          6           0       -2.893878   -2.717638    2.099494
      9          6           0       -2.331398   -1.689332    3.124700
     10          6           0       -2.702391   -0.276037    2.493150
     11          6           0       -2.964861   -1.830395    4.589116
     12          6           0       -1.901500   -3.616691    1.421810
     13          6           0       -1.601049   -3.351210   -0.072292
     14          6           0       -0.577354   -4.091070   -0.952695
     15          8           0       -0.790471   -4.881409   -1.855972
     16          8           0        0.775760   -3.854178   -0.516060
     17          7           0       -3.318725    2.605511    1.448965
     18          6           0       -2.313199    2.251921    2.321360
     19          6           0       -1.502737    3.474774    2.615461
     20          6           0       -1.937091    4.400405    1.670096
     21          6           0       -3.055642    3.849128    0.908838
     22          6           0       -0.421712    3.448348    3.637151
     23          6           0       -1.302562    5.805806    1.458211
     24          8           0       -0.307131    6.083344    2.103326
     25          6           0       -1.733849    6.782879    0.415259
     26          7           0       -5.589199    2.659810   -0.635393
     27          6           0       -5.059600    3.949594   -0.654921
     28          6           0       -5.898084    4.872865   -1.538890
     29          6           0       -7.238759    4.068519   -1.699779
     30          6           0       -6.818326    2.703052   -1.151447
     31          6           0       -6.150020    6.326245   -1.061498
     32          6           0       -7.840052    4.014406   -3.140815
     33          6           0       -9.146855    4.898910   -3.386254
     34          7           0       -6.088549   -0.081571   -0.183637
     35          6           0       -7.234864    0.153821   -0.928700
     36          6           0       -7.893509   -1.102680   -1.188620
     37          6           0       -6.951864   -2.037846   -0.738133
     38          6           0       -5.887135   -1.340937   -0.115279
     39          6           0       -9.216072   -1.229455   -1.964362
     40          6           0       -6.676030   -3.431518   -0.568417
     41          8           0       -7.438926   -4.360641   -0.901777
     42          6           0       -5.386254   -3.699954    0.326891
     43          6           0       -4.580889   -4.649172   -0.467150
     44          8           0       -4.284636   -4.547092   -1.662274
     45          8           0       -4.125182   -5.586381    0.399710
     46          6           0       -3.436269   -6.769595   -0.204515
     47          6           0        1.862047   -4.726577   -1.067540
     48          6           0        3.269991   -3.937814   -0.849014
     49          6           0        4.001033   -3.829457    0.262864
     50          6           0        3.771326   -4.558457    1.601575
     51          6           0        5.357754   -3.082603    0.213590
     52          6           0        5.195847   -1.626466   -0.280176
     53          6           0        6.012856   -1.418903   -1.537223
     54          6           0        6.136948    0.096174   -1.730604
     55          6           0        6.678482    0.468049   -3.178999
     56          6           0        7.053221    0.840747   -0.753897
     57          6           0        8.375511    0.098166   -0.411323
     58          6           0        9.502407    1.082728   -0.031153
     59          6           0       10.699587    0.496598    0.712839
     60          6           0       10.279858    0.297804    2.153796
     61          6           0       11.965933    1.361739    0.610226
     62          6           0       12.677343    1.416518   -0.841142
     63          6           0       14.083682    0.773463   -0.725783
     64          6           0       15.261288    1.670203   -1.200345
     65          6           0       16.397357    1.003635   -2.107905
     66          6           0       16.078920    2.380281   -0.120459
     67          1           0       -1.346540    0.864645    3.563806
     68          1           0       -3.562729    5.439016   -0.314990
     69          1           0       -8.524915    1.571595   -1.821315
     70          1           0       -3.667902   -3.313191    2.583607
     71          1           0       -1.241850   -1.657416    3.141450
     72          1           0       -2.122317   -2.168908    5.190830
     73          1           0       -3.806693   -2.522360    4.554766
     74          1           0       -3.249389   -0.819138    4.881982
     75          1           0       -2.234798   -4.635136    1.620437
     76          1           0       -1.018483   -3.442925    2.037691
     77          1           0       -1.341858   -2.292902   -0.115896
     78          1           0       -2.507360   -3.504008   -0.658597
     79          1           0        0.512760    3.535636    3.083624
     80          1           0       -0.493829    2.508095    4.182965
     81          1           0       -0.587176    4.249317    4.358539
     82          1           0       -1.600509    6.511522   -0.631278
     83          1           0       -1.149917    7.702610    0.434144
     84          1           0       -2.756932    6.975475    0.737927
     85          1           0       -5.246060    4.846978   -2.412753
     86          1           0       -7.918212    4.528016   -0.981586
     87          1           0       -5.500852    7.060221   -1.540027
     88          1           0       -5.924122    6.404182    0.001462
     89          1           0       -7.209899    6.537649   -1.207305
     90          1           0       -8.072779    3.008664   -3.491817
     91          1           0       -7.015903    4.333943   -3.778727
     92          1           0       -8.928762    5.355670   -4.351281
     93          1           0       -9.334289    5.663065   -2.631758
     94          1           0       -9.998200    4.221813   -3.326384
     95          1           0       -9.833911   -2.086338   -1.694891
     96          1           0       -8.842123   -1.370420   -2.977879
     97          1           0       -9.872976   -0.392816   -1.727440
     98          1           0       -5.697162   -4.100849    1.292750
     99          1           0       -3.113013   -7.441666    0.591177
    100          1           0       -2.548707   -6.467712   -0.760898
    101          1           0       -4.222467   -7.191904   -0.828753
    102          1           0        1.712528   -4.794830   -2.144832
    103          1           0        1.638871   -5.718160   -0.674026
    104          1           0        3.670372   -3.358647   -1.681383
    105          1           0        3.543331   -3.824402    2.374037
    106          1           0        4.609305   -5.200225    1.873812
    107          1           0        2.866587   -5.157075    1.498160
    108          1           0        5.873788   -3.648165   -0.562440
    109          1           0        5.929272   -3.014645    1.139141
    110          1           0        5.661497   -1.055144    0.522103
    111          1           0        4.163570   -1.282264   -0.347900
    112          1           0        5.581627   -1.963178   -2.378227
    113          1           0        6.987014   -1.834420   -1.277465
    114          1           0        5.099107    0.422118   -1.669093
    115          1           0        5.870441    0.766059   -3.846713
    116          1           0        7.281857   -0.274587   -3.701731
    117          1           0        7.328100    1.341251   -3.121782
    118          1           0        6.581064    0.852282    0.227984
    119          1           0        7.183920    1.892888   -1.008207
    120          1           0        8.649851   -0.756304   -1.029249
    121          1           0        8.322374   -0.544067    0.466929
    122          1           0        9.009737    1.874155    0.533933
    123          1           0        9.896374    1.505960   -0.954633
    124          1           0       11.023011   -0.451628    0.283927
    125          1           0       10.407155   -0.763606    2.368953
    126          1           0        9.248669    0.600656    2.337304
    127          1           0       10.833557    1.002169    2.775394
    128          1           0       12.659956    1.053781    1.392653
    129          1           0       11.664573    2.374831    0.873455
    130          1           0       12.699658    2.456803   -1.168926
    131          1           0       12.126555    0.746423   -1.501446
    132          1           0       14.066629   -0.117477   -1.353174
    133          1           0       14.226468    0.463278    0.309023
    134          1           0       14.767759    2.408399   -1.832283
    135          1           0       16.626175    0.005866   -1.732808
    136          1           0       17.327770    1.571038   -2.085381
    137          1           0       15.993168    0.971138   -3.120820
    138          1           0       16.139467    3.448995   -0.330157
    139          1           0       17.051499    1.906034    0.010063
    140          1           0       15.469396    2.431034    0.781589
 ---------------------------------------------------------------------

 SCF Done:  E(RB-LYP) =  -3007.33658093     A.U. after   21 cycles

 Excitation energies and oscillator strengths:

 Excited State   1:      Singlet-A      1.6131 eV  768.61 nm  f=0.0027  <S**2>=0.000
     244 -> 247        0.32115
     245 -> 247        0.62838
 This state for optimization and/or second-order correction.
 Total Energy, E(TD-HF/TD-DFT) =  -3007.27730066
 Copying the excited state density for this state as the 1-particle RhoCI density.

 Excited State   2:      Singlet-A      1.7680 eV  701.28 nm  f=0.2714  <S**2>=0.000
     244 -> 248        0.14612
     246 -> 247        0.69224
     246 <- 247       -0.15853

 Excited State   3:      Singlet-A      1.9324 eV  641.59 nm  f=0.0062  <S**2>=0.000
     243 -> 247        0.69348
     244 -> 247        0.10365

 Excited State   4:      Singlet-A      2.0572 eV  602.68 nm  f=0.0627  <S**2>=0.000
     243 -> 247       -0.11544
     244 -> 247        0.55915
     245 -> 247       -0.28009
     246 -> 248       -0.27503

 Excited State   5:      Singlet-A      2.3491 eV  527.79 nm  f=0.0001  <S**2>=0.000
     242 -> 247        0.70043

 The electronic state is 1-A.
 Alpha  occ. eigenvalues --  -46.27741 -18.82131 -18.79621 -18.76899 -18.76140
 Alpha  occ. eigenvalues --  -18.75600 -18.74278 -14.03570 -14.02798 -14.01113
 Alpha  occ. eigenvalues --  -14.00592 -10.03797 -10.03502 -10.00135  -9.98508
 Alpha  occ. eigenvalues --   -9.97852  -9.97346  -9.97091  -9.96971  -9.96963
 Alpha  occ. eigenvalues --   -9.96248  -9.96076  -9.95979  -9.95345  -9.94717
 Alpha  occ. eigenvalues --   -9.94680  -9.94531  -9.94443  -9.93983  -9.93878
 Alpha  occ. eigenvalues --   -9.93863  -9.93612  -9.93562  -9.93467  -9.93201
 Alpha  occ. eigenvalues --   -9.93180  -9.93140  -9.93058  -9.93047  -9.93039
 Alpha  occ. eigenvalues --   -9.93034  -9.93008  -9.92911  -9.92790  -9.92603
 Alpha  occ. eigenvalues --   -9.92544  -9.92278  -9.92066  -9.91990  -9.91898
 Alpha  occ. eigenvalues --   -9.91733  -9.91695  -9.91573  -9.91369  -9.91319
 Alpha  occ. eigenvalues --   -9.91098  -9.91036  -9.91021  -9.90916  -9.90827
 Alpha  occ. eigenvalues --   -9.90824  -9.90810  -9.90552  -9.90413  -9.90410
 Alpha  occ. eigenvalues --   -9.90296  -2.92332  -1.72729  -1.72246  -1.72030
 Alpha  occ. eigenvalues --   -0.97315  -0.95084  -0.92024  -0.89354  -0.88639
 Alpha  occ. eigenvalues --   -0.87699  -0.87362  -0.86519  -0.84985  -0.82920
 Alpha  occ. eigenvalues --   -0.75001  -0.73840  -0.72904  -0.72749  -0.72683
 Alpha  occ. eigenvalues --   -0.72072  -0.71450  -0.70711  -0.70294  -0.70030
 Alpha  occ. eigenvalues --   -0.69651  -0.68499  -0.67638  -0.67574  -0.67166
 Alpha  occ. eigenvalues --   -0.66310  -0.65927  -0.65163  -0.65049  -0.64331
 Alpha  occ. eigenvalues --   -0.63546  -0.62360  -0.62220  -0.61963  -0.60706
 Alpha  occ. eigenvalues --   -0.60413  -0.60004  -0.59311  -0.59104  -0.58728
 Alpha  occ. eigenvalues --   -0.58332  -0.57638  -0.56799  -0.55833  -0.55076
 Alpha  occ. eigenvalues --   -0.53954  -0.53635  -0.52614  -0.52373  -0.52111
 Alpha  occ. eigenvalues --   -0.52004  -0.51222  -0.50710  -0.49999  -0.49347
 Alpha  occ. eigenvalues --   -0.48723  -0.48293  -0.48254  -0.47889  -0.45961
 Alpha  occ. eigenvalues --   -0.45672  -0.45623  -0.44698  -0.44590  -0.44194
 Alpha  occ. eigenvalues --   -0.44059  -0.43816  -0.43412  -0.42852  -0.42398
 Alpha  occ. eigenvalues --   -0.42129  -0.41647  -0.41135  -0.41073  -0.40706
 Alpha  occ. eigenvalues --   -0.40500  -0.40475  -0.40386  -0.40092  -0.39851
 Alpha  occ. eigenvalues --   -0.39674  -0.39629  -0.39540  -0.39407  -0.39026
 Alpha  occ. eigenvalues --   -0.38746  -0.38523  -0.38425  -0.38362  -0.38128
 Alpha  occ. eigenvalues --   -0.38054  -0.37889  -0.37786  -0.37308  -0.37099
 Alpha  occ. eigenvalues --   -0.37096  -0.36804  -0.36585  -0.36513  -0.36346
 Alpha  occ. eigenvalues --   -0.36134  -0.35958  -0.35805  -0.35689  -0.35592
 Alpha  occ. eigenvalues --   -0.35486  -0.35061  -0.35051  -0.34634  -0.34496
 Alpha  occ. eigenvalues --   -0.34370  -0.34284  -0.34133  -0.33904  -0.33750
 Alpha  occ. eigenvalues --   -0.33577  -0.33527  -0.33278  -0.33186  -0.32864
 Alpha  occ. eigenvalues --   -0.32771  -0.32524  -0.32356  -0.32315  -0.31980
 Alpha  occ. eigenvalues --   -0.31937  -0.31852  -0.31743  -0.31569  -0.31257
 Alpha  occ. eigenvalues --   -0.31197  -0.31162  -0.31000  -0.30971  -0.30894
 Alpha  occ. eigenvalues --   -0.30625  -0.30500  -0.30311  -0.30030  -0.29831
 Alpha  occ. eigenvalues --   -0.29651  -0.29536  -0.29339  -0.28915  -0.28670
 Alpha  occ. eigenvalues --   -0.28533  -0.28131  -0.27996  -0.27917  -0.27656
 Alpha  occ. eigenvalues --   -0.27483  -0.26997  -0.26783  -0.26509  -0.26163
 Alpha  occ. eigenvalues --   -0.26147  -0.25715  -0.25317  -0.25245  -0.24798
 Alpha  occ. eigenvalues --   -0.24619  -0.24399  -0.23871  -0.23590  -0.23337
 Alpha  occ. eigenvalues --   -0.23056  -0.22449  -0.21932  -0.21322  -0.20466
 Alpha  occ. eigenvalues --   -0.20365  -0.20191  -0.18599  -0.17593  -0.17337
 Alpha  occ. eigenvalues --   -0.15641
 Alpha virt. eigenvalues --   -0.11565  -0.07026  -0.05553  -0.04670  -0.03703
 Alpha virt. eigenvalues --   -0.03168  -0.02675  -0.02148  -0.01803  -0.00252
 Alpha virt. eigenvalues --    0.01171   0.01987   0.02179   0.02425   0.03025

 Mulliken charges:
               1
     1  Mg   0.691229
     2  C   -0.020200
     3  C   -0.037087
     4  C   -0.047572
     5  C   -0.074392
     6  N   -0.244478
     7  C   -0.137263
     8  C    0.075112
     9  C   -0.034803
    10  C   -0.011700
    11  C    0.139322
    12  C    0.184783
    13  C    0.116675
    14  C    0.098471
    15  O   -0.171063
    16  O   -0.330383
    17  N   -0.305510
    18  C    0.109296
    19  C   -0.144138
    20  C    0.033019
    21  C    0.111457
    22  C    0.209285
    23  C   -0.094506
    24  O   -0.161554
    25  C    0.156071
    26  N   -0.244772
    27  C    0.045929
    28  C   -0.025510
    29  C    0.097976
    30  C   -0.017786
    31  C    0.141366
    32  C    0.079100
    33  C    0.050293
    34  N   -0.193794
    35  C    0.091070
    36  C   -0.179564
    37  C    0.130528
    38  C    0.044876
    39  C    0.162886
    40  C   -0.097072
    41  O   -0.172819
    42  C    0.137905
    43  C    0.099671
    44  O   -0.185893
    45  O   -0.279222
    46  C    0.211908
    47  C    0.299376
    48  C   -0.076468
    49  C   -0.144059
    50  C    0.147061
    51  C    0.144822
    52  C    0.029384
    53  C    0.107510
    54  C   -0.040817
    55  C    0.106611
    56  C    0.117882
    57  C    0.052853
    58  C    0.106354
    59  C   -0.093144
    60  C    0.139389
    61  C    0.071054
    62  C    0.074263
    63  C    0.115942
    64  C   -0.112257
    65  C    0.079139
    66  C    0.124067
    67  H   -0.050009
    68  H   -0.103454
    69  H   -0.067534
    70  H   -0.034969
    71  H   -0.018155
    72  H    0.002059
    73  H    0.005330
    74  H   -0.004614
    75  H   -0.024402
    76  H   -0.038106
    77  H   -0.001488
    78  H    0.024779
    79  H    0.021120
    80  H   -0.028454
    81  H    0.007189
    82  H    0.026057
    83  H   -0.017719
    84  H    0.014258
    85  H   -0.007800
    86  H   -0.028704
    87  H   -0.005266
    88  H   -0.009751
    89  H   -0.002902
    90  H   -0.007876
    91  H   -0.028432
    92  H    0.006994
    93  H   -0.004844
    94  H    0.004287
    95  H    0.000835
    96  H    0.025396
    97  H   -0.003050
    98  H   -0.000921
    99  H    0.012088
   100  H    0.032993
   101  H    0.028714
   102  H   -0.008527
   103  H   -0.002645
   104  H   -0.030639
   105  H   -0.003792
   106  H    0.007602
   107  H   -0.022301
   108  H   -0.006780
   109  H   -0.032233
   110  H   -0.041745
   111  H   -0.015127
   112  H   -0.024058
   113  H   -0.035475
   114  H   -0.043223
   115  H   -0.020549
   116  H   -0.019021
   117  H   -0.030392
   118  H   -0.036791
   119  H   -0.017374
   120  H   -0.037905
   121  H   -0.066238
   122  H   -0.032912
   123  H   -0.039409
   124  H   -0.046619
   125  H   -0.009440
   126  H   -0.020654
   127  H   -0.025494
   128  H   -0.027693
   129  H   -0.046573
   130  H   -0.013170
   131  H   -0.017131
   132  H   -0.043538
   133  H   -0.031875
   134  H   -0.038564
   135  H   -0.010031
   136  H   -0.011058
   137  H   -0.015341
   138  H   -0.022543
   139  H   -0.002474
   140  H   -0.038023
 Sum of Mulliken charges =  -0.00000

 Dipole moment (field-independent basis, Debye):
    X=             -0.1358    Y=              3.8131    Z=              3.3493  Tot=              5.0770
 Quadrupole moment (field-independent basis, Debye-Ang):
   XX=           -393.6509   YY=           -405.1378   ZZ=           -404.7496
   XY=            -57.0240   XZ=             -9.2596   YZ=            -36.4757

 Normal termination of Gaussian 16 at Wed May  4 16:18:06 2022.
