 Gaussian 16, Revision A.03,
 Gaussian 16:  ES64L-G16RevA.03 25-Dec-2016

 -----------------------------------
 #p cam-b3lyp/Def2SVP td=(nstates=5)
 -----------------------------------

 -----------------------------------------------------
 step_1_chromophore_11 TDDFT with cam-b3lyp functional
 -----------------------------------------------------
 Symbolic Z-matrix:
 Charge =  0 Multiplicity = 1

                         Standard orientation:
 ---------------------------------------------------------------------
 Center     Atomic      Atomic             Coordinates (Angstroms)
 Number     Number       Type             X           Y           Z
 ---------------------------------------------------------------------
      1         12           0       -4.861612    1.334028    0.753108
      2          6           0       -4.883369   -2.293755    0.431137
      3          6           0       -2.202668    0.978759    2.896325
      4          6           0       -3.886077    4.425492   -0.067620
      5          6           0       -7.583492    1.485720   -1.275363
      6          7           0       -3.560542   -0.489843    1.407113
      7          6           0       -3.820149   -1.892786    1.201486
      8          6           0       -2.893878   -2.717638    2.099494
      9          6           0       -2.331398   -1.689332    3.124700
     10          6           0       -2.702391   -0.276037    2.493150
     11          6           0       -2.964861   -1.830395    4.589116
     12          6           0       -1.901500   -3.616691    1.421810
     13          6           0       -1.601049   -3.351210   -0.072292
     14          6           0       -0.577354   -4.091070   -0.952695
     15          8           0       -0.790471   -4.881409   -1.855972
     16          8           0        0.775760   -3.854178   -0.516060
     17          7           0       -3.318725    2.605511    1.448965
     18          6           0       -2.313199    2.251921    2.321360
     19          6           0       -1.502737    3.474774    2.615461
     20          6           0       -1.937091    4.400405    1.670096
     21          6           0       -3.055642    3.849128    0.908838
     22          6           0       -0.421712    3.448348    3.637151
     23          6           0       -1.302562    5.805806    1.458211
     24          8           0       -0.307131    6.083344    2.103326
     25          6           0       -1.733849    6.782879    0.415259
     26          7           0       -5.589199    2.659810   -0.635393
     27          6           0       -5.059600    3.949594   -0.654921
     28          6           0       -5.898084    4.872865   -1.538890
     29          6           0       -7.238759    4.068519   -1.699779
     30          6           0       -6.818326    2.703052   -1.151447
     31          6           0       -6.150020    6.326245   -1.061498
     32          6           0       -7.840052    4.014406   -3.140815
     33          6           0       -9.146855    4.898910   -3.386254
     34          7           0       -6.088549   -0.081571   -0.183637
     35          6           0       -7.234864    0.153821   -0.928700
     36          6           0       -7.893509   -1.102680   -1.188620
     37          6           0       -6.951864   -2.037846   -0.738133
     38          6           0       -5.887135   -1.340937   -0.115279
     39          6           0       -9.216072   -1.229455   -1.964362
     40          6           0       -6.676030   -3.431518   -0.568417
     41          8           0       -7.438926   -4.360641   -0.901777
     42          6           0       -5.386254   -3.699954    0.326891
     43          6           0       -4.580889   -4.649172   -0.467150
     44          8           0       -4.284636   -4.547092   -1.662274
     45          8           0       -4.125182   -5.586381    0.399710
     46          6           0       -3.436269   -6.769595   -0.204515
     47          6           0        1.862047   -4.726577   -1.067540
     48          6           0        3.269991   -3.937814   -0.849014
     49          6           0        4.001033   -3.829457    0.262864
     50          6           0        3.771326   -4.558457    1.601575
     51          6           0        5.357754   -3.082603    0.213590
     52          6           0        5.195847   -1.626466   -0.280176
     53          6           0        6.012856   -1.418903   -1.537223
     54          6           0        6.136948    0.096174   -1.730604
     55          6           0        6.678482    0.468049   -3.178999
     56          6           0        7.053221    0.840747   -0.753897
     57          6           0        8.375511    0.098166   -0.411323
     58          6           0        9.502407    1.082728   -0.031153
     59          6           0       10.699587    0.496598    0.712839
     60          6           0       10.279858    0.297804    2.153796
     61          6           0       11.965933    1.361739    0.610226
     62          6           0       12.677343    1.416518   -0.841142
     63          6           0       14.083682    0.773463   -0.725783
     64          6           0       15.261288    1.670203   -1.200345
     65          6           0       16.397357    1.003635   -2.107905
     66          6           0       16.078920    2.380281   -0.120459
     67          1           0       -1.346540    0.864645    3.563806
     68          1           0       -3.562729    5.439016   -0.314990
     69          1           0       -8.524915    1.571595   -1.821315
     70          1           0       -3.667902   -3.313191    2.583607
     71          1           0       -1.241850   -1.657416    3.141450
     72          1           0       -2.122317   -2.168908    5.190830
     73          1           0       -3.806693   -2.522360    4.554766
     74          1           0       -3.249389   -0.819138    4.881982
     75          1           0       -2.234798   -4.635136    1.620437
     76          1           0       -1.018483   -3.442925    2.037691
     77          1           0       -1.341858   -2.292902   -0.115896
     78          1           0       -2.507360   -3.504008   -0.658597
     79          1           0        0.512760    3.535636    3.083624
     80          1           0       -0.493829    2.508095    4.182965
     81          1           0       -0.587176    4.249317    4.358539
     82          1           0       -1.600509    6.511522   -0.631278
     83          1           0       -1.149917    7.702610    0.434144
     84          1           0       -2.756932    6.975475    0.737927
     85          1           0       -5.246060    4.846978   -2.412753
     86          1           0       -7.918212    4.528016   -0.981586
     87          1           0       -5.500852    7.060221   -1.540027
     88          1           0       -5.924122    6.404182    0.001462
     89          1           0       -7.209899    6.537649   -1.207305
     90          1           0       -8.072779    3.008664   -3.491817
     91          1           0       -7.015903    4.333943   -3.778727
     92          1           0       -8.928762    5.355670   -4.351281
     93          1           0       -9.334289    5.663065   -2.631758
     94          1           0       -9.998200    4.221813   -3.326384
     95          1           0       -9.833911   -2.086338   -1.694891
     96          1           0       -8.842123   -1.370420   -2.977879
     97          1           0       -9.872976   -0.392816   -1.727440
     98          1           0       -5.697162   -4.100849    1.292750
     99          1           0       -3.113013   -7.441666    0.591177
    100          1           0       -2.548707   -6.467712   -0.760898
    101          1           0       -4.222467   -7.191904   -0.828753
    102          1           0        1.712528   -4.794830   -2.144832
    103          1           0        1.638871   -5.718160   -0.674026
    104          1           0        3.670372   -3.358647   -1.681383
    105          1           0        3.543331   -3.824402    2.374037
    106          1           0        4.609305   -5.200225    1.873812
    107          1           0        2.866587   -5.157075    1.498160
    108          1           0        5.873788   -3.648165   -0.562440
    109          1           0        5.929272   -3.014645    1.139141
    110          1           0        5.661497   -1.055144    0.522103
    111          1           0        4.163570   -1.282264   -0.347900
    112          1           0        5.581627   -1.963178   -2.378227
    113          1           0        6.987014   -1.834420   -1.277465
    114          1           0        5.099107    0.422118   -1.669093
    115          1           0        5.870441    0.766059   -3.846713
    116          1           0        7.281857   -0.274587   -3.701731
    117          1           0        7.328100    1.341251   -3.121782
    118          1           0        6.581064    0.852282    0.227984
    119          1           0        7.183920    1.892888   -1.008207
    120          1           0        8.649851   -0.756304   -1.029249
    121          1           0        8.322374   -0.544067    0.466929
    122          1           0        9.009737    1.874155    0.533933
    123          1           0        9.896374    1.505960   -0.954633
    124          1           0       11.023011   -0.451628    0.283927
    125          1           0       10.407155   -0.763606    2.368953
    126          1           0        9.248669    0.600656    2.337304
    127          1           0       10.833557    1.002169    2.775394
    128          1           0       12.659956    1.053781    1.392653
    129          1           0       11.664573    2.374831    0.873455
    130          1           0       12.699658    2.456803   -1.168926
    131          1           0       12.126555    0.746423   -1.501446
    132          1           0       14.066629   -0.117477   -1.353174
    133          1           0       14.226468    0.463278    0.309023
    134          1           0       14.767759    2.408399   -1.832283
    135          1           0       16.626175    0.005866   -1.732808
    136          1           0       17.327770    1.571038   -2.085381
    137          1           0       15.993168    0.971138   -3.120820
    138          1           0       16.139467    3.448995   -0.330157
    139          1           0       17.051499    1.906034    0.010063
    140          1           0       15.469396    2.431034    0.781589
 ---------------------------------------------------------------------

 SCF Done:  E(RCAM-B3LYP) =  -3007.12195325     A.U. after   19 cycles

 Excitation energies and oscillator strengths:

 Excited State   1:      Singlet-A      1.6556 eV  748.90 nm  f=0.3492  <S**2>=0.000
     245 -> 248        0.15737
     246 -> 247        0.69063
     245 <- 248        0.10198
 This state for optimization and/or second-order correction.
 Total Energy, E(TD-HF/TD-DFT) =  -3007.06111255
 Copying the excited state density for this state as the 1-particle RhoCI density.

 Excited State   2:      Singlet-A      2.2767 eV  544.59 nm  f=0.0751  <S**2>=0.000
     245 -> 247        0.61843
     246 -> 248       -0.32696

 Excited State   3:      Singlet-A      3.3026 eV  375.41 nm  f=0.0131  <S**2>=0.000
     243 -> 247        0.11268
     244 -> 247        0.56989
     244 -> 249       -0.17991
     244 -> 250        0.12926
     244 -> 251       -0.25443
     246 -> 248        0.10305

 Excited State   4:      Singlet-A      3.3678 eV  368.15 nm  f=0.1506  <S**2>=0.000
     241 -> 247        0.55720
     245 -> 247        0.13000
     246 -> 248        0.34866

 Excited State   5:      Singlet-A      3.4820 eV  356.07 nm  f=0.1499  <S**2>=0.000
     241 -> 247       -0.17764
     243 -> 247        0.55114
     244 -> 247       -0.13364
     245 -> 247        0.13948
     246 -> 248        0.30556

 The electronic state is 1-A.
 Alpha  occ. eigenvalues --  -46.89394 -19.25034 -19.22344 -19.19931 -19.19142
 Alpha  occ. eigenvalues --  -19.19102 -19.17061 -14.42548 -14.41675 -14.39807
 Alpha  occ. eigenvalues --  -14.38816 -10.39228 -10.38847 -10.35568 -10.33517
 Alpha  occ. eigenvalues --  -10.32052 -10.32026 -10.31715 -10.31388 -10.31081
 Alpha  occ. eigenvalues --  -10.30938 -10.30886 -10.30646 -10.29083 -10.28925
 Alpha  occ. eigenvalues --  -10.28900 -10.28567 -10.28547 -10.28442 -10.27974
 Alpha  occ. eigenvalues --  -10.27974 -10.27829 -10.27740 -10.27663 -10.27374
 Alpha  occ. eigenvalues --  -10.27313 -10.27213 -10.27198 -10.27142 -10.27057
 Alpha  occ. eigenvalues --  -10.27020 -10.26967 -10.26896 -10.26845 -10.26415
 Alpha  occ. eigenvalues --  -10.26335 -10.26045 -10.25933 -10.25689 -10.25628
 Alpha  occ. eigenvalues --  -10.25436 -10.25413 -10.25305 -10.25050 -10.24999
 Alpha  occ. eigenvalues --  -10.24814 -10.24765 -10.24677 -10.24595 -10.24501
 Alpha  occ. eigenvalues --  -10.24456 -10.24439 -10.24130 -10.24027 -10.23991
 Alpha  occ. eigenvalues --  -10.23897  -3.17881  -1.92754  -1.92359  -1.92163
 Alpha  occ. eigenvalues --   -1.15765  -1.13497  -1.10752  -1.07316  -1.06502
 Alpha  occ. eigenvalues --   -1.05383  -1.04904  -1.04089  -1.02897  -1.00517
 Alpha  occ. eigenvalues --   -0.91980  -0.90724  -0.89714  -0.89540  -0.89389
 Alpha  occ. eigenvalues --   -0.88884  -0.88127  -0.87310  -0.86904  -0.86733
 Alpha  occ. eigenvalues --   -0.86168  -0.84896  -0.83880  -0.83668  -0.83482
 Alpha  occ. eigenvalues --   -0.82577  -0.81982  -0.81122  -0.80808  -0.80188
 Alpha  occ. eigenvalues --   -0.79231  -0.78084  -0.77781  -0.77568  -0.76080
 Alpha  occ. eigenvalues --   -0.75730  -0.75311  -0.74619  -0.74390  -0.73967
 Alpha  occ. eigenvalues --   -0.73347  -0.72617  -0.71773  -0.70704  -0.69643
 Alpha  occ. eigenvalues --   -0.68575  -0.68168  -0.67013  -0.66796  -0.66453
 Alpha  occ. eigenvalues --   -0.66274  -0.65533  -0.64666  -0.64002  -0.63311
 Alpha  occ. eigenvalues --   -0.62661  -0.62095  -0.61922  -0.61532  -0.59694
 Alpha  occ. eigenvalues --   -0.59157  -0.59100  -0.58128  -0.57926  -0.57676
 Alpha  occ. eigenvalues --   -0.57470  -0.57116  -0.56725  -0.55867  -0.55407
 Alpha  occ. eigenvalues --   -0.55231  -0.54595  -0.54124  -0.53892  -0.53551
 Alpha  occ. eigenvalues --   -0.53521  -0.53155  -0.53099  -0.52871  -0.52451
 Alpha  occ. eigenvalues --   -0.52400  -0.52283  -0.52110  -0.52032  -0.51603
 Alpha  occ. eigenvalues --   -0.51507  -0.51341  -0.50968  -0.50879  -0.50573
 Alpha  occ. eigenvalues --   -0.50437  -0.50340  -0.50005  -0.49597  -0.49550
 Alpha  occ. eigenvalues --   -0.49479  -0.49194  -0.48918  -0.48672  -0.48568
 Alpha  occ. eigenvalues --   -0.48344  -0.48159  -0.48037  -0.47784  -0.47662
 Alpha  occ. eigenvalues --   -0.47576  -0.47202  -0.47021  -0.46868  -0.46750
 Alpha  occ. eigenvalues --   -0.46555  -0.46209  -0.46075  -0.45711  -0.45609
 Alpha  occ. eigenvalues --   -0.45408  -0.45233  -0.45107  -0.44828  -0.44476
 Alpha  occ. eigenvalues --   -0.44353  -0.44148  -0.43982  -0.43861  -0.43494
 Alpha  occ. eigenvalues --   -0.43458  -0.43378  -0.43255  -0.43016  -0.42873
 Alpha  occ. eigenvalues --   -0.42689  -0.42629  -0.42466  -0.42409  -0.42321
 Alpha  occ. eigenvalues --   -0.42136  -0.41750  -0.41658  -0.41519  -0.41224
 Alpha  occ. eigenvalues --   -0.41103  -0.40855  -0.40674  -0.40298  -0.39900
 Alpha  occ. eigenvalues --   -0.39619  -0.39299  -0.39125  -0.38888  -0.38743
 Alpha  occ. eigenvalues --   -0.38401  -0.37826  -0.37570  -0.37460  -0.37110
 Alpha  occ. eigenvalues --   -0.36887  -0.36437  -0.36374  -0.35899  -0.35826
 Alpha  occ. eigenvalues --   -0.35369  -0.34922  -0.34772  -0.34318  -0.34146
 Alpha  occ. eigenvalues --   -0.33970  -0.33602  -0.32731  -0.31595  -0.31239
 Alpha  occ. eigenvalues --   -0.30184  -0.30136  -0.29468  -0.29214  -0.24542
 Alpha  occ. eigenvalues --   -0.20834
 Alpha virt. eigenvalues --   -0.08658  -0.01882   0.00847   0.01389   0.02469
 Alpha virt. eigenvalues --    0.04606   0.05159   0.05394   0.05477   0.06881
 Alpha virt. eigenvalues --    0.08059   0.08212   0.08641   0.08721   0.09327

 Mulliken charges:
               1
     1  Mg   0.820807
     2  C   -0.036413
     3  C   -0.063158
     4  C   -0.070675
     5  C   -0.075163
     6  N   -0.309495
     7  C   -0.091808
     8  C    0.026925
     9  C   -0.088815
    10  C    0.016480
    11  C    0.083498
    12  C    0.127835
    13  C    0.041508
    14  C    0.187129
    15  O   -0.211119
    16  O   -0.395975
    17  N   -0.391648
    18  C    0.125169
    19  C   -0.145359
    20  C   -0.034394
    21  C    0.142755
    22  C    0.154469
    23  C   -0.013463
    24  O   -0.198234
    25  C    0.066585
    26  N   -0.314345
    27  C    0.069695
    28  C   -0.078961
    29  C    0.038447
    30  C   -0.000973
    31  C    0.080889
    32  C    0.022672
    33  C   -0.006886
    34  N   -0.284772
    35  C    0.084532
    36  C   -0.172170
    37  C    0.043944
    38  C    0.081570
    39  C    0.114713
    40  C    0.004215
    41  O   -0.214739
    42  C    0.045384
    43  C    0.191165
    44  O   -0.222995
    45  O   -0.343638
    46  C    0.172848
    47  C    0.272527
    48  C   -0.106875
    49  C   -0.158429
    50  C    0.088332
    51  C    0.084883
    52  C   -0.028147
    53  C    0.054479
    54  C   -0.099091
    55  C    0.049785
    56  C    0.058907
    57  C    0.001920
    58  C    0.054392
    59  C   -0.144199
    60  C    0.072961
    61  C    0.021845
    62  C    0.015309
    63  C    0.061080
    64  C   -0.167309
    65  C    0.020640
    66  C    0.060072
    67  H   -0.019479
    68  H   -0.063549
    69  H   -0.032927
    70  H    0.002032
    71  H    0.016231
    72  H    0.026363
    73  H    0.029551
    74  H    0.020620
    75  H    0.007661
    76  H   -0.005053
    77  H    0.030282
    78  H    0.052887
    79  H    0.049440
    80  H   -0.000896
    81  H    0.036237
    82  H    0.055048
    83  H    0.021167
    84  H    0.037960
    85  H    0.026106
    86  H    0.005676
    87  H    0.019069
    88  H    0.015376
    89  H    0.020975
    90  H    0.021474
    91  H    0.000208
    92  H    0.029555
    93  H    0.015052
    94  H    0.026071
    95  H    0.028155
    96  H    0.049950
    97  H    0.018835
    98  H    0.043296
    99  H    0.035590
   100  H    0.055158
   101  H    0.052760
   102  H    0.022470
   103  H    0.023862
   104  H   -0.001399
   105  H    0.019927
   106  H    0.030511
   107  H    0.002531
   108  H    0.023347
   109  H   -0.001378
   110  H   -0.012891
   111  H    0.015183
   112  H    0.004117
   113  H   -0.008851
   114  H   -0.009084
   115  H    0.004226
   116  H    0.004923
   117  H   -0.006229
   118  H   -0.008340
   119  H    0.012417
   120  H   -0.010203
   121  H   -0.038469
   122  H   -0.005233
   123  H   -0.012422
   124  H   -0.015380
   125  H    0.015097
   126  H    0.003792
   127  H    0.000933
   128  H    0.000089
   129  H   -0.017801
   130  H    0.014823
   131  H    0.010473
   132  H   -0.012678
   133  H   -0.004062
   134  H   -0.007048
   135  H    0.012572
   136  H    0.013239
   137  H    0.008349
   138  H    0.003275
   139  H    0.020887
   140  H   -0.013574
 Sum of Mulliken charges =  -0.00000

 Dipole moment (field-independent basis, Debye):
    X=              0.3790    Y=              4.6086    Z=              3.8824  Tot=              6.0379
 Quadrupole moment (field-independent basis, Debye-Ang):
   XX=           -398.2022   YY=           -400.0118   ZZ=           -403.7062
   XY=            -60.1916   XZ=            -10.4500   YZ=            -37.6114

 Normal termination of Gaussian 16 at Wed May  4 15:21:48 2022.
