 Gaussian 16, Revision A.03,
 Gaussian 16:  ES64L-G16RevA.03 25-Dec-2016

 ---------------------------------
 #p PBE1PBE/Def2SVP td=(nstates=5)
 ---------------------------------

 ---------------------------------------------------
 step_1_chromophore_11 TDDFT with PBE1PBE functional
 ---------------------------------------------------
 Symbolic Z-matrix:
 Charge =  0 Multiplicity = 1

                         Standard orientation:
 ---------------------------------------------------------------------
 Center     Atomic      Atomic             Coordinates (Angstroms)
 Number     Number       Type             X           Y           Z
 ---------------------------------------------------------------------
      1         12           0       -4.861612    1.334028    0.753108
      2          6           0       -4.883369   -2.293755    0.431137
      3          6           0       -2.202668    0.978759    2.896325
      4          6           0       -3.886077    4.425492   -0.067620
      5          6           0       -7.583492    1.485720   -1.275363
      6          7           0       -3.560542   -0.489843    1.407113
      7          6           0       -3.820149   -1.892786    1.201486
      8          6           0       -2.893878   -2.717638    2.099494
      9          6           0       -2.331398   -1.689332    3.124700
     10          6           0       -2.702391   -0.276037    2.493150
     11          6           0       -2.964861   -1.830395    4.589116
     12          6           0       -1.901500   -3.616691    1.421810
     13          6           0       -1.601049   -3.351210   -0.072292
     14          6           0       -0.577354   -4.091070   -0.952695
     15          8           0       -0.790471   -4.881409   -1.855972
     16          8           0        0.775760   -3.854178   -0.516060
     17          7           0       -3.318725    2.605511    1.448965
     18          6           0       -2.313199    2.251921    2.321360
     19          6           0       -1.502737    3.474774    2.615461
     20          6           0       -1.937091    4.400405    1.670096
     21          6           0       -3.055642    3.849128    0.908838
     22          6           0       -0.421712    3.448348    3.637151
     23          6           0       -1.302562    5.805806    1.458211
     24          8           0       -0.307131    6.083344    2.103326
     25          6           0       -1.733849    6.782879    0.415259
     26          7           0       -5.589199    2.659810   -0.635393
     27          6           0       -5.059600    3.949594   -0.654921
     28          6           0       -5.898084    4.872865   -1.538890
     29          6           0       -7.238759    4.068519   -1.699779
     30          6           0       -6.818326    2.703052   -1.151447
     31          6           0       -6.150020    6.326245   -1.061498
     32          6           0       -7.840052    4.014406   -3.140815
     33          6           0       -9.146855    4.898910   -3.386254
     34          7           0       -6.088549   -0.081571   -0.183637
     35          6           0       -7.234864    0.153821   -0.928700
     36          6           0       -7.893509   -1.102680   -1.188620
     37          6           0       -6.951864   -2.037846   -0.738133
     38          6           0       -5.887135   -1.340937   -0.115279
     39          6           0       -9.216072   -1.229455   -1.964362
     40          6           0       -6.676030   -3.431518   -0.568417
     41          8           0       -7.438926   -4.360641   -0.901777
     42          6           0       -5.386254   -3.699954    0.326891
     43          6           0       -4.580889   -4.649172   -0.467150
     44          8           0       -4.284636   -4.547092   -1.662274
     45          8           0       -4.125182   -5.586381    0.399710
     46          6           0       -3.436269   -6.769595   -0.204515
     47          6           0        1.862047   -4.726577   -1.067540
     48          6           0        3.269991   -3.937814   -0.849014
     49          6           0        4.001033   -3.829457    0.262864
     50          6           0        3.771326   -4.558457    1.601575
     51          6           0        5.357754   -3.082603    0.213590
     52          6           0        5.195847   -1.626466   -0.280176
     53          6           0        6.012856   -1.418903   -1.537223
     54          6           0        6.136948    0.096174   -1.730604
     55          6           0        6.678482    0.468049   -3.178999
     56          6           0        7.053221    0.840747   -0.753897
     57          6           0        8.375511    0.098166   -0.411323
     58          6           0        9.502407    1.082728   -0.031153
     59          6           0       10.699587    0.496598    0.712839
     60          6           0       10.279858    0.297804    2.153796
     61          6           0       11.965933    1.361739    0.610226
     62          6           0       12.677343    1.416518   -0.841142
     63          6           0       14.083682    0.773463   -0.725783
     64          6           0       15.261288    1.670203   -1.200345
     65          6           0       16.397357    1.003635   -2.107905
     66          6           0       16.078920    2.380281   -0.120459
     67          1           0       -1.346540    0.864645    3.563806
     68          1           0       -3.562729    5.439016   -0.314990
     69          1           0       -8.524915    1.571595   -1.821315
     70          1           0       -3.667902   -3.313191    2.583607
     71          1           0       -1.241850   -1.657416    3.141450
     72          1           0       -2.122317   -2.168908    5.190830
     73          1           0       -3.806693   -2.522360    4.554766
     74          1           0       -3.249389   -0.819138    4.881982
     75          1           0       -2.234798   -4.635136    1.620437
     76          1           0       -1.018483   -3.442925    2.037691
     77          1           0       -1.341858   -2.292902   -0.115896
     78          1           0       -2.507360   -3.504008   -0.658597
     79          1           0        0.512760    3.535636    3.083624
     80          1           0       -0.493829    2.508095    4.182965
     81          1           0       -0.587176    4.249317    4.358539
     82          1           0       -1.600509    6.511522   -0.631278
     83          1           0       -1.149917    7.702610    0.434144
     84          1           0       -2.756932    6.975475    0.737927
     85          1           0       -5.246060    4.846978   -2.412753
     86          1           0       -7.918212    4.528016   -0.981586
     87          1           0       -5.500852    7.060221   -1.540027
     88          1           0       -5.924122    6.404182    0.001462
     89          1           0       -7.209899    6.537649   -1.207305
     90          1           0       -8.072779    3.008664   -3.491817
     91          1           0       -7.015903    4.333943   -3.778727
     92          1           0       -8.928762    5.355670   -4.351281
     93          1           0       -9.334289    5.663065   -2.631758
     94          1           0       -9.998200    4.221813   -3.326384
     95          1           0       -9.833911   -2.086338   -1.694891
     96          1           0       -8.842123   -1.370420   -2.977879
     97          1           0       -9.872976   -0.392816   -1.727440
     98          1           0       -5.697162   -4.100849    1.292750
     99          1           0       -3.113013   -7.441666    0.591177
    100          1           0       -2.548707   -6.467712   -0.760898
    101          1           0       -4.222467   -7.191904   -0.828753
    102          1           0        1.712528   -4.794830   -2.144832
    103          1           0        1.638871   -5.718160   -0.674026
    104          1           0        3.670372   -3.358647   -1.681383
    105          1           0        3.543331   -3.824402    2.374037
    106          1           0        4.609305   -5.200225    1.873812
    107          1           0        2.866587   -5.157075    1.498160
    108          1           0        5.873788   -3.648165   -0.562440
    109          1           0        5.929272   -3.014645    1.139141
    110          1           0        5.661497   -1.055144    0.522103
    111          1           0        4.163570   -1.282264   -0.347900
    112          1           0        5.581627   -1.963178   -2.378227
    113          1           0        6.987014   -1.834420   -1.277465
    114          1           0        5.099107    0.422118   -1.669093
    115          1           0        5.870441    0.766059   -3.846713
    116          1           0        7.281857   -0.274587   -3.701731
    117          1           0        7.328100    1.341251   -3.121782
    118          1           0        6.581064    0.852282    0.227984
    119          1           0        7.183920    1.892888   -1.008207
    120          1           0        8.649851   -0.756304   -1.029249
    121          1           0        8.322374   -0.544067    0.466929
    122          1           0        9.009737    1.874155    0.533933
    123          1           0        9.896374    1.505960   -0.954633
    124          1           0       11.023011   -0.451628    0.283927
    125          1           0       10.407155   -0.763606    2.368953
    126          1           0        9.248669    0.600656    2.337304
    127          1           0       10.833557    1.002169    2.775394
    128          1           0       12.659956    1.053781    1.392653
    129          1           0       11.664573    2.374831    0.873455
    130          1           0       12.699658    2.456803   -1.168926
    131          1           0       12.126555    0.746423   -1.501446
    132          1           0       14.066629   -0.117477   -1.353174
    133          1           0       14.226468    0.463278    0.309023
    134          1           0       14.767759    2.408399   -1.832283
    135          1           0       16.626175    0.005866   -1.732808
    136          1           0       17.327770    1.571038   -2.085381
    137          1           0       15.993168    0.971138   -3.120820
    138          1           0       16.139467    3.448995   -0.330157
    139          1           0       17.051499    1.906034    0.010063
    140          1           0       15.469396    2.431034    0.781589
 ---------------------------------------------------------------------

 SCF Done:  E(RPBE1PBE) =  -3005.30902998     A.U. after   16 cycles

 Excitation energies and oscillator strengths:

 Excited State   1:      Singlet-A      1.8053 eV  686.76 nm  f=0.3377  <S**2>=0.000
     245 -> 248        0.15343
     246 -> 247        0.69767
     246 <- 247       -0.11760
 This state for optimization and/or second-order correction.
 Total Energy, E(TD-HF/TD-DFT) =  -3005.24268464
 Copying the excited state density for this state as the 1-particle RhoCI density.

 Excited State   2:      Singlet-A      2.2739 eV  545.26 nm  f=0.0800  <S**2>=0.000
     245 -> 247        0.63226
     246 -> 248       -0.30060

 Excited State   3:      Singlet-A      2.7053 eV  458.29 nm  f=0.0001  <S**2>=0.000
     244 -> 247        0.68193
     244 -> 249       -0.12348
     244 -> 250       -0.11074

 Excited State   4:      Singlet-A      3.0425 eV  407.51 nm  f=0.0011  <S**2>=0.000
     241 -> 247        0.66570
     243 -> 247        0.14937
     246 -> 248       -0.11307

 Excited State   5:      Singlet-A      3.0969 eV  400.35 nm  f=0.0017  <S**2>=0.000
     240 -> 247       -0.18686
     241 -> 247       -0.10815
     243 -> 247        0.65469

 The electronic state is 1-A.
 Alpha  occ. eigenvalues --  -46.92767 -19.25742 -19.23053 -19.20156 -19.19420
 Alpha  occ. eigenvalues --  -19.19149 -19.17583 -14.42039 -14.41279 -14.39340
 Alpha  occ. eigenvalues --  -14.38564 -10.36255 -10.35938 -10.32556 -10.30938
 Alpha  occ. eigenvalues --  -10.29579 -10.29436 -10.29323 -10.29081 -10.28634
 Alpha  occ. eigenvalues --  -10.28532 -10.28350 -10.28251 -10.27170 -10.26687
 Alpha  occ. eigenvalues --  -10.26485 -10.26447 -10.26286 -10.26258 -10.25928
 Alpha  occ. eigenvalues --  -10.25788 -10.25612 -10.25565 -10.25174 -10.25019
 Alpha  occ. eigenvalues --  -10.24922 -10.24907 -10.24835 -10.24803 -10.24521
 Alpha  occ. eigenvalues --  -10.24505 -10.24488 -10.24422 -10.24040 -10.23921
 Alpha  occ. eigenvalues --  -10.23649 -10.23585 -10.23525 -10.23319 -10.23104
 Alpha  occ. eigenvalues --  -10.23045 -10.22989 -10.22871 -10.22656 -10.22616
 Alpha  occ. eigenvalues --  -10.22355 -10.22354 -10.22229 -10.22142 -10.22059
 Alpha  occ. eigenvalues --  -10.22040 -10.22016 -10.21845 -10.21520 -10.21356
 Alpha  occ. eigenvalues --  -10.21287  -3.14835  -1.87646  -1.87232  -1.87038
 Alpha  occ. eigenvalues --   -1.10580  -1.08247  -1.05307  -1.02224  -1.01421
 Alpha  occ. eigenvalues --   -1.00243  -0.99739  -0.98840  -0.97345  -0.95028
 Alpha  occ. eigenvalues --   -0.86437  -0.84802  -0.83844  -0.83756  -0.83691
 Alpha  occ. eigenvalues --   -0.83134  -0.82232  -0.81410  -0.81184  -0.80967
 Alpha  occ. eigenvalues --   -0.80585  -0.79097  -0.78091  -0.77999  -0.77619
 Alpha  occ. eigenvalues --   -0.76718  -0.76111  -0.75408  -0.75187  -0.74338
 Alpha  occ. eigenvalues --   -0.73479  -0.72345  -0.72094  -0.71783  -0.70447
 Alpha  occ. eigenvalues --   -0.70101  -0.69471  -0.68735  -0.68468  -0.68110
 Alpha  occ. eigenvalues --   -0.67819  -0.66931  -0.66154  -0.65026  -0.64048
 Alpha  occ. eigenvalues --   -0.62731  -0.62673  -0.61466  -0.60963  -0.60693
 Alpha  occ. eigenvalues --   -0.60621  -0.59945  -0.59265  -0.58608  -0.57437
 Alpha  occ. eigenvalues --   -0.56814  -0.56557  -0.56346  -0.56063  -0.54174
 Alpha  occ. eigenvalues --   -0.53801  -0.53729  -0.52638  -0.52343  -0.52204
 Alpha  occ. eigenvalues --   -0.52007  -0.51648  -0.51186  -0.50269  -0.49886
 Alpha  occ. eigenvalues --   -0.49816  -0.49116  -0.48757  -0.48194  -0.47924
 Alpha  occ. eigenvalues --   -0.47834  -0.47727  -0.47583  -0.47469  -0.47065
 Alpha  occ. eigenvalues --   -0.46949  -0.46907  -0.46580  -0.46521  -0.46172
 Alpha  occ. eigenvalues --   -0.46136  -0.45704  -0.45600  -0.45411  -0.45234
 Alpha  occ. eigenvalues --   -0.44978  -0.44846  -0.44628  -0.44217  -0.44082
 Alpha  occ. eigenvalues --   -0.44020  -0.43728  -0.43611  -0.43212  -0.43111
 Alpha  occ. eigenvalues --   -0.42980  -0.42824  -0.42633  -0.42479  -0.42330
 Alpha  occ. eigenvalues --   -0.42094  -0.41909  -0.41664  -0.41505  -0.41365
 Alpha  occ. eigenvalues --   -0.41255  -0.40973  -0.40729  -0.40468  -0.40214
 Alpha  occ. eigenvalues --   -0.40189  -0.39883  -0.39766  -0.39532  -0.39337
 Alpha  occ. eigenvalues --   -0.39038  -0.38873  -0.38829  -0.38552  -0.38363
 Alpha  occ. eigenvalues --   -0.38251  -0.38057  -0.37926  -0.37770  -0.37660
 Alpha  occ. eigenvalues --   -0.37520  -0.37437  -0.37267  -0.37157  -0.37141
 Alpha  occ. eigenvalues --   -0.37027  -0.36641  -0.36411  -0.36377  -0.36043
 Alpha  occ. eigenvalues --   -0.35922  -0.35739  -0.35531  -0.35121  -0.34836
 Alpha  occ. eigenvalues --   -0.34550  -0.34105  -0.34078  -0.33686  -0.33613
 Alpha  occ. eigenvalues --   -0.33214  -0.32670  -0.32454  -0.32375  -0.32194
 Alpha  occ. eigenvalues --   -0.31648  -0.31488  -0.31202  -0.30913  -0.30715
 Alpha  occ. eigenvalues --   -0.30252  -0.29871  -0.29686  -0.29204  -0.29181
 Alpha  occ. eigenvalues --   -0.29070  -0.28524  -0.28226  -0.27140  -0.25904
 Alpha  occ. eigenvalues --   -0.25477  -0.25375  -0.25306  -0.24269  -0.21351
 Alpha  occ. eigenvalues --   -0.18535
 Alpha virt. eigenvalues --   -0.11168  -0.05383  -0.03213  -0.02045  -0.01473
 Alpha virt. eigenvalues --   -0.00002   0.00457   0.00913   0.01050   0.02716
 Alpha virt. eigenvalues --    0.04259   0.04704   0.04961   0.05365   0.05911

 Mulliken charges:
               1
     1  Mg   0.963440
     2  C   -0.023512
     3  C   -0.064549
     4  C   -0.069555
     5  C   -0.075236
     6  N   -0.394367
     7  C   -0.017791
     8  C   -0.033512
     9  C   -0.169284
    10  C    0.051015
    11  C    0.025461
    12  C    0.072387
    13  C   -0.049638
    14  C    0.254493
    15  O   -0.245227
    16  O   -0.421177
    17  N   -0.497682
    18  C    0.145096
    19  C   -0.168581
    20  C   -0.089813
    21  C    0.174486
    22  C    0.093884
    23  C    0.043306
    24  O   -0.233341
    25  C   -0.013031
    26  N   -0.418597
    27  C    0.098745
    28  C   -0.147264
    29  C   -0.047611
    30  C    0.048440
    31  C    0.017407
    32  C   -0.034802
    33  C   -0.079151
    34  N   -0.421225
    35  C    0.105608
    36  C   -0.180703
    37  C   -0.018915
    38  C    0.139220
    39  C    0.061420
    40  C    0.109462
    41  O   -0.254248
    42  C   -0.089978
    43  C    0.285963
    44  O   -0.257998
    45  O   -0.375359
    46  C    0.114710
    47  C    0.232737
    48  C   -0.126300
    49  C   -0.193712
    50  C    0.021764
    51  C    0.022546
    52  C   -0.090384
    53  C   -0.003452
    54  C   -0.187537
    55  C   -0.006180
    56  C   -0.003647
    57  C   -0.053823
    58  C   -0.004975
    59  C   -0.230330
    60  C    0.012658
    61  C   -0.030976
    62  C   -0.049793
    63  C    0.007247
    64  C   -0.251629
    65  C   -0.046516
    66  C   -0.005641
    67  H    0.011959
    68  H   -0.025806
    69  H    0.000262
    70  H    0.041589
    71  H    0.051154
    72  H    0.053577
    73  H    0.055212
    74  H    0.048673
    75  H    0.042008
    76  H    0.029773
    77  H    0.065575
    78  H    0.093556
    79  H    0.075825
    80  H    0.025955
    81  H    0.063263
    82  H    0.079893
    83  H    0.049147
    84  H    0.063979
    85  H    0.063505
    86  H    0.045003
    87  H    0.046458
    88  H    0.044487
    89  H    0.049280
    90  H    0.052532
    91  H    0.033592
    92  H    0.057005
    93  H    0.042236
    94  H    0.053277
    95  H    0.056464
    96  H    0.078514
    97  H    0.044958
    98  H    0.079013
    99  H    0.056989
   100  H    0.080237
   101  H    0.074363
   102  H    0.049116
   103  H    0.048692
   104  H    0.029864
   105  H    0.048509
   106  H    0.057221
   107  H    0.031937
   108  H    0.057032
   109  H    0.029446
   110  H    0.022830
   111  H    0.047030
   112  H    0.036643
   113  H    0.025628
   114  H    0.030107
   115  H    0.032233
   116  H    0.031462
   117  H    0.021405
   118  H    0.025717
   119  H    0.043939
   120  H    0.020617
   121  H   -0.004019
   122  H    0.027571
   123  H    0.023171
   124  H    0.023295
   125  H    0.042503
   126  H    0.031333
   127  H    0.028510
   128  H    0.031487
   129  H    0.016110
   130  H    0.045340
   131  H    0.043007
   132  H    0.020818
   133  H    0.027812
   134  H    0.031557
   135  H    0.040788
   136  H    0.041161
   137  H    0.036737
   138  H    0.031778
   139  H    0.047751
   140  H    0.015902
 Sum of Mulliken charges =  -0.00000

 Dipole moment (field-independent basis, Debye):
    X=             -0.0144    Y=              4.3846    Z=              3.6862  Tot=              5.7283
 Quadrupole moment (field-independent basis, Debye-Ang):
   XX=           -390.4191   YY=           -397.4958   ZZ=           -400.6401
   XY=            -60.0196   XZ=             -8.6387   YZ=            -38.7311

 Normal termination of Gaussian 16 at Wed May  4 15:39:34 2022.
