 Gaussian 16, Revision A.03,
 Gaussian 16:  ES64L-G16RevA.03 25-Dec-2016

 --------------------------------
 #p wB97XD/Def2SVP td=(nstates=5)
 --------------------------------

 --------------------------------------------------
 step_1_chromophore_11 TDDFT with wB97XD functional
 --------------------------------------------------
 Symbolic Z-matrix:
 Charge =  0 Multiplicity = 1

                         Standard orientation:
 ---------------------------------------------------------------------
 Center     Atomic      Atomic             Coordinates (Angstroms)
 Number     Number       Type             X           Y           Z
 ---------------------------------------------------------------------
      1         12           0       -4.861612    1.334028    0.753108
      2          6           0       -4.883369   -2.293755    0.431137
      3          6           0       -2.202668    0.978759    2.896325
      4          6           0       -3.886077    4.425492   -0.067620
      5          6           0       -7.583492    1.485720   -1.275363
      6          7           0       -3.560542   -0.489843    1.407113
      7          6           0       -3.820149   -1.892786    1.201486
      8          6           0       -2.893878   -2.717638    2.099494
      9          6           0       -2.331398   -1.689332    3.124700
     10          6           0       -2.702391   -0.276037    2.493150
     11          6           0       -2.964861   -1.830395    4.589116
     12          6           0       -1.901500   -3.616691    1.421810
     13          6           0       -1.601049   -3.351210   -0.072292
     14          6           0       -0.577354   -4.091070   -0.952695
     15          8           0       -0.790471   -4.881409   -1.855972
     16          8           0        0.775760   -3.854178   -0.516060
     17          7           0       -3.318725    2.605511    1.448965
     18          6           0       -2.313199    2.251921    2.321360
     19          6           0       -1.502737    3.474774    2.615461
     20          6           0       -1.937091    4.400405    1.670096
     21          6           0       -3.055642    3.849128    0.908838
     22          6           0       -0.421712    3.448348    3.637151
     23          6           0       -1.302562    5.805806    1.458211
     24          8           0       -0.307131    6.083344    2.103326
     25          6           0       -1.733849    6.782879    0.415259
     26          7           0       -5.589199    2.659810   -0.635393
     27          6           0       -5.059600    3.949594   -0.654921
     28          6           0       -5.898084    4.872865   -1.538890
     29          6           0       -7.238759    4.068519   -1.699779
     30          6           0       -6.818326    2.703052   -1.151447
     31          6           0       -6.150020    6.326245   -1.061498
     32          6           0       -7.840052    4.014406   -3.140815
     33          6           0       -9.146855    4.898910   -3.386254
     34          7           0       -6.088549   -0.081571   -0.183637
     35          6           0       -7.234864    0.153821   -0.928700
     36          6           0       -7.893509   -1.102680   -1.188620
     37          6           0       -6.951864   -2.037846   -0.738133
     38          6           0       -5.887135   -1.340937   -0.115279
     39          6           0       -9.216072   -1.229455   -1.964362
     40          6           0       -6.676030   -3.431518   -0.568417
     41          8           0       -7.438926   -4.360641   -0.901777
     42          6           0       -5.386254   -3.699954    0.326891
     43          6           0       -4.580889   -4.649172   -0.467150
     44          8           0       -4.284636   -4.547092   -1.662274
     45          8           0       -4.125182   -5.586381    0.399710
     46          6           0       -3.436269   -6.769595   -0.204515
     47          6           0        1.862047   -4.726577   -1.067540
     48          6           0        3.269991   -3.937814   -0.849014
     49          6           0        4.001033   -3.829457    0.262864
     50          6           0        3.771326   -4.558457    1.601575
     51          6           0        5.357754   -3.082603    0.213590
     52          6           0        5.195847   -1.626466   -0.280176
     53          6           0        6.012856   -1.418903   -1.537223
     54          6           0        6.136948    0.096174   -1.730604
     55          6           0        6.678482    0.468049   -3.178999
     56          6           0        7.053221    0.840747   -0.753897
     57          6           0        8.375511    0.098166   -0.411323
     58          6           0        9.502407    1.082728   -0.031153
     59          6           0       10.699587    0.496598    0.712839
     60          6           0       10.279858    0.297804    2.153796
     61          6           0       11.965933    1.361739    0.610226
     62          6           0       12.677343    1.416518   -0.841142
     63          6           0       14.083682    0.773463   -0.725783
     64          6           0       15.261288    1.670203   -1.200345
     65          6           0       16.397357    1.003635   -2.107905
     66          6           0       16.078920    2.380281   -0.120459
     67          1           0       -1.346540    0.864645    3.563806
     68          1           0       -3.562729    5.439016   -0.314990
     69          1           0       -8.524915    1.571595   -1.821315
     70          1           0       -3.667902   -3.313191    2.583607
     71          1           0       -1.241850   -1.657416    3.141450
     72          1           0       -2.122317   -2.168908    5.190830
     73          1           0       -3.806693   -2.522360    4.554766
     74          1           0       -3.249389   -0.819138    4.881982
     75          1           0       -2.234798   -4.635136    1.620437
     76          1           0       -1.018483   -3.442925    2.037691
     77          1           0       -1.341858   -2.292902   -0.115896
     78          1           0       -2.507360   -3.504008   -0.658597
     79          1           0        0.512760    3.535636    3.083624
     80          1           0       -0.493829    2.508095    4.182965
     81          1           0       -0.587176    4.249317    4.358539
     82          1           0       -1.600509    6.511522   -0.631278
     83          1           0       -1.149917    7.702610    0.434144
     84          1           0       -2.756932    6.975475    0.737927
     85          1           0       -5.246060    4.846978   -2.412753
     86          1           0       -7.918212    4.528016   -0.981586
     87          1           0       -5.500852    7.060221   -1.540027
     88          1           0       -5.924122    6.404182    0.001462
     89          1           0       -7.209899    6.537649   -1.207305
     90          1           0       -8.072779    3.008664   -3.491817
     91          1           0       -7.015903    4.333943   -3.778727
     92          1           0       -8.928762    5.355670   -4.351281
     93          1           0       -9.334289    5.663065   -2.631758
     94          1           0       -9.998200    4.221813   -3.326384
     95          1           0       -9.833911   -2.086338   -1.694891
     96          1           0       -8.842123   -1.370420   -2.977879
     97          1           0       -9.872976   -0.392816   -1.727440
     98          1           0       -5.697162   -4.100849    1.292750
     99          1           0       -3.113013   -7.441666    0.591177
    100          1           0       -2.548707   -6.467712   -0.760898
    101          1           0       -4.222467   -7.191904   -0.828753
    102          1           0        1.712528   -4.794830   -2.144832
    103          1           0        1.638871   -5.718160   -0.674026
    104          1           0        3.670372   -3.358647   -1.681383
    105          1           0        3.543331   -3.824402    2.374037
    106          1           0        4.609305   -5.200225    1.873812
    107          1           0        2.866587   -5.157075    1.498160
    108          1           0        5.873788   -3.648165   -0.562440
    109          1           0        5.929272   -3.014645    1.139141
    110          1           0        5.661497   -1.055144    0.522103
    111          1           0        4.163570   -1.282264   -0.347900
    112          1           0        5.581627   -1.963178   -2.378227
    113          1           0        6.987014   -1.834420   -1.277465
    114          1           0        5.099107    0.422118   -1.669093
    115          1           0        5.870441    0.766059   -3.846713
    116          1           0        7.281857   -0.274587   -3.701731
    117          1           0        7.328100    1.341251   -3.121782
    118          1           0        6.581064    0.852282    0.227984
    119          1           0        7.183920    1.892888   -1.008207
    120          1           0        8.649851   -0.756304   -1.029249
    121          1           0        8.322374   -0.544067    0.466929
    122          1           0        9.009737    1.874155    0.533933
    123          1           0        9.896374    1.505960   -0.954633
    124          1           0       11.023011   -0.451628    0.283927
    125          1           0       10.407155   -0.763606    2.368953
    126          1           0        9.248669    0.600656    2.337304
    127          1           0       10.833557    1.002169    2.775394
    128          1           0       12.659956    1.053781    1.392653
    129          1           0       11.664573    2.374831    0.873455
    130          1           0       12.699658    2.456803   -1.168926
    131          1           0       12.126555    0.746423   -1.501446
    132          1           0       14.066629   -0.117477   -1.353174
    133          1           0       14.226468    0.463278    0.309023
    134          1           0       14.767759    2.408399   -1.832283
    135          1           0       16.626175    0.005866   -1.732808
    136          1           0       17.327770    1.571038   -2.085381
    137          1           0       15.993168    0.971138   -3.120820
    138          1           0       16.139467    3.448995   -0.330157
    139          1           0       17.051499    1.906034    0.010063
    140          1           0       15.469396    2.431034    0.781589
 ---------------------------------------------------------------------

 SCF Done:  E(RwB97XD) =  -3007.82178073     A.U. after   19 cycles

 Excitation energies and oscillator strengths:

 Excited State   1:      Singlet-A      1.6095 eV  770.33 nm  f=0.3492  <S**2>=0.000
     245 -> 248        0.16227
     246 -> 247        0.68850
     245 <- 248        0.11041
 This state for optimization and/or second-order correction.
 Total Energy, E(TD-HF/TD-DFT) =  -3007.76263321
 Copying the excited state density for this state as the 1-particle RhoCI density.

 Excited State   2:      Singlet-A      2.2284 eV  556.39 nm  f=0.0750  <S**2>=0.000
     245 -> 247        0.61738
     246 -> 248       -0.32695

 Excited State   3:      Singlet-A      3.3520 eV  369.88 nm  f=0.0705  <S**2>=0.000
     241 -> 247        0.32918
     244 -> 247        0.45677
     244 -> 249       -0.19515
     244 -> 251        0.22188
     246 -> 248        0.23748

 Excited State   4:      Singlet-A      3.3819 eV  366.62 nm  f=0.0806  <S**2>=0.000
     241 -> 247        0.47604
     243 -> 247       -0.10785
     244 -> 247       -0.32519
     244 -> 249        0.15288
     244 -> 251       -0.17635
     246 -> 248        0.25555

 Excited State   5:      Singlet-A      3.5277 eV  351.46 nm  f=0.2388  <S**2>=0.000
     241 -> 247       -0.18988
     243 -> 247        0.52506
     244 -> 247       -0.10735
     245 -> 247        0.17280
     246 -> 248        0.35255

 The electronic state is 1-A.
 Alpha  occ. eigenvalues --  -46.95740 -19.30239 -19.27588 -19.24825 -19.24201
 Alpha  occ. eigenvalues --  -19.24026 -19.22077 -14.47142 -14.46321 -14.44440
 Alpha  occ. eigenvalues --  -14.43334 -10.43044 -10.42672 -10.39582 -10.37504
 Alpha  occ. eigenvalues --  -10.36175 -10.35952 -10.35801 -10.35131 -10.35066
 Alpha  occ. eigenvalues --  -10.35032 -10.35020 -10.34672 -10.33121 -10.33023
 Alpha  occ. eigenvalues --  -10.33011 -10.32601 -10.32493 -10.32462 -10.32073
 Alpha  occ. eigenvalues --  -10.32022 -10.31914 -10.31836 -10.31719 -10.31463
 Alpha  occ. eigenvalues --  -10.31349 -10.31309 -10.31138 -10.31136 -10.30955
 Alpha  occ. eigenvalues --  -10.30955 -10.30871 -10.30862 -10.30755 -10.30304
 Alpha  occ. eigenvalues --  -10.30236 -10.29899 -10.29875 -10.29618 -10.29507
 Alpha  occ. eigenvalues --  -10.29388 -10.29350 -10.29239 -10.29007 -10.28958
 Alpha  occ. eigenvalues --  -10.28764 -10.28715 -10.28611 -10.28511 -10.28444
 Alpha  occ. eigenvalues --  -10.28394 -10.28270 -10.27990 -10.27961 -10.27796
 Alpha  occ. eigenvalues --  -10.27727  -3.21680  -1.95237  -1.94825  -1.94629
 Alpha  occ. eigenvalues --   -1.17912  -1.15621  -1.13011  -1.09472  -1.08673
 Alpha  occ. eigenvalues --   -1.07586  -1.06891  -1.06094  -1.04994  -1.02513
 Alpha  occ. eigenvalues --   -0.93920  -0.92487  -0.91504  -0.91413  -0.91281
 Alpha  occ. eigenvalues --   -0.90797  -0.89915  -0.89085  -0.88869  -0.88734
 Alpha  occ. eigenvalues --   -0.88075  -0.86780  -0.85736  -0.85563  -0.85371
 Alpha  occ. eigenvalues --   -0.84503  -0.83795  -0.83053  -0.82754  -0.82015
 Alpha  occ. eigenvalues --   -0.81124  -0.80081  -0.79675  -0.79457  -0.78005
 Alpha  occ. eigenvalues --   -0.77682  -0.77157  -0.76432  -0.76183  -0.75801
 Alpha  occ. eigenvalues --   -0.75308  -0.74545  -0.73761  -0.72655  -0.71557
 Alpha  occ. eigenvalues --   -0.70414  -0.70153  -0.69031  -0.68641  -0.68317
 Alpha  occ. eigenvalues --   -0.68207  -0.67543  -0.66678  -0.65992  -0.65126
 Alpha  occ. eigenvalues --   -0.64477  -0.63964  -0.63907  -0.63523  -0.61730
 Alpha  occ. eigenvalues --   -0.61154  -0.61076  -0.60078  -0.59835  -0.59636
 Alpha  occ. eigenvalues --   -0.59426  -0.59108  -0.58651  -0.57735  -0.57306
 Alpha  occ. eigenvalues --   -0.57177  -0.56526  -0.56066  -0.55736  -0.55514
 Alpha  occ. eigenvalues --   -0.55397  -0.55088  -0.54987  -0.54753  -0.54416
 Alpha  occ. eigenvalues --   -0.54296  -0.54226  -0.53951  -0.53913  -0.53495
 Alpha  occ. eigenvalues --   -0.53459  -0.53330  -0.52870  -0.52792  -0.52494
 Alpha  occ. eigenvalues --   -0.52331  -0.52212  -0.51923  -0.51593  -0.51432
 Alpha  occ. eigenvalues --   -0.51387  -0.51081  -0.50811  -0.50557  -0.50433
 Alpha  occ. eigenvalues --   -0.50245  -0.50109  -0.49926  -0.49728  -0.49608
 Alpha  occ. eigenvalues --   -0.49430  -0.49172  -0.48943  -0.48844  -0.48679
 Alpha  occ. eigenvalues --   -0.48476  -0.48105  -0.47975  -0.47653  -0.47465
 Alpha  occ. eigenvalues --   -0.47322  -0.47139  -0.47004  -0.46719  -0.46361
 Alpha  occ. eigenvalues --   -0.46229  -0.46066  -0.45885  -0.45734  -0.45406
 Alpha  occ. eigenvalues --   -0.45347  -0.45239  -0.45107  -0.44916  -0.44879
 Alpha  occ. eigenvalues --   -0.44623  -0.44537  -0.44368  -0.44310  -0.44244
 Alpha  occ. eigenvalues --   -0.44072  -0.43710  -0.43526  -0.43446  -0.43095
 Alpha  occ. eigenvalues --   -0.42981  -0.42805  -0.42590  -0.42220  -0.41803
 Alpha  occ. eigenvalues --   -0.41502  -0.41168  -0.41034  -0.40751  -0.40670
 Alpha  occ. eigenvalues --   -0.40253  -0.39669  -0.39415  -0.39392  -0.39286
 Alpha  occ. eigenvalues --   -0.38713  -0.38370  -0.38214  -0.37877  -0.37666
 Alpha  occ. eigenvalues --   -0.37217  -0.36852  -0.36669  -0.36165  -0.36082
 Alpha  occ. eigenvalues --   -0.35956  -0.35540  -0.34934  -0.33802  -0.33228
 Alpha  occ. eigenvalues --   -0.32396  -0.32152  -0.31579  -0.31127  -0.26482
 Alpha  occ. eigenvalues --   -0.22655
 Alpha virt. eigenvalues --   -0.06990   0.00042   0.03066   0.04404   0.04608
 Alpha virt. eigenvalues --    0.06844   0.07354   0.07635   0.07840   0.09387
 Alpha virt. eigenvalues --    0.10960   0.11313   0.11591   0.12038   0.12635

 Mulliken charges:
               1
     1  Mg   0.954768
     2  C   -0.038202
     3  C   -0.082591
     4  C   -0.079094
     5  C   -0.082432
     6  N   -0.368897
     7  C   -0.047891
     8  C   -0.010656
     9  C   -0.142271
    10  C    0.043273
    11  C    0.037427
    12  C    0.083457
    13  C   -0.019237
    14  C    0.244344
    15  O   -0.241276
    16  O   -0.422195
    17  N   -0.471013
    18  C    0.144693
    19  C   -0.159853
    20  C   -0.079452
    21  C    0.169443
    22  C    0.104862
    23  C    0.036177
    24  O   -0.227677
    25  C    0.001891
    26  N   -0.386151
    27  C    0.091204
    28  C   -0.126863
    29  C   -0.015595
    30  C    0.025998
    31  C    0.031601
    32  C   -0.022498
    33  C   -0.061818
    34  N   -0.378244
    35  C    0.092625
    36  C   -0.180057
    37  C   -0.010081
    38  C    0.118370
    39  C    0.073253
    40  C    0.085152
    41  O   -0.248859
    42  C   -0.041660
    43  C    0.258921
    44  O   -0.251450
    45  O   -0.372813
    46  C    0.132132
    47  C    0.243295
    48  C   -0.131746
    49  C   -0.182369
    50  C    0.037873
    51  C    0.039856
    52  C   -0.073901
    53  C    0.015326
    54  C   -0.156635
    55  C    0.003532
    56  C    0.015597
    57  C   -0.039015
    58  C    0.017508
    59  C   -0.199748
    60  C    0.021576
    61  C   -0.013472
    62  C   -0.035609
    63  C    0.020942
    64  C   -0.225756
    65  C   -0.030800
    66  C    0.008781
    67  H    0.004061
    68  H   -0.041494
    69  H   -0.008413
    70  H    0.026444
    71  H    0.041617
    72  H    0.048821
    73  H    0.051018
    74  H    0.041517
    75  H    0.033057
    76  H    0.021519
    77  H    0.056832
    78  H    0.076953
    79  H    0.073449
    80  H    0.021960
    81  H    0.060926
    82  H    0.076835
    83  H    0.048937
    84  H    0.056670
    85  H    0.052468
    86  H    0.031623
    87  H    0.041622
    88  H    0.036466
    89  H    0.042543
    90  H    0.044801
    91  H    0.024817
    92  H    0.051369
    93  H    0.034908
    94  H    0.047558
    95  H    0.052046
    96  H    0.072594
    97  H    0.038664
    98  H    0.073853
    99  H    0.054233
   100  H    0.071912
   101  H    0.071113
   102  H    0.045187
   103  H    0.045650
   104  H    0.023468
   105  H    0.042612
   106  H    0.052300
   107  H    0.025246
   108  H    0.046688
   109  H    0.024381
   110  H    0.010377
   111  H    0.038146
   112  H    0.028734
   113  H    0.010644
   114  H    0.019011
   115  H    0.027203
   116  H    0.026211
   117  H    0.013964
   118  H    0.014668
   119  H    0.035763
   120  H    0.010905
   121  H   -0.017685
   122  H    0.016495
   123  H    0.010962
   124  H    0.010501
   125  H    0.038208
   126  H    0.023991
   127  H    0.022979
   128  H    0.020677
   129  H    0.006219
   130  H    0.038221
   131  H    0.033972
   132  H    0.013537
   133  H    0.017150
   134  H    0.018931
   135  H    0.033932
   136  H    0.034624
   137  H    0.031081
   138  H    0.026241
   139  H    0.041515
   140  H    0.007992
 Sum of Mulliken charges =  -0.00000

 Dipole moment (field-independent basis, Debye):
    X=              0.4966    Y=              4.7866    Z=              4.0494  Tot=              6.2893
 Quadrupole moment (field-independent basis, Debye-Ang):
   XX=           -394.7490   YY=           -395.5174   ZZ=           -399.9878
   XY=            -60.8600   XZ=            -10.2396   YZ=            -38.1641

 Normal termination of Gaussian 16 at Wed May  4 16:05:50 2022.
