 Gaussian 16, Revision A.03,
 Gaussian 16:  ES64L-G16RevA.03 25-Dec-2016

 --------------------
 #p ZINDO=(nstates=5)
 --------------------

 ---------------------------
 step_1_chromophore_11 ZINDO
 ---------------------------
 Symbolic Z-matrix:
 Charge =  0 Multiplicity = 1

                         Standard orientation:
 ---------------------------------------------------------------------
 Center     Atomic      Atomic             Coordinates (Angstroms)
 Number     Number       Type             X           Y           Z
 ---------------------------------------------------------------------
      1         12           0       -4.861612    1.334028    0.753108
      2          6           0       -4.883369   -2.293755    0.431137
      3          6           0       -2.202668    0.978759    2.896325
      4          6           0       -3.886077    4.425492   -0.067620
      5          6           0       -7.583492    1.485720   -1.275363
      6          7           0       -3.560542   -0.489843    1.407113
      7          6           0       -3.820149   -1.892786    1.201486
      8          6           0       -2.893878   -2.717638    2.099494
      9          6           0       -2.331398   -1.689332    3.124700
     10          6           0       -2.702391   -0.276037    2.493150
     11          6           0       -2.964861   -1.830395    4.589116
     12          6           0       -1.901500   -3.616691    1.421810
     13          6           0       -1.601049   -3.351210   -0.072292
     14          6           0       -0.577354   -4.091070   -0.952695
     15          8           0       -0.790471   -4.881409   -1.855972
     16          8           0        0.775760   -3.854178   -0.516060
     17          7           0       -3.318725    2.605511    1.448965
     18          6           0       -2.313199    2.251921    2.321360
     19          6           0       -1.502737    3.474774    2.615461
     20          6           0       -1.937091    4.400405    1.670096
     21          6           0       -3.055642    3.849128    0.908838
     22          6           0       -0.421712    3.448348    3.637151
     23          6           0       -1.302562    5.805806    1.458211
     24          8           0       -0.307131    6.083344    2.103326
     25          6           0       -1.733849    6.782879    0.415259
     26          7           0       -5.589199    2.659810   -0.635393
     27          6           0       -5.059600    3.949594   -0.654921
     28          6           0       -5.898084    4.872865   -1.538890
     29          6           0       -7.238759    4.068519   -1.699779
     30          6           0       -6.818326    2.703052   -1.151447
     31          6           0       -6.150020    6.326245   -1.061498
     32          6           0       -7.840052    4.014406   -3.140815
     33          6           0       -9.146855    4.898910   -3.386254
     34          7           0       -6.088549   -0.081571   -0.183637
     35          6           0       -7.234864    0.153821   -0.928700
     36          6           0       -7.893509   -1.102680   -1.188620
     37          6           0       -6.951864   -2.037846   -0.738133
     38          6           0       -5.887135   -1.340937   -0.115279
     39          6           0       -9.216072   -1.229455   -1.964362
     40          6           0       -6.676030   -3.431518   -0.568417
     41          8           0       -7.438926   -4.360641   -0.901777
     42          6           0       -5.386254   -3.699954    0.326891
     43          6           0       -4.580889   -4.649172   -0.467150
     44          8           0       -4.284636   -4.547092   -1.662274
     45          8           0       -4.125182   -5.586381    0.399710
     46          6           0       -3.436269   -6.769595   -0.204515
     47          6           0        1.862047   -4.726577   -1.067540
     48          6           0        3.269991   -3.937814   -0.849014
     49          6           0        4.001033   -3.829457    0.262864
     50          6           0        3.771326   -4.558457    1.601575
     51          6           0        5.357754   -3.082603    0.213590
     52          6           0        5.195847   -1.626466   -0.280176
     53          6           0        6.012856   -1.418903   -1.537223
     54          6           0        6.136948    0.096174   -1.730604
     55          6           0        6.678482    0.468049   -3.178999
     56          6           0        7.053221    0.840747   -0.753897
     57          6           0        8.375511    0.098166   -0.411323
     58          6           0        9.502407    1.082728   -0.031153
     59          6           0       10.699587    0.496598    0.712839
     60          6           0       10.279858    0.297804    2.153796
     61          6           0       11.965933    1.361739    0.610226
     62          6           0       12.677343    1.416518   -0.841142
     63          6           0       14.083682    0.773463   -0.725783
     64          6           0       15.261288    1.670203   -1.200345
     65          6           0       16.397357    1.003635   -2.107905
     66          6           0       16.078920    2.380281   -0.120459
     67          1           0       -1.346540    0.864645    3.563806
     68          1           0       -3.562729    5.439016   -0.314990
     69          1           0       -8.524915    1.571595   -1.821315
     70          1           0       -3.667902   -3.313191    2.583607
     71          1           0       -1.241850   -1.657416    3.141450
     72          1           0       -2.122317   -2.168908    5.190830
     73          1           0       -3.806693   -2.522360    4.554766
     74          1           0       -3.249389   -0.819138    4.881982
     75          1           0       -2.234798   -4.635136    1.620437
     76          1           0       -1.018483   -3.442925    2.037691
     77          1           0       -1.341858   -2.292902   -0.115896
     78          1           0       -2.507360   -3.504008   -0.658597
     79          1           0        0.512760    3.535636    3.083624
     80          1           0       -0.493829    2.508095    4.182965
     81          1           0       -0.587176    4.249317    4.358539
     82          1           0       -1.600509    6.511522   -0.631278
     83          1           0       -1.149917    7.702610    0.434144
     84          1           0       -2.756932    6.975475    0.737927
     85          1           0       -5.246060    4.846978   -2.412753
     86          1           0       -7.918212    4.528016   -0.981586
     87          1           0       -5.500852    7.060221   -1.540027
     88          1           0       -5.924122    6.404182    0.001462
     89          1           0       -7.209899    6.537649   -1.207305
     90          1           0       -8.072779    3.008664   -3.491817
     91          1           0       -7.015903    4.333943   -3.778727
     92          1           0       -8.928762    5.355670   -4.351281
     93          1           0       -9.334289    5.663065   -2.631758
     94          1           0       -9.998200    4.221813   -3.326384
     95          1           0       -9.833911   -2.086338   -1.694891
     96          1           0       -8.842123   -1.370420   -2.977879
     97          1           0       -9.872976   -0.392816   -1.727440
     98          1           0       -5.697162   -4.100849    1.292750
     99          1           0       -3.113013   -7.441666    0.591177
    100          1           0       -2.548707   -6.467712   -0.760898
    101          1           0       -4.222467   -7.191904   -0.828753
    102          1           0        1.712528   -4.794830   -2.144832
    103          1           0        1.638871   -5.718160   -0.674026
    104          1           0        3.670372   -3.358647   -1.681383
    105          1           0        3.543331   -3.824402    2.374037
    106          1           0        4.609305   -5.200225    1.873812
    107          1           0        2.866587   -5.157075    1.498160
    108          1           0        5.873788   -3.648165   -0.562440
    109          1           0        5.929272   -3.014645    1.139141
    110          1           0        5.661497   -1.055144    0.522103
    111          1           0        4.163570   -1.282264   -0.347900
    112          1           0        5.581627   -1.963178   -2.378227
    113          1           0        6.987014   -1.834420   -1.277465
    114          1           0        5.099107    0.422118   -1.669093
    115          1           0        5.870441    0.766059   -3.846713
    116          1           0        7.281857   -0.274587   -3.701731
    117          1           0        7.328100    1.341251   -3.121782
    118          1           0        6.581064    0.852282    0.227984
    119          1           0        7.183920    1.892888   -1.008207
    120          1           0        8.649851   -0.756304   -1.029249
    121          1           0        8.322374   -0.544067    0.466929
    122          1           0        9.009737    1.874155    0.533933
    123          1           0        9.896374    1.505960   -0.954633
    124          1           0       11.023011   -0.451628    0.283927
    125          1           0       10.407155   -0.763606    2.368953
    126          1           0        9.248669    0.600656    2.337304
    127          1           0       10.833557    1.002169    2.775394
    128          1           0       12.659956    1.053781    1.392653
    129          1           0       11.664573    2.374831    0.873455
    130          1           0       12.699658    2.456803   -1.168926
    131          1           0       12.126555    0.746423   -1.501446
    132          1           0       14.066629   -0.117477   -1.353174
    133          1           0       14.226468    0.463278    0.309023
    134          1           0       14.767759    2.408399   -1.832283
    135          1           0       16.626175    0.005866   -1.732808
    136          1           0       17.327770    1.571038   -2.085381
    137          1           0       15.993168    0.971138   -3.120820
    138          1           0       16.139467    3.448995   -0.330157
    139          1           0       17.051499    1.906034    0.010063
    140          1           0       15.469396    2.431034    0.781589
 ---------------------------------------------------------------------

 SCF Done:  E(RZINDO/S) =  -473.933463404     A.U. after   19 cycles

 Excitation energies and oscillator strengths:

 Excited State   1:      Singlet-A      1.2169 eV 1018.87 nm  f=0.5423  <S**2>=0.000
     175 ->178        -0.15729
     176 ->177         0.67005
 This state for optimization and/or second-order correction.
 Total Energy, E(CIS/TDA) =  -473.888744068
 Copying the excited state density for this state as the 1-particle RhoCI density.

 Excited State   2:      Singlet-A      1.9679 eV  630.03 nm  f=0.0065  <S**2>=0.000
     175 ->177         0.50126
     176 ->178         0.46607

 Excited State   3:      Singlet-A      2.8547 eV  434.31 nm  f=0.4105  <S**2>=0.000
     171 ->181        -0.11657
     175 ->177        -0.25071
     176 ->178         0.31230
     176 ->179         0.22352
     176 ->180         0.46476

 Excited State   4:      Singlet-A      2.9165 eV  425.12 nm  f=0.0021  <S**2>=0.000
     171 ->177         0.26228
     171 ->179         0.23966
     171 ->181         0.36234
     171 ->185        -0.18643
     171 ->187         0.13883
     176 ->180         0.26599
     176 ->181        -0.12628

 Excited State   5:      Singlet-A      2.9444 eV  421.09 nm  f=0.1388  <S**2>=0.000
     167 ->179         0.12635
     168 ->177        -0.21596
     168 ->178         0.15937
     168 ->179         0.33150
     168 ->181        -0.22103
     168 ->185        -0.18157
     170 ->177        -0.11079
     175 ->177         0.15897
     176 ->178        -0.18189
     176 ->180         0.25151

 The electronic state is 1-A.
 Alpha  occ. eigenvalues --   -1.84893  -1.81295  -1.78654  -1.72743  -1.70047
 Alpha  occ. eigenvalues --   -1.67509  -1.66489  -1.61763  -1.60605  -1.57483
 Alpha  occ. eigenvalues --   -1.54851  -1.50336  -1.47194  -1.45531  -1.44577
 Alpha  occ. eigenvalues --   -1.43802  -1.43180  -1.41374  -1.37950  -1.37311
 Alpha  occ. eigenvalues --   -1.34746  -1.32530  -1.32207  -1.31231  -1.28521
 Alpha  occ. eigenvalues --   -1.27654  -1.26676  -1.23323  -1.19506  -1.17089
 Alpha  occ. eigenvalues --   -1.16377  -1.15147  -1.13678  -1.13123  -1.13017
 Alpha  occ. eigenvalues --   -1.12404  -1.10458  -1.10097  -1.05680  -1.03822
 Alpha  occ. eigenvalues --   -1.03057  -1.01100  -0.99335  -0.99062  -0.97000
 Alpha  occ. eigenvalues --   -0.95393  -0.94252  -0.93737  -0.92001  -0.91889
 Alpha  occ. eigenvalues --   -0.91314  -0.90892  -0.89287  -0.88789  -0.85832
 Alpha  occ. eigenvalues --   -0.85577  -0.83511  -0.82518  -0.80755  -0.79405
 Alpha  occ. eigenvalues --   -0.78903  -0.77707  -0.76936  -0.76715  -0.76345
 Alpha  occ. eigenvalues --   -0.75796  -0.75741  -0.74082  -0.73870  -0.73724
 Alpha  occ. eigenvalues --   -0.73258  -0.72796  -0.72614  -0.71225  -0.70933
 Alpha  occ. eigenvalues --   -0.70095  -0.69426  -0.69244  -0.68600  -0.67938
 Alpha  occ. eigenvalues --   -0.67006  -0.66470  -0.66349  -0.65824  -0.65674
 Alpha  occ. eigenvalues --   -0.64981  -0.64944  -0.64666  -0.64036  -0.63643
 Alpha  occ. eigenvalues --   -0.63271  -0.62868  -0.62419  -0.62061  -0.61949
 Alpha  occ. eigenvalues --   -0.61261  -0.61092  -0.60950  -0.60090  -0.59582
 Alpha  occ. eigenvalues --   -0.59367  -0.59217  -0.59100  -0.58279  -0.57714
 Alpha  occ. eigenvalues --   -0.57581  -0.57030  -0.56606  -0.56223  -0.56072
 Alpha  occ. eigenvalues --   -0.55857  -0.55430  -0.55163  -0.54695  -0.54376
 Alpha  occ. eigenvalues --   -0.54139  -0.53901  -0.53474  -0.53383  -0.53310
 Alpha  occ. eigenvalues --   -0.52915  -0.52587  -0.52382  -0.52150  -0.51971
 Alpha  occ. eigenvalues --   -0.51494  -0.51407  -0.51295  -0.50772  -0.50480
 Alpha  occ. eigenvalues --   -0.49900  -0.49772  -0.49277  -0.48839  -0.48747
 Alpha  occ. eigenvalues --   -0.48476  -0.48136  -0.47887  -0.47557  -0.47288
 Alpha  occ. eigenvalues --   -0.47014  -0.46810  -0.46761  -0.46465  -0.46388
 Alpha  occ. eigenvalues --   -0.46296  -0.46087  -0.45875  -0.45094  -0.45028
 Alpha  occ. eigenvalues --   -0.44785  -0.44724  -0.44421  -0.44401  -0.43886
 Alpha  occ. eigenvalues --   -0.43319  -0.42986  -0.42774  -0.42162  -0.41991
 Alpha  occ. eigenvalues --   -0.41494  -0.41260  -0.39830  -0.39173  -0.38504
 Alpha  occ. eigenvalues --   -0.37721  -0.37149  -0.36132  -0.34483  -0.33902
 Alpha  occ. eigenvalues --   -0.33111  -0.32932  -0.32797  -0.31612  -0.27257
 Alpha  occ. eigenvalues --   -0.21451
 Alpha virt. eigenvalues --   -0.08302  -0.02233  -0.00166   0.00902   0.01510
 Alpha virt. eigenvalues --    0.02213   0.02626   0.03058   0.04184   0.05051
 Alpha virt. eigenvalues --    0.05667   0.06291   0.07255   0.07766   0.07943

 Mulliken charges:
               1
     1  Mg   0.437927
     2  C   -0.043472
     3  C   -0.097489
     4  C   -0.084142
     5  C   -0.058987
     6  N   -0.343691
     7  C    0.094741
     8  C    0.013716
     9  C   -0.000070
    10  C    0.170242
    11  C   -0.052116
    12  C   -0.006407
    13  C    0.003495
    14  C    0.459249
    15  O   -0.482295
    16  O   -0.309448
    17  N   -0.341498
    18  C    0.149457
    19  C    0.053172
    20  C   -0.030371
    21  C    0.127433
    22  C   -0.029336
    23  C    0.323022
    24  O   -0.516310
    25  C   -0.025959
    26  N   -0.255149
    27  C    0.140839
    28  C   -0.001055
    29  C    0.008812
    30  C    0.084236
    31  C   -0.052753
    32  C   -0.036970
    33  C   -0.063958
    34  N   -0.291895
    35  C    0.048828
    36  C    0.027194
    37  C   -0.063575
    38  C    0.125098
    39  C   -0.041430
    40  C    0.320464
    41  O   -0.551536
    42  C    0.056732
    43  C    0.502809
    44  O   -0.518765
    45  O   -0.283507
    46  C    0.068627
    47  C    0.098238
    48  C   -0.093743
    49  C    0.005150
    50  C   -0.045033
    51  C   -0.034407
    52  C   -0.037621
    53  C   -0.028678
    54  C   -0.008508
    55  C   -0.069340
    56  C   -0.021910
    57  C   -0.047246
    58  C   -0.027963
    59  C   -0.008061
    60  C   -0.058399
    61  C   -0.044626
    62  C   -0.043479
    63  C   -0.031731
    64  C   -0.021288
    65  C   -0.061058
    66  C   -0.057459
    67  H    0.017899
    68  H    0.026110
    69  H    0.020355
    70  H    0.025645
    71  H    0.034652
    72  H    0.025107
    73  H    0.036539
    74  H    0.029124
    75  H    0.030137
    76  H    0.019124
    77  H    0.038498
    78  H    0.055711
    79  H    0.049873
    80  H    0.023095
    81  H    0.042515
    82  H    0.046177
    83  H    0.033184
    84  H    0.037992
    85  H    0.040367
    86  H    0.034004
    87  H    0.021739
    88  H    0.019148
    89  H    0.025583
    90  H    0.029674
    91  H    0.016589
    92  H    0.027134
    93  H    0.021223
    94  H    0.026774
    95  H    0.030181
    96  H    0.045257
    97  H    0.025621
    98  H    0.058939
    99  H    0.030292
   100  H    0.057484
   101  H    0.053077
   102  H    0.042942
   103  H    0.055711
   104  H    0.036743
   105  H    0.028387
   106  H    0.032663
   107  H    0.016434
   108  H    0.027604
   109  H    0.025810
   110  H    0.011025
   111  H    0.028530
   112  H    0.027553
   113  H    0.021183
   114  H    0.019908
   115  H    0.014070
   116  H    0.020940
   117  H    0.011475
   118  H    0.005542
   119  H    0.028154
   120  H    0.027581
   121  H    0.008981
   122  H    0.023311
   123  H    0.006708
   124  H    0.017600
   125  H    0.021692
   126  H    0.015856
   127  H    0.019797
   128  H    0.019995
   129  H    0.009666
   130  H    0.031483
   131  H    0.024466
   132  H    0.013954
   133  H    0.023477
   134  H    0.015702
   135  H    0.020354
   136  H    0.022503
   137  H    0.014015
   138  H    0.016495
   139  H    0.031480
   140  H    0.008642
 Sum of Mulliken charges =  -0.00000

 Dipole moment (field-independent basis, Debye):
    X=              1.6669    Y=              7.1691    Z=              7.2783  Tot=             10.3513
 N-N= 4.364830007589D+03 E-N= 0.000000000000D+00  KE=-9.404027217985D+03
 Leave Link  601 at Wed May  4 16:18:13 2022, MaxMem=  6710886400 cpu:               0.8 elap:               0.0
 (Enter /sw/apps/gaussian-16.0/g16/l9999.exe)
 1\1\GINC-BP1-COMPUTE122\SP\RZINDO CIS\STO-3G\C55H74Mg1N4O6\OF15641\04-
 May-2022\0\\#p ZINDO=(nstates=5)\\step_1_chromophore_11 ZINDO\\0,1\Mg,
 0,52.532,24.272,45.278\C,0,49.695,26.145,43.971\C,0,51.045,21.439,44.0
 32\C,0,55.558,22.862,45.084\C,0,53.786,27.156,46.565\N,0,50.652,23.9,4
 3.946\C,0,49.6,24.825,43.606\C,0,48.415,24.053,43.019\C,0,48.7,22.567,
 43.387\C,0,50.226,22.57,43.84\C,0,47.769,22.007,44.564\C,0,48.044,24.3
 43,41.594\C,0,49.095,25.06,40.714\C,0,48.969,25.397,39.217\O,0,48.814,

 Normal termination of Gaussian 16 at Wed May  4 16:18:14 2022.
