 Gaussian 16, Revision A.03,
 Gaussian 16:  ES64L-G16RevA.03 25-Dec-2016

 ------------------------------
 #p blyp/Def2SVP td=(nstates=5)
 ------------------------------

 ------------------------------------------------
 step_1_chromophore_17 TDDFT with blyp functional
 ------------------------------------------------
 Symbolic Z-matrix:
 Charge =  0 Multiplicity = 1

                         Standard orientation:
 ---------------------------------------------------------------------
 Center     Atomic      Atomic             Coordinates (Angstroms)
 Number     Number       Type             X           Y           Z
 ---------------------------------------------------------------------
      1         12           0        3.905836    1.343056   -0.522107
      2          6           0        4.142763   -2.109101   -0.525257
      3          6           0        1.235574    1.135482   -2.710798
      4          6           0        3.256990    4.593566    0.116658
      5          6           0        6.410207    1.307053    1.960729
      6          7           0        2.631219   -0.334079   -1.284244
      7          6           0        3.070407   -1.595795   -1.286770
      8          6           0        2.044847   -2.517137   -2.016866
      9          6           0        1.282611   -1.452465   -2.938774
     10          6           0        1.790769   -0.088078   -2.333900
     11          6           0        1.517685   -1.686301   -4.450584
     12          6           0        1.085821   -3.131031   -1.022473
     13          6           0        0.728997   -4.588420   -1.270068
     14          6           0       -0.712906   -5.168979   -1.015128
     15          8           0       -1.312286   -5.927220   -1.748368
     16          8           0       -1.131241   -4.671365    0.156761
     17          7           0        2.508613    2.711849   -1.378219
     18          6           0        1.462497    2.454046   -2.181923
     19          6           0        0.827949    3.698390   -2.473673
     20          6           0        1.505515    4.760606   -1.801747
     21          6           0        2.511380    4.066672   -0.988030
     22          6           0       -0.234775    3.807165   -3.503772
     23          6           0        1.055519    6.178266   -1.814405
     24          8           0        0.111131    6.515690   -2.508810
     25          6           0        1.790546    7.256585   -1.027293
     26          7           0        4.829274    2.814707    0.851940
     27          6           0        4.282562    4.060358    0.927558
     28          6           0        4.828584    4.805596    2.101902
     29          6           0        5.846235    3.719749    2.694089
     30          6           0        5.783043    2.527643    1.771771
     31          6           0        5.438395    6.179981    1.768290
     32          6           0        5.633388    3.324852    4.222386
     33          6           0        6.814572    3.377427    5.219712
     34          7           0        5.056579   -0.046845    0.490168
     35          6           0        6.060972    0.088692    1.396299
     36          6           0        6.782134   -1.102059    1.494130
     37          6           0        6.098685   -2.041784    0.735029
     38          6           0        5.021970   -1.374013    0.207633
     39          6           0        8.020812   -1.310964    2.413816
     40          6           0        6.066355   -3.357158    0.294343
     41          8           0        6.782593   -4.288854    0.643768
     42          6           0        4.726906   -3.562680   -0.564574
     43          6           0        5.007851   -3.876302   -1.919056
     44          8           0        5.386253   -3.163342   -2.851577
     45          8           0        4.752783   -5.237201   -2.057452
     46          6           0        4.941013   -5.903385   -3.334801
     47          6           0       -2.579773   -4.789353    0.288277
     48          6           0       -2.914305   -4.442481    1.719433
     49          6           0       -4.115641   -4.514585    2.325283
     50          6           0       -5.352357   -5.248128    1.875967
     51          6           0       -4.379097   -3.695799    3.528641
     52          6           0       -4.593319   -2.211359    3.230072
     53          6           0       -5.722620   -1.624994    4.153405
     54          6           0       -6.966255   -1.163862    3.343952
     55          6           0       -8.186168   -1.857656    4.048237
     56          6           0       -7.094337    0.449654    3.359289
     57          6           0       -8.059896    0.922988    2.256330
     58          6           0       -7.385335    1.654751    1.095689
     59          6           0       -7.726023    1.123514   -0.343467
     60          6           0       -6.923406   -0.177180   -0.807751
     61          6           0       -7.516403    2.328541   -1.303502
     62          6           0       -8.712434    2.510511   -2.241590
     63          6           0       -9.967484    2.944523   -1.434713
     64          6           0      -11.121518    1.820230   -1.573844
     65          6           0      -12.101779    2.116403   -2.763422
     66          6           0      -11.926284    1.797635   -0.280234
     67          1           0        0.499757    1.090640   -3.516129
     68          1           0        3.168475    5.637830    0.424972
     69          1           0        7.232216    1.425862    2.669852
     70          1           0        2.605834   -3.291471   -2.539392
     71          1           0        0.212541   -1.383582   -2.745758
     72          1           0        2.249849   -2.473518   -4.629298
     73          1           0        1.851213   -0.757542   -4.914573
     74          1           0        0.552970   -1.924261   -4.898100
     75          1           0        0.144063   -2.612314   -0.842092
     76          1           0        1.562143   -2.970554   -0.055294
     77          1           0        1.471648   -5.181154   -0.736262
     78          1           0        0.958549   -4.681249   -2.331558
     79          1           0        0.316487    4.150978   -4.378790
     80          1           0       -1.014032    4.507713   -3.203007
     81          1           0       -0.727135    2.857862   -3.715013
     82          1           0        1.442900    7.157205    0.001102
     83          1           0        1.371201    8.203298   -1.366983
     84          1           0        2.869475    7.149199   -1.138261
     85          1           0        3.923038    4.900497    2.700264
     86          1           0        6.863982    4.107426    2.739170
     87          1           0        4.723366    6.918299    2.132728
     88          1           0        5.645037    6.306798    0.705094
     89          1           0        6.354865    6.316259    2.341893
     90          1           0        5.267736    2.298816    4.260374
     91          1           0        4.907828    3.962793    4.727538
     92          1           0        7.190611    2.360964    5.104259
     93          1           0        6.446123    3.501001    6.237257
     94          1           0        7.704292    3.961880    4.985749
     95          1           0        7.676324   -1.374817    3.445184
     96          1           0        8.744021   -0.495570    2.437861
     97          1           0        8.538271   -2.237935    2.165159
     98          1           0        4.151416   -4.322099   -0.035016
     99          1           0        5.231935   -6.930508   -3.116773
    100          1           0        5.604170   -5.391586   -4.032720
    101          1           0        3.959394   -6.004125   -3.798024
    102          1           0       -3.049325   -5.756532    0.106989
    103          1           0       -3.140353   -4.086929   -0.328926
    104          1           0       -2.127840   -3.851986    2.189569
    105          1           0       -5.375246   -6.191971    2.422017
    106          1           0       -5.284439   -5.453395    0.807759
    107          1           0       -6.301055   -4.743361    2.059217
    108          1           0       -3.572703   -3.809458    4.252641
    109          1           0       -5.230754   -4.127310    4.053949
    110          1           0       -4.752450   -2.079220    2.159132
    111          1           0       -3.699882   -1.599893    3.358542
    112          1           0       -5.259590   -0.770366    4.646570
    113          1           0       -5.990300   -2.251764    5.004275
    114          1           0       -6.929425   -1.606525    2.349138
    115          1           0       -7.979901   -2.927860    4.011262
    116          1           0       -9.079832   -1.545990    3.508861
    117          1           0       -8.231103   -1.522891    5.084385
    118          1           0       -6.074771    0.795169    3.190833
    119          1           0       -7.467961    0.729635    4.344415
    120          1           0       -8.665868    1.669762    2.767818
    121          1           0       -8.638592    0.096830    1.843494
    122          1           0       -6.317564    1.446852    1.164392
    123          1           0       -7.439558    2.723989    1.299550
    124          1           0       -8.768263    0.807923   -0.362532
    125          1           0       -6.629619   -0.077000   -1.852746
    126          1           0       -7.524429   -1.058856   -0.586608
    127          1           0       -5.965944   -0.224888   -0.289630
    128          1           0       -6.635496    2.054044   -1.884920
    129          1           0       -7.413455    3.345709   -0.925894
    130          1           0       -8.906571    1.714952   -2.962352
    131          1           0       -8.553665    3.421956   -2.817602
    132          1           0      -10.377233    3.877596   -1.822401
    133          1           0       -9.811807    3.172036   -0.380770
    134          1           0      -10.724778    0.808017   -1.654448
    135          1           0      -11.656527    2.888180   -3.391450
    136          1           0      -13.111273    2.432557   -2.503518
    137          1           0      -12.281907    1.202208   -3.327582
    138          1           0      -11.481577    0.985959    0.294702
    139          1           0      -12.964528    1.553129   -0.504500
    140          1           0      -11.737300    2.699921    0.301122
 ---------------------------------------------------------------------

 SCF Done:  E(RB-LYP) =  -3007.35059455     A.U. after   21 cycles

 Excitation energies and oscillator strengths:

 Excited State   1:      Singlet-A      1.7745 eV  698.68 nm  f=0.0076  <S**2>=0.000
     244 -> 247        0.68653
     245 -> 247        0.15040
 This state for optimization and/or second-order correction.
 Total Energy, E(TD-HF/TD-DFT) =  -3007.28538142
 Copying the excited state density for this state as the 1-particle RhoCI density.

 Excited State   2:      Singlet-A      1.8091 eV  685.34 nm  f=0.3004  <S**2>=0.000
     245 -> 248        0.19147
     246 -> 247        0.68317
     246 <- 247       -0.15147

 Excited State   3:      Singlet-A      2.0086 eV  617.26 nm  f=0.0058  <S**2>=0.000
     243 -> 247        0.69998

 Excited State   4:      Singlet-A      2.0236 eV  612.69 nm  f=0.0687  <S**2>=0.000
     244 -> 247       -0.14824
     245 -> 247        0.62947
     246 -> 248       -0.24187

 Excited State   5:      Singlet-A      2.0726 eV  598.20 nm  f=0.0000  <S**2>=0.000
     242 -> 247        0.70709

 The electronic state is 1-A.
 Alpha  occ. eigenvalues --  -46.28124 -18.83515 -18.81542 -18.77420 -18.76870
 Alpha  occ. eigenvalues --  -18.76150 -18.75251 -14.03596 -14.03180 -14.01372
 Alpha  occ. eigenvalues --  -14.00894 -10.04655 -10.03875  -9.99878  -9.99572
 Alpha  occ. eigenvalues --   -9.98154  -9.97448  -9.97006  -9.96981  -9.96872
 Alpha  occ. eigenvalues --   -9.96754  -9.96598  -9.95592  -9.95328  -9.94458
 Alpha  occ. eigenvalues --   -9.94443  -9.94324  -9.94249  -9.94218  -9.94110
 Alpha  occ. eigenvalues --   -9.93851  -9.93648  -9.93641  -9.93369  -9.93363
 Alpha  occ. eigenvalues --   -9.93201  -9.93177  -9.93106  -9.92964  -9.92749
 Alpha  occ. eigenvalues --   -9.92535  -9.92507  -9.92413  -9.92411  -9.92319
 Alpha  occ. eigenvalues --   -9.92306  -9.92163  -9.92102  -9.92032  -9.91779
 Alpha  occ. eigenvalues --   -9.91710  -9.91679  -9.91497  -9.91354  -9.91289
 Alpha  occ. eigenvalues --   -9.91271  -9.91170  -9.91005  -9.91000  -9.90915
 Alpha  occ. eigenvalues --   -9.90906  -9.90881  -9.90812  -9.90799  -9.90583
 Alpha  occ. eigenvalues --   -9.90107  -2.92554  -1.72987  -1.72440  -1.72257
 Alpha  occ. eigenvalues --   -0.99771  -0.97018  -0.91683  -0.91679  -0.91175
 Alpha  occ. eigenvalues --   -0.89411  -0.87814  -0.86466  -0.86244  -0.85150
 Alpha  occ. eigenvalues --   -0.76718  -0.74062  -0.73038  -0.72785  -0.72746
 Alpha  occ. eigenvalues --   -0.71876  -0.71584  -0.71339  -0.70404  -0.70224
 Alpha  occ. eigenvalues --   -0.69697  -0.69316  -0.68824  -0.68301  -0.67589
 Alpha  occ. eigenvalues --   -0.66912  -0.66337  -0.65592  -0.65290  -0.64903
 Alpha  occ. eigenvalues --   -0.64169  -0.62690  -0.62380  -0.61871  -0.61099
 Alpha  occ. eigenvalues --   -0.60362  -0.60077  -0.59663  -0.59547  -0.58655
 Alpha  occ. eigenvalues --   -0.58531  -0.57619  -0.57436  -0.55324  -0.55031
 Alpha  occ. eigenvalues --   -0.54691  -0.53817  -0.53269  -0.52540  -0.52113
 Alpha  occ. eigenvalues --   -0.51886  -0.51534  -0.51258  -0.50881  -0.50593
 Alpha  occ. eigenvalues --   -0.49506  -0.49032  -0.48870  -0.48682  -0.46923
 Alpha  occ. eigenvalues --   -0.46641  -0.46167  -0.45627  -0.45459  -0.44979
 Alpha  occ. eigenvalues --   -0.44622  -0.44107  -0.43256  -0.42835  -0.42686
 Alpha  occ. eigenvalues --   -0.42102  -0.41924  -0.41484  -0.41445  -0.41335
 Alpha  occ. eigenvalues --   -0.41210  -0.40701  -0.40563  -0.40261  -0.40055
 Alpha  occ. eigenvalues --   -0.39906  -0.39741  -0.39581  -0.39516  -0.39219
 Alpha  occ. eigenvalues --   -0.39012  -0.38819  -0.38795  -0.38617  -0.38466
 Alpha  occ. eigenvalues --   -0.38199  -0.38089  -0.37748  -0.37459  -0.37431
 Alpha  occ. eigenvalues --   -0.37176  -0.37044  -0.36895  -0.36731  -0.36643
 Alpha  occ. eigenvalues --   -0.36445  -0.36003  -0.35964  -0.35728  -0.35608
 Alpha  occ. eigenvalues --   -0.35554  -0.35372  -0.35071  -0.35018  -0.34827
 Alpha  occ. eigenvalues --   -0.34636  -0.34545  -0.34358  -0.34228  -0.34081
 Alpha  occ. eigenvalues --   -0.33854  -0.33769  -0.33622  -0.33504  -0.33425
 Alpha  occ. eigenvalues --   -0.33363  -0.33283  -0.32921  -0.32864  -0.32654
 Alpha  occ. eigenvalues --   -0.32426  -0.32305  -0.31976  -0.31863  -0.31674
 Alpha  occ. eigenvalues --   -0.31595  -0.31445  -0.31219  -0.31033  -0.30945
 Alpha  occ. eigenvalues --   -0.30848  -0.30423  -0.30339  -0.30316  -0.29978
 Alpha  occ. eigenvalues --   -0.29784  -0.29752  -0.29543  -0.29313  -0.29285
 Alpha  occ. eigenvalues --   -0.29025  -0.28694  -0.28524  -0.27833  -0.27355
 Alpha  occ. eigenvalues --   -0.27241  -0.27191  -0.26917  -0.26775  -0.26629
 Alpha  occ. eigenvalues --   -0.26556  -0.26272  -0.26103  -0.25443  -0.24940
 Alpha  occ. eigenvalues --   -0.24602  -0.24587  -0.24555  -0.23897  -0.23323
 Alpha  occ. eigenvalues --   -0.23058  -0.22620  -0.22324  -0.22218  -0.21252
 Alpha  occ. eigenvalues --   -0.20235  -0.19685  -0.19305  -0.18541  -0.17827
 Alpha  occ. eigenvalues --   -0.16304
 Alpha virt. eigenvalues --   -0.12069  -0.07422  -0.06689  -0.04732  -0.03235
 Alpha virt. eigenvalues --   -0.03083  -0.02516  -0.01802  -0.01668  -0.00275
 Alpha virt. eigenvalues --    0.01127   0.01464   0.01705   0.02329   0.02436

 Mulliken charges:
               1
     1  Mg   0.671850
     2  C   -0.029063
     3  C   -0.067703
     4  C   -0.008153
     5  C   -0.104041
     6  N   -0.198921
     7  C   -0.069931
     8  C   -0.030904
     9  C   -0.005994
    10  C    0.048374
    11  C    0.141992
    12  C    0.155797
    13  C    0.086318
    14  C    0.078344
    15  O   -0.167057
    16  O   -0.238809
    17  N   -0.290821
    18  C    0.132400
    19  C   -0.157941
    20  C    0.048233
    21  C    0.151333
    22  C    0.182657
    23  C   -0.121885
    24  O   -0.163570
    25  C    0.152928
    26  N   -0.208851
    27  C   -0.071959
    28  C    0.026208
    29  C    0.059682
    30  C    0.002476
    31  C    0.136366
    32  C    0.046418
    33  C    0.046951
    34  N   -0.252707
    35  C    0.181990
    36  C   -0.192571
    37  C    0.189891
    38  C    0.096998
    39  C    0.166586
    40  C   -0.118725
    41  O   -0.131396
    42  C    0.075460
    43  C    0.137299
    44  O   -0.192448
    45  O   -0.293853
    46  C    0.214309
    47  C    0.293807
    48  C   -0.118697
    49  C   -0.161180
    50  C    0.143164
    51  C    0.149771
    52  C    0.076529
    53  C    0.106222
    54  C   -0.110093
    55  C    0.083799
    56  C    0.093670
    57  C    0.109930
    58  C    0.080300
    59  C   -0.093641
    60  C    0.098787
    61  C    0.116188
    62  C    0.084222
    63  C    0.069945
    64  C   -0.128705
    65  C    0.107506
    66  C    0.111103
    67  H   -0.059616
    68  H   -0.086888
    69  H   -0.065333
    70  H   -0.006627
    71  H   -0.017568
    72  H    0.004847
    73  H   -0.013185
    74  H   -0.009418
    75  H   -0.032550
    76  H   -0.035069
    77  H    0.012792
    78  H   -0.009962
    79  H    0.010247
    80  H    0.012586
    81  H   -0.023347
    82  H    0.009145
    83  H   -0.011718
    84  H    0.017957
    85  H   -0.008165
    86  H   -0.035269
    87  H   -0.002453
    88  H    0.007317
    89  H   -0.007907
    90  H   -0.010355
    91  H   -0.021676
    92  H   -0.017126
    93  H   -0.000485
    94  H   -0.003707
    95  H   -0.001832
    96  H   -0.007943
    97  H    0.010047
    98  H    0.008069
    99  H    0.015826
   100  H    0.026256
   101  H    0.001351
   102  H    0.014536
   103  H    0.005364
   104  H   -0.033748
   105  H    0.009821
   106  H   -0.018683
   107  H   -0.001678
   108  H   -0.027406
   109  H   -0.045404
   110  H   -0.025690
   111  H   -0.035346
   112  H   -0.048418
   113  H   -0.031822
   114  H   -0.029651
   115  H   -0.007334
   116  H   -0.018657
   117  H   -0.012742
   118  H   -0.021734
   119  H   -0.031982
   120  H   -0.036314
   121  H   -0.017503
   122  H   -0.045880
   123  H   -0.028662
   124  H   -0.018545
   125  H   -0.011679
   126  H   -0.000744
   127  H   -0.016301
   128  H   -0.043798
   129  H   -0.023378
   130  H   -0.023210
   131  H   -0.045016
   132  H   -0.036643
   133  H   -0.029355
   134  H   -0.023030
   135  H   -0.015950
   136  H   -0.017743
   137  H   -0.021528
   138  H   -0.027500
   139  H   -0.018186
   140  H   -0.012887
 Sum of Mulliken charges =  -0.00000

 Dipole moment (field-independent basis, Debye):
    X=             -0.4961    Y=              2.7102    Z=              3.2702  Tot=              4.2762
 Quadrupole moment (field-independent basis, Debye-Ang):
   XX=           -406.9379   YY=           -425.4511   ZZ=           -398.9690
   XY=             38.1537   XZ=              5.7286   YZ=             21.5453

 Normal termination of Gaussian 16 at Fri Apr 29 06:11:03 2022.
