 Gaussian 16, Revision A.03,
 Gaussian 16:  ES64L-G16RevA.03 25-Dec-2016

 -----------------------------------
 #p cam-b3lyp/Def2SVP td=(nstates=5)
 -----------------------------------

 -----------------------------------------------------
 step_1_chromophore_17 TDDFT with cam-b3lyp functional
 -----------------------------------------------------
 Symbolic Z-matrix:
 Charge =  0 Multiplicity = 1

                         Standard orientation:
 ---------------------------------------------------------------------
 Center     Atomic      Atomic             Coordinates (Angstroms)
 Number     Number       Type             X           Y           Z
 ---------------------------------------------------------------------
      1         12           0        3.905836    1.343056   -0.522107
      2          6           0        4.142763   -2.109101   -0.525257
      3          6           0        1.235574    1.135482   -2.710798
      4          6           0        3.256990    4.593566    0.116658
      5          6           0        6.410207    1.307053    1.960729
      6          7           0        2.631219   -0.334079   -1.284244
      7          6           0        3.070407   -1.595795   -1.286770
      8          6           0        2.044847   -2.517137   -2.016866
      9          6           0        1.282611   -1.452465   -2.938774
     10          6           0        1.790769   -0.088078   -2.333900
     11          6           0        1.517685   -1.686301   -4.450584
     12          6           0        1.085821   -3.131031   -1.022473
     13          6           0        0.728997   -4.588420   -1.270068
     14          6           0       -0.712906   -5.168979   -1.015128
     15          8           0       -1.312286   -5.927220   -1.748368
     16          8           0       -1.131241   -4.671365    0.156761
     17          7           0        2.508613    2.711849   -1.378219
     18          6           0        1.462497    2.454046   -2.181923
     19          6           0        0.827949    3.698390   -2.473673
     20          6           0        1.505515    4.760606   -1.801747
     21          6           0        2.511380    4.066672   -0.988030
     22          6           0       -0.234775    3.807165   -3.503772
     23          6           0        1.055519    6.178266   -1.814405
     24          8           0        0.111131    6.515690   -2.508810
     25          6           0        1.790546    7.256585   -1.027293
     26          7           0        4.829274    2.814707    0.851940
     27          6           0        4.282562    4.060358    0.927558
     28          6           0        4.828584    4.805596    2.101902
     29          6           0        5.846235    3.719749    2.694089
     30          6           0        5.783043    2.527643    1.771771
     31          6           0        5.438395    6.179981    1.768290
     32          6           0        5.633388    3.324852    4.222386
     33          6           0        6.814572    3.377427    5.219712
     34          7           0        5.056579   -0.046845    0.490168
     35          6           0        6.060972    0.088692    1.396299
     36          6           0        6.782134   -1.102059    1.494130
     37          6           0        6.098685   -2.041784    0.735029
     38          6           0        5.021970   -1.374013    0.207633
     39          6           0        8.020812   -1.310964    2.413816
     40          6           0        6.066355   -3.357158    0.294343
     41          8           0        6.782593   -4.288854    0.643768
     42          6           0        4.726906   -3.562680   -0.564574
     43          6           0        5.007851   -3.876302   -1.919056
     44          8           0        5.386253   -3.163342   -2.851577
     45          8           0        4.752783   -5.237201   -2.057452
     46          6           0        4.941013   -5.903385   -3.334801
     47          6           0       -2.579773   -4.789353    0.288277
     48          6           0       -2.914305   -4.442481    1.719433
     49          6           0       -4.115641   -4.514585    2.325283
     50          6           0       -5.352357   -5.248128    1.875967
     51          6           0       -4.379097   -3.695799    3.528641
     52          6           0       -4.593319   -2.211359    3.230072
     53          6           0       -5.722620   -1.624994    4.153405
     54          6           0       -6.966255   -1.163862    3.343952
     55          6           0       -8.186168   -1.857656    4.048237
     56          6           0       -7.094337    0.449654    3.359289
     57          6           0       -8.059896    0.922988    2.256330
     58          6           0       -7.385335    1.654751    1.095689
     59          6           0       -7.726023    1.123514   -0.343467
     60          6           0       -6.923406   -0.177180   -0.807751
     61          6           0       -7.516403    2.328541   -1.303502
     62          6           0       -8.712434    2.510511   -2.241590
     63          6           0       -9.967484    2.944523   -1.434713
     64          6           0      -11.121518    1.820230   -1.573844
     65          6           0      -12.101779    2.116403   -2.763422
     66          6           0      -11.926284    1.797635   -0.280234
     67          1           0        0.499757    1.090640   -3.516129
     68          1           0        3.168475    5.637830    0.424972
     69          1           0        7.232216    1.425862    2.669852
     70          1           0        2.605834   -3.291471   -2.539392
     71          1           0        0.212541   -1.383582   -2.745758
     72          1           0        2.249849   -2.473518   -4.629298
     73          1           0        1.851213   -0.757542   -4.914573
     74          1           0        0.552970   -1.924261   -4.898100
     75          1           0        0.144063   -2.612314   -0.842092
     76          1           0        1.562143   -2.970554   -0.055294
     77          1           0        1.471648   -5.181154   -0.736262
     78          1           0        0.958549   -4.681249   -2.331558
     79          1           0        0.316487    4.150978   -4.378790
     80          1           0       -1.014032    4.507713   -3.203007
     81          1           0       -0.727135    2.857862   -3.715013
     82          1           0        1.442900    7.157205    0.001102
     83          1           0        1.371201    8.203298   -1.366983
     84          1           0        2.869475    7.149199   -1.138261
     85          1           0        3.923038    4.900497    2.700264
     86          1           0        6.863982    4.107426    2.739170
     87          1           0        4.723366    6.918299    2.132728
     88          1           0        5.645037    6.306798    0.705094
     89          1           0        6.354865    6.316259    2.341893
     90          1           0        5.267736    2.298816    4.260374
     91          1           0        4.907828    3.962793    4.727538
     92          1           0        7.190611    2.360964    5.104259
     93          1           0        6.446123    3.501001    6.237257
     94          1           0        7.704292    3.961880    4.985749
     95          1           0        7.676324   -1.374817    3.445184
     96          1           0        8.744021   -0.495570    2.437861
     97          1           0        8.538271   -2.237935    2.165159
     98          1           0        4.151416   -4.322099   -0.035016
     99          1           0        5.231935   -6.930508   -3.116773
    100          1           0        5.604170   -5.391586   -4.032720
    101          1           0        3.959394   -6.004125   -3.798024
    102          1           0       -3.049325   -5.756532    0.106989
    103          1           0       -3.140353   -4.086929   -0.328926
    104          1           0       -2.127840   -3.851986    2.189569
    105          1           0       -5.375246   -6.191971    2.422017
    106          1           0       -5.284439   -5.453395    0.807759
    107          1           0       -6.301055   -4.743361    2.059217
    108          1           0       -3.572703   -3.809458    4.252641
    109          1           0       -5.230754   -4.127310    4.053949
    110          1           0       -4.752450   -2.079220    2.159132
    111          1           0       -3.699882   -1.599893    3.358542
    112          1           0       -5.259590   -0.770366    4.646570
    113          1           0       -5.990300   -2.251764    5.004275
    114          1           0       -6.929425   -1.606525    2.349138
    115          1           0       -7.979901   -2.927860    4.011262
    116          1           0       -9.079832   -1.545990    3.508861
    117          1           0       -8.231103   -1.522891    5.084385
    118          1           0       -6.074771    0.795169    3.190833
    119          1           0       -7.467961    0.729635    4.344415
    120          1           0       -8.665868    1.669762    2.767818
    121          1           0       -8.638592    0.096830    1.843494
    122          1           0       -6.317564    1.446852    1.164392
    123          1           0       -7.439558    2.723989    1.299550
    124          1           0       -8.768263    0.807923   -0.362532
    125          1           0       -6.629619   -0.077000   -1.852746
    126          1           0       -7.524429   -1.058856   -0.586608
    127          1           0       -5.965944   -0.224888   -0.289630
    128          1           0       -6.635496    2.054044   -1.884920
    129          1           0       -7.413455    3.345709   -0.925894
    130          1           0       -8.906571    1.714952   -2.962352
    131          1           0       -8.553665    3.421956   -2.817602
    132          1           0      -10.377233    3.877596   -1.822401
    133          1           0       -9.811807    3.172036   -0.380770
    134          1           0      -10.724778    0.808017   -1.654448
    135          1           0      -11.656527    2.888180   -3.391450
    136          1           0      -13.111273    2.432557   -2.503518
    137          1           0      -12.281907    1.202208   -3.327582
    138          1           0      -11.481577    0.985959    0.294702
    139          1           0      -12.964528    1.553129   -0.504500
    140          1           0      -11.737300    2.699921    0.301122
 ---------------------------------------------------------------------

 SCF Done:  E(RCAM-B3LYP) =  -3007.14751808     A.U. after   17 cycles

 Excitation energies and oscillator strengths:

 Excited State   1:      Singlet-A      1.6987 eV  729.89 nm  f=0.3919  <S**2>=0.000
     245 -> 248        0.18504
     246 -> 247        0.68487
     245 <- 248        0.10998
 This state for optimization and/or second-order correction.
 Total Energy, E(TD-HF/TD-DFT) =  -3007.08509282
 Copying the excited state density for this state as the 1-particle RhoCI density.

 Excited State   2:      Singlet-A      2.2281 eV  556.45 nm  f=0.1001  <S**2>=0.000
     245 -> 247        0.63670
     246 -> 248       -0.29379

 Excited State   3:      Singlet-A      3.2269 eV  384.22 nm  f=0.0038  <S**2>=0.000
     243 -> 247        0.68106
     246 -> 248        0.12077

 Excited State   4:      Singlet-A      3.4073 eV  363.88 nm  f=0.0185  <S**2>=0.000
     239 -> 247        0.14677
     239 -> 249       -0.10437
     240 -> 247        0.29431
     240 -> 249       -0.21968
     242 -> 247        0.50715
     242 -> 249       -0.11362
     246 -> 248       -0.17285

 Excited State   5:      Singlet-A      3.4786 eV  356.42 nm  f=0.3073  <S**2>=0.000
     239 -> 247        0.11777
     240 -> 247        0.37197
     240 -> 249       -0.15929
     242 -> 247       -0.19760
     245 -> 247        0.19454
     246 -> 248        0.46400

 The electronic state is 1-A.
 Alpha  occ. eigenvalues --  -46.89759 -19.26420 -19.24631 -19.20387 -19.20204
 Alpha  occ. eigenvalues --  -19.19295 -19.18425 -14.42427 -14.42089 -14.39877
 Alpha  occ. eigenvalues --  -14.39267 -10.39911 -10.39635 -10.35280 -10.34692
 Alpha  occ. eigenvalues --  -10.32197 -10.31615 -10.31501 -10.31471 -10.31375
 Alpha  occ. eigenvalues --  -10.31209 -10.30975 -10.29843 -10.29508 -10.28777
 Alpha  occ. eigenvalues --  -10.28570 -10.28404 -10.28394 -10.28382 -10.28282
 Alpha  occ. eigenvalues --  -10.28270 -10.27882 -10.27866 -10.27828 -10.27448
 Alpha  occ. eigenvalues --  -10.27190 -10.27108 -10.26919 -10.26863 -10.26674
 Alpha  occ. eigenvalues --  -10.26580 -10.26526 -10.26369 -10.26180 -10.26101
 Alpha  occ. eigenvalues --  -10.26098 -10.25959 -10.25886 -10.25873 -10.25525
 Alpha  occ. eigenvalues --  -10.25343 -10.25342 -10.25329 -10.25204 -10.24979
 Alpha  occ. eigenvalues --  -10.24919 -10.24914 -10.24890 -10.24677 -10.24627
 Alpha  occ. eigenvalues --  -10.24555 -10.24497 -10.24445 -10.24445 -10.24173
 Alpha  occ. eigenvalues --  -10.23671  -3.18081  -1.92995  -1.92531  -1.92374
 Alpha  occ. eigenvalues --   -1.18256  -1.15746  -1.10080  -1.10060  -1.09098
 Alpha  occ. eigenvalues --   -1.07526  -1.05579  -1.04164  -1.03931  -1.02683
 Alpha  occ. eigenvalues --   -0.93962  -0.90980  -0.89863  -0.89549  -0.89518
 Alpha  occ. eigenvalues --   -0.88472  -0.88260  -0.87968  -0.86947  -0.86736
 Alpha  occ. eigenvalues --   -0.86267  -0.85724  -0.85126  -0.84567  -0.83778
 Alpha  occ. eigenvalues --   -0.82966  -0.82457  -0.81551  -0.81237  -0.80844
 Alpha  occ. eigenvalues --   -0.79952  -0.78370  -0.77953  -0.77461  -0.76553
 Alpha  occ. eigenvalues --   -0.75710  -0.75402  -0.74996  -0.74811  -0.73794
 Alpha  occ. eigenvalues --   -0.73697  -0.72590  -0.72386  -0.70117  -0.69730
 Alpha  occ. eigenvalues --   -0.69296  -0.68402  -0.67839  -0.66915  -0.66297
 Alpha  occ. eigenvalues --   -0.66045  -0.65567  -0.65225  -0.64943  -0.64769
 Alpha  occ. eigenvalues --   -0.63473  -0.62959  -0.62732  -0.62602  -0.60568
 Alpha  occ. eigenvalues --   -0.60309  -0.59714  -0.59179  -0.59084  -0.58271
 Alpha  occ. eigenvalues --   -0.58070  -0.57560  -0.56424  -0.56192  -0.55904
 Alpha  occ. eigenvalues --   -0.55205  -0.55037  -0.54872  -0.54402  -0.54165
 Alpha  occ. eigenvalues --   -0.54031  -0.53504  -0.53461  -0.53039  -0.52769
 Alpha  occ. eigenvalues --   -0.52505  -0.52353  -0.52188  -0.52119  -0.51980
 Alpha  occ. eigenvalues --   -0.51850  -0.51547  -0.51358  -0.51069  -0.50747
 Alpha  occ. eigenvalues --   -0.50445  -0.50358  -0.50096  -0.50037  -0.49721
 Alpha  occ. eigenvalues --   -0.49586  -0.49400  -0.49184  -0.49040  -0.48983
 Alpha  occ. eigenvalues --   -0.48637  -0.48477  -0.48306  -0.47868  -0.47649
 Alpha  occ. eigenvalues --   -0.47516  -0.47453  -0.46953  -0.46940  -0.46796
 Alpha  occ. eigenvalues --   -0.46676  -0.46560  -0.46141  -0.46079  -0.45935
 Alpha  occ. eigenvalues --   -0.45807  -0.45567  -0.45425  -0.45399  -0.45090
 Alpha  occ. eigenvalues --   -0.45065  -0.45011  -0.44741  -0.44434  -0.44316
 Alpha  occ. eigenvalues --   -0.44182  -0.43863  -0.43686  -0.43526  -0.43390
 Alpha  occ. eigenvalues --   -0.42996  -0.42973  -0.42730  -0.42440  -0.42220
 Alpha  occ. eigenvalues --   -0.42207  -0.41985  -0.41962  -0.41705  -0.41500
 Alpha  occ. eigenvalues --   -0.41211  -0.41068  -0.40922  -0.40395  -0.40314
 Alpha  occ. eigenvalues --   -0.40075  -0.39841  -0.39438  -0.38715  -0.38421
 Alpha  occ. eigenvalues --   -0.38160  -0.38098  -0.37996  -0.37657  -0.37629
 Alpha  occ. eigenvalues --   -0.37448  -0.37388  -0.36827  -0.36261  -0.36047
 Alpha  occ. eigenvalues --   -0.35928  -0.35103  -0.34935  -0.34701  -0.34313
 Alpha  occ. eigenvalues --   -0.34202  -0.33676  -0.33387  -0.31894  -0.31262
 Alpha  occ. eigenvalues --   -0.30790  -0.30562  -0.29519  -0.29290  -0.24627
 Alpha  occ. eigenvalues --   -0.21621
 Alpha virt. eigenvalues --   -0.09255  -0.02347  -0.00223   0.02275   0.02455
 Alpha virt. eigenvalues --    0.04023   0.04634   0.05196   0.06011   0.06208
 Alpha virt. eigenvalues --    0.07637   0.08028   0.08333   0.08431   0.08681

 Mulliken charges:
               1
     1  Mg   0.803581
     2  C   -0.055648
     3  C   -0.077972
     4  C   -0.031621
     5  C   -0.113774
     6  N   -0.266527
     7  C   -0.026046
     8  C   -0.084281
     9  C   -0.055109
    10  C    0.064339
    11  C    0.083920
    12  C    0.103923
    13  C    0.023353
    14  C    0.158103
    15  O   -0.210029
    16  O   -0.301896
    17  N   -0.375618
    18  C    0.137152
    19  C   -0.161790
    20  C   -0.018868
    21  C    0.177992
    22  C    0.123982
    23  C   -0.043019
    24  O   -0.205060
    25  C    0.068090
    26  N   -0.281910
    27  C   -0.040125
    28  C   -0.032385
    29  C   -0.000395
    30  C    0.029978
    31  C    0.073868
    32  C   -0.008525
    33  C   -0.012551
    34  N   -0.343874
    35  C    0.184323
    36  C   -0.180382
    37  C    0.103496
    38  C    0.132223
    39  C    0.117893
    40  C   -0.022001
    41  O   -0.170635
    42  C   -0.003105
    43  C    0.227691
    44  O   -0.227678
    45  O   -0.357682
    46  C    0.176751
    47  C    0.263331
    48  C   -0.136100
    49  C   -0.186648
    50  C    0.083081
    51  C    0.087461
    52  C    0.025147
    53  C    0.045714
    54  C   -0.159080
    55  C    0.033221
    56  C    0.044045
    57  C    0.052193
    58  C    0.031950
    59  C   -0.147124
    60  C    0.047835
    61  C    0.062460
    62  C    0.027838
    63  C    0.015653
    64  C   -0.186438
    65  C    0.048828
    66  C    0.055475
    67  H   -0.024998
    68  H   -0.050666
    69  H   -0.029372
    70  H    0.023008
    71  H    0.017481
    72  H    0.028005
    73  H    0.012890
    74  H    0.015166
    75  H    0.000511
    76  H   -0.000204
    77  H    0.041246
    78  H    0.020287
    79  H    0.036953
    80  H    0.041956
    81  H    0.001946
    82  H    0.036708
    83  H    0.025033
    84  H    0.043604
    85  H    0.026341
    86  H   -0.001123
    87  H    0.020631
    88  H    0.031864
    89  H    0.017741
    90  H    0.019505
    91  H    0.006157
    92  H    0.003152
    93  H    0.024525
    94  H    0.019208
    95  H    0.024594
    96  H    0.016755
    97  H    0.038057
    98  H    0.052125
    99  H    0.039145
   100  H    0.051686
   101  H    0.021533
   102  H    0.042470
   103  H    0.031157
   104  H    0.001169
   105  H    0.035443
   106  H    0.004441
   107  H    0.021301
   108  H    0.004216
   109  H   -0.015167
   110  H    0.001242
   111  H   -0.005515
   112  H   -0.016791
   113  H   -0.001744
   114  H   -0.003049
   115  H    0.012866
   116  H    0.005063
   117  H    0.009249
   118  H    0.005342
   119  H   -0.003443
   120  H   -0.006374
   121  H    0.005740
   122  H   -0.018483
   123  H    0.000331
   124  H    0.005121
   125  H    0.012064
   126  H    0.020755
   127  H    0.005039
   128  H   -0.014161
   129  H    0.004640
   130  H    0.003679
   131  H   -0.013473
   132  H   -0.006526
   133  H   -0.002651
   134  H    0.006195
   135  H    0.006535
   136  H    0.006674
   137  H    0.002959
   138  H   -0.005181
   139  H    0.006490
   140  H    0.009934
 Sum of Mulliken charges =  -0.00000

 Dipole moment (field-independent basis, Debye):
    X=             -0.4116    Y=              2.9787    Z=              3.2933  Tot=              4.4596
 Quadrupole moment (field-independent basis, Debye-Ang):
   XX=           -405.7682   YY=           -422.9427   ZZ=           -397.6568
   XY=             38.8856   XZ=              6.3117   YZ=             23.1059

 Normal termination of Gaussian 16 at Fri Apr 29 05:01:38 2022.
