 Gaussian 16, Revision A.03,
 Gaussian 16:  ES64L-G16RevA.03 25-Dec-2016

 ---------------------------------
 #p PBE1PBE/Def2SVP td=(nstates=5)
 ---------------------------------

 ---------------------------------------------------
 step_1_chromophore_17 TDDFT with PBE1PBE functional
 ---------------------------------------------------
 Symbolic Z-matrix:
 Charge =  0 Multiplicity = 1

                         Standard orientation:
 ---------------------------------------------------------------------
 Center     Atomic      Atomic             Coordinates (Angstroms)
 Number     Number       Type             X           Y           Z
 ---------------------------------------------------------------------
      1         12           0        3.905836    1.343056   -0.522107
      2          6           0        4.142763   -2.109101   -0.525257
      3          6           0        1.235574    1.135482   -2.710798
      4          6           0        3.256990    4.593566    0.116658
      5          6           0        6.410207    1.307053    1.960729
      6          7           0        2.631219   -0.334079   -1.284244
      7          6           0        3.070407   -1.595795   -1.286770
      8          6           0        2.044847   -2.517137   -2.016866
      9          6           0        1.282611   -1.452465   -2.938774
     10          6           0        1.790769   -0.088078   -2.333900
     11          6           0        1.517685   -1.686301   -4.450584
     12          6           0        1.085821   -3.131031   -1.022473
     13          6           0        0.728997   -4.588420   -1.270068
     14          6           0       -0.712906   -5.168979   -1.015128
     15          8           0       -1.312286   -5.927220   -1.748368
     16          8           0       -1.131241   -4.671365    0.156761
     17          7           0        2.508613    2.711849   -1.378219
     18          6           0        1.462497    2.454046   -2.181923
     19          6           0        0.827949    3.698390   -2.473673
     20          6           0        1.505515    4.760606   -1.801747
     21          6           0        2.511380    4.066672   -0.988030
     22          6           0       -0.234775    3.807165   -3.503772
     23          6           0        1.055519    6.178266   -1.814405
     24          8           0        0.111131    6.515690   -2.508810
     25          6           0        1.790546    7.256585   -1.027293
     26          7           0        4.829274    2.814707    0.851940
     27          6           0        4.282562    4.060358    0.927558
     28          6           0        4.828584    4.805596    2.101902
     29          6           0        5.846235    3.719749    2.694089
     30          6           0        5.783043    2.527643    1.771771
     31          6           0        5.438395    6.179981    1.768290
     32          6           0        5.633388    3.324852    4.222386
     33          6           0        6.814572    3.377427    5.219712
     34          7           0        5.056579   -0.046845    0.490168
     35          6           0        6.060972    0.088692    1.396299
     36          6           0        6.782134   -1.102059    1.494130
     37          6           0        6.098685   -2.041784    0.735029
     38          6           0        5.021970   -1.374013    0.207633
     39          6           0        8.020812   -1.310964    2.413816
     40          6           0        6.066355   -3.357158    0.294343
     41          8           0        6.782593   -4.288854    0.643768
     42          6           0        4.726906   -3.562680   -0.564574
     43          6           0        5.007851   -3.876302   -1.919056
     44          8           0        5.386253   -3.163342   -2.851577
     45          8           0        4.752783   -5.237201   -2.057452
     46          6           0        4.941013   -5.903385   -3.334801
     47          6           0       -2.579773   -4.789353    0.288277
     48          6           0       -2.914305   -4.442481    1.719433
     49          6           0       -4.115641   -4.514585    2.325283
     50          6           0       -5.352357   -5.248128    1.875967
     51          6           0       -4.379097   -3.695799    3.528641
     52          6           0       -4.593319   -2.211359    3.230072
     53          6           0       -5.722620   -1.624994    4.153405
     54          6           0       -6.966255   -1.163862    3.343952
     55          6           0       -8.186168   -1.857656    4.048237
     56          6           0       -7.094337    0.449654    3.359289
     57          6           0       -8.059896    0.922988    2.256330
     58          6           0       -7.385335    1.654751    1.095689
     59          6           0       -7.726023    1.123514   -0.343467
     60          6           0       -6.923406   -0.177180   -0.807751
     61          6           0       -7.516403    2.328541   -1.303502
     62          6           0       -8.712434    2.510511   -2.241590
     63          6           0       -9.967484    2.944523   -1.434713
     64          6           0      -11.121518    1.820230   -1.573844
     65          6           0      -12.101779    2.116403   -2.763422
     66          6           0      -11.926284    1.797635   -0.280234
     67          1           0        0.499757    1.090640   -3.516129
     68          1           0        3.168475    5.637830    0.424972
     69          1           0        7.232216    1.425862    2.669852
     70          1           0        2.605834   -3.291471   -2.539392
     71          1           0        0.212541   -1.383582   -2.745758
     72          1           0        2.249849   -2.473518   -4.629298
     73          1           0        1.851213   -0.757542   -4.914573
     74          1           0        0.552970   -1.924261   -4.898100
     75          1           0        0.144063   -2.612314   -0.842092
     76          1           0        1.562143   -2.970554   -0.055294
     77          1           0        1.471648   -5.181154   -0.736262
     78          1           0        0.958549   -4.681249   -2.331558
     79          1           0        0.316487    4.150978   -4.378790
     80          1           0       -1.014032    4.507713   -3.203007
     81          1           0       -0.727135    2.857862   -3.715013
     82          1           0        1.442900    7.157205    0.001102
     83          1           0        1.371201    8.203298   -1.366983
     84          1           0        2.869475    7.149199   -1.138261
     85          1           0        3.923038    4.900497    2.700264
     86          1           0        6.863982    4.107426    2.739170
     87          1           0        4.723366    6.918299    2.132728
     88          1           0        5.645037    6.306798    0.705094
     89          1           0        6.354865    6.316259    2.341893
     90          1           0        5.267736    2.298816    4.260374
     91          1           0        4.907828    3.962793    4.727538
     92          1           0        7.190611    2.360964    5.104259
     93          1           0        6.446123    3.501001    6.237257
     94          1           0        7.704292    3.961880    4.985749
     95          1           0        7.676324   -1.374817    3.445184
     96          1           0        8.744021   -0.495570    2.437861
     97          1           0        8.538271   -2.237935    2.165159
     98          1           0        4.151416   -4.322099   -0.035016
     99          1           0        5.231935   -6.930508   -3.116773
    100          1           0        5.604170   -5.391586   -4.032720
    101          1           0        3.959394   -6.004125   -3.798024
    102          1           0       -3.049325   -5.756532    0.106989
    103          1           0       -3.140353   -4.086929   -0.328926
    104          1           0       -2.127840   -3.851986    2.189569
    105          1           0       -5.375246   -6.191971    2.422017
    106          1           0       -5.284439   -5.453395    0.807759
    107          1           0       -6.301055   -4.743361    2.059217
    108          1           0       -3.572703   -3.809458    4.252641
    109          1           0       -5.230754   -4.127310    4.053949
    110          1           0       -4.752450   -2.079220    2.159132
    111          1           0       -3.699882   -1.599893    3.358542
    112          1           0       -5.259590   -0.770366    4.646570
    113          1           0       -5.990300   -2.251764    5.004275
    114          1           0       -6.929425   -1.606525    2.349138
    115          1           0       -7.979901   -2.927860    4.011262
    116          1           0       -9.079832   -1.545990    3.508861
    117          1           0       -8.231103   -1.522891    5.084385
    118          1           0       -6.074771    0.795169    3.190833
    119          1           0       -7.467961    0.729635    4.344415
    120          1           0       -8.665868    1.669762    2.767818
    121          1           0       -8.638592    0.096830    1.843494
    122          1           0       -6.317564    1.446852    1.164392
    123          1           0       -7.439558    2.723989    1.299550
    124          1           0       -8.768263    0.807923   -0.362532
    125          1           0       -6.629619   -0.077000   -1.852746
    126          1           0       -7.524429   -1.058856   -0.586608
    127          1           0       -5.965944   -0.224888   -0.289630
    128          1           0       -6.635496    2.054044   -1.884920
    129          1           0       -7.413455    3.345709   -0.925894
    130          1           0       -8.906571    1.714952   -2.962352
    131          1           0       -8.553665    3.421956   -2.817602
    132          1           0      -10.377233    3.877596   -1.822401
    133          1           0       -9.811807    3.172036   -0.380770
    134          1           0      -10.724778    0.808017   -1.654448
    135          1           0      -11.656527    2.888180   -3.391450
    136          1           0      -13.111273    2.432557   -2.503518
    137          1           0      -12.281907    1.202208   -3.327582
    138          1           0      -11.481577    0.985959    0.294702
    139          1           0      -12.964528    1.553129   -0.504500
    140          1           0      -11.737300    2.699921    0.301122
 ---------------------------------------------------------------------

 SCF Done:  E(RPBE1PBE) =  -3005.33734191     A.U. after   15 cycles

 Excitation energies and oscillator strengths:

 Excited State   1:      Singlet-A      1.8604 eV  666.45 nm  f=0.3777  <S**2>=0.000
     245 -> 248       -0.17763
     246 -> 247        0.69237
     246 <- 247       -0.11007
 This state for optimization and/or second-order correction.
 Total Energy, E(TD-HF/TD-DFT) =  -3005.26897460
 Copying the excited state density for this state as the 1-particle RhoCI density.

 Excited State   2:      Singlet-A      2.2369 eV  554.27 nm  f=0.0967  <S**2>=0.000
     245 -> 247        0.64828
     246 -> 248        0.26551

 Excited State   3:      Singlet-A      2.8828 eV  430.08 nm  f=0.0053  <S**2>=0.000
     243 -> 247        0.68879

 Excited State   4:      Singlet-A      2.9630 eV  418.44 nm  f=0.0001  <S**2>=0.000
     241 -> 247       -0.22044
     242 -> 247        0.63106
     242 -> 249        0.10274
     242 -> 250        0.10009

 Excited State   5:      Singlet-A      2.9705 eV  417.38 nm  f=0.0017  <S**2>=0.000
     240 -> 247        0.24806
     240 -> 249       -0.10684
     241 -> 247        0.57825
     241 -> 249       -0.12433
     242 -> 247        0.24174

 The electronic state is 1-A.
 Alpha  occ. eigenvalues --  -46.93125 -19.27101 -19.25250 -19.20686 -19.20345
 Alpha  occ. eigenvalues --  -19.19553 -19.18667 -14.41946 -14.41564 -14.39531
 Alpha  occ. eigenvalues --  -14.38936 -10.36957 -10.36523 -10.32400 -10.31849
 Alpha  occ. eigenvalues --  -10.29597 -10.29333 -10.29217 -10.29104 -10.28930
 Alpha  occ. eigenvalues --  -10.28687 -10.28686 -10.27545 -10.27177 -10.26380
 Alpha  occ. eigenvalues --  -10.26262 -10.26207 -10.26179 -10.26099 -10.26073
 Alpha  occ. eigenvalues --  -10.26011 -10.25722 -10.25537 -10.25520 -10.25141
 Alpha  occ. eigenvalues --  -10.24683 -10.24664 -10.24521 -10.24433 -10.24413
 Alpha  occ. eigenvalues --  -10.24154 -10.23994 -10.23953 -10.23821 -10.23616
 Alpha  occ. eigenvalues --  -10.23547 -10.23415 -10.23408 -10.23322 -10.23226
 Alpha  occ. eigenvalues --  -10.22899 -10.22883 -10.22774 -10.22746 -10.22587
 Alpha  occ. eigenvalues --  -10.22490 -10.22458 -10.22450 -10.22285 -10.22119
 Alpha  occ. eigenvalues --  -10.22036 -10.22020 -10.22004 -10.21983 -10.21568
 Alpha  occ. eigenvalues --  -10.21051  -3.15034  -1.87887  -1.87403  -1.87249
 Alpha  occ. eigenvalues --   -1.13103  -1.10423  -1.04830  -1.04818  -1.03982
 Alpha  occ. eigenvalues --   -1.02260  -1.00254  -0.98780  -0.98543  -0.97374
 Alpha  occ. eigenvalues --   -0.88331  -0.85115  -0.84061  -0.83850  -0.83606
 Alpha  occ. eigenvalues --   -0.82750  -0.82349  -0.82309  -0.81298  -0.80847
 Alpha  occ. eigenvalues --   -0.80620  -0.79980  -0.79373  -0.78789  -0.77976
 Alpha  occ. eigenvalues --   -0.77216  -0.76666  -0.75876  -0.75444  -0.75078
 Alpha  occ. eigenvalues --   -0.74092  -0.72664  -0.72252  -0.71759  -0.70842
 Alpha  occ. eigenvalues --   -0.69930  -0.69695  -0.69071  -0.68939  -0.68162
 Alpha  occ. eigenvalues --   -0.67909  -0.66976  -0.66794  -0.64484  -0.64154
 Alpha  occ. eigenvalues --   -0.63694  -0.62627  -0.62278  -0.61131  -0.60685
 Alpha  occ. eigenvalues --   -0.60446  -0.60135  -0.59706  -0.59494  -0.58942
 Alpha  occ. eigenvalues --   -0.57575  -0.57249  -0.57102  -0.56817  -0.55113
 Alpha  occ. eigenvalues --   -0.54783  -0.54276  -0.53665  -0.53541  -0.52882
 Alpha  occ. eigenvalues --   -0.52680  -0.51893  -0.51002  -0.50678  -0.50449
 Alpha  occ. eigenvalues --   -0.49769  -0.49699  -0.49374  -0.48936  -0.48509
 Alpha  occ. eigenvalues --   -0.48432  -0.48190  -0.48000  -0.47472  -0.47262
 Alpha  occ. eigenvalues --   -0.47010  -0.46834  -0.46752  -0.46599  -0.46481
 Alpha  occ. eigenvalues --   -0.46374  -0.46143  -0.45925  -0.45575  -0.45279
 Alpha  occ. eigenvalues --   -0.45064  -0.44899  -0.44659  -0.44553  -0.44357
 Alpha  occ. eigenvalues --   -0.44107  -0.44006  -0.43832  -0.43724  -0.43501
 Alpha  occ. eigenvalues --   -0.43234  -0.43123  -0.42939  -0.42487  -0.42286
 Alpha  occ. eigenvalues --   -0.42152  -0.42060  -0.41652  -0.41605  -0.41567
 Alpha  occ. eigenvalues --   -0.41394  -0.41218  -0.40853  -0.40681  -0.40636
 Alpha  occ. eigenvalues --   -0.40493  -0.40336  -0.40155  -0.40036  -0.39833
 Alpha  occ. eigenvalues --   -0.39730  -0.39577  -0.39479  -0.39154  -0.39110
 Alpha  occ. eigenvalues --   -0.38955  -0.38542  -0.38503  -0.38351  -0.38225
 Alpha  occ. eigenvalues --   -0.37893  -0.37715  -0.37591  -0.37192  -0.37075
 Alpha  occ. eigenvalues --   -0.36967  -0.36827  -0.36786  -0.36521  -0.36407
 Alpha  occ. eigenvalues --   -0.35986  -0.35838  -0.35638  -0.35263  -0.35142
 Alpha  occ. eigenvalues --   -0.34815  -0.34739  -0.34190  -0.33480  -0.33341
 Alpha  occ. eigenvalues --   -0.33110  -0.32985  -0.32828  -0.32701  -0.32532
 Alpha  occ. eigenvalues --   -0.32418  -0.32203  -0.31621  -0.31126  -0.30950
 Alpha  occ. eigenvalues --   -0.30907  -0.30012  -0.29956  -0.29563  -0.29383
 Alpha  occ. eigenvalues --   -0.29250  -0.28962  -0.28350  -0.27493  -0.26464
 Alpha  occ. eigenvalues --   -0.25966  -0.25563  -0.25154  -0.24567  -0.21570
 Alpha  occ. eigenvalues --   -0.19275
 Alpha virt. eigenvalues --   -0.11709  -0.05827  -0.04439  -0.02155  -0.00449
 Alpha virt. eigenvalues --   -0.00258   0.00138   0.01043   0.01458   0.02490
 Alpha virt. eigenvalues --    0.03983   0.04414   0.04579   0.05132   0.05346

 Mulliken charges:
               1
     1  Mg   0.944031
     2  C   -0.061060
     3  C   -0.072556
     4  C   -0.030863
     5  C   -0.110745
     6  N   -0.362599
     7  C    0.042489
     8  C   -0.168151
     9  C   -0.125414
    10  C    0.094984
    11  C    0.027011
    12  C    0.066139
    13  C   -0.055168
    14  C    0.223610
    15  O   -0.244643
    16  O   -0.331519
    17  N   -0.486564
    18  C    0.171301
    19  C   -0.196421
    20  C   -0.058264
    21  C    0.203566
    22  C    0.064740
    23  C    0.008722
    24  O   -0.240532
    25  C   -0.011431
    26  N   -0.390537
    27  C    0.008760
    28  C   -0.115250
    29  C   -0.077583
    30  C    0.080222
    31  C    0.012802
    32  C   -0.067640
    33  C   -0.084712
    34  N   -0.470664
    35  C    0.200272
    36  C   -0.186921
    37  C    0.048379
    38  C    0.179021
    39  C    0.065174
    40  C    0.076928
    41  O   -0.215583
    42  C   -0.115726
    43  C    0.318089
    44  O   -0.263810
    45  O   -0.391162
    46  C    0.123839
    47  C    0.222998
    48  C   -0.142963
    49  C   -0.236576
    50  C    0.017743
    51  C    0.023706
    52  C   -0.033419
    53  C   -0.008051
    54  C   -0.242617
    55  C   -0.031679
    56  C   -0.010684
    57  C   -0.014965
    58  C   -0.015674
    59  C   -0.235482
    60  C   -0.010201
    61  C    0.004340
    62  C   -0.040098
    63  C   -0.036601
    64  C   -0.276995
    65  C   -0.009876
    66  C   -0.005520
    67  H    0.006609
    68  H   -0.015299
    69  H    0.004268
    70  H    0.065998
    71  H    0.053088
    72  H    0.054553
    73  H    0.040340
    74  H    0.042460
    75  H    0.032606
    76  H    0.034651
    77  H    0.074030
    78  H    0.053636
    79  H    0.066284
    80  H    0.069296
    81  H    0.029585
    82  H    0.064081
    83  H    0.053424
    84  H    0.069733
    85  H    0.063280
    86  H    0.037648
    87  H    0.047729
    88  H    0.059068
    89  H    0.046080
    90  H    0.053348
    91  H    0.038887
    92  H    0.031353
    93  H    0.052283
    94  H    0.045707
    95  H    0.052591
    96  H    0.042803
    97  H    0.065097
    98  H    0.087256
    99  H    0.060897
   100  H    0.071922
   101  H    0.043386
   102  H    0.068581
   103  H    0.058262
   104  H    0.030968
   105  H    0.064054
   106  H    0.032072
   107  H    0.049174
   108  H    0.037212
   109  H    0.017685
   110  H    0.033749
   111  H    0.026502
   112  H    0.016502
   113  H    0.028881
   114  H    0.036327
   115  H    0.042698
   116  H    0.033904
   117  H    0.037157
   118  H    0.037599
   119  H    0.028299
   120  H    0.027706
   121  H    0.037284
   122  H    0.015659
   123  H    0.030394
   124  H    0.049837
   125  H    0.038908
   126  H    0.046389
   127  H    0.032153
   128  H    0.019866
   129  H    0.035821
   130  H    0.035311
   131  H    0.021271
   132  H    0.026024
   133  H    0.029460
   134  H    0.041104
   135  H    0.033848
   136  H    0.032996
   137  H    0.030880
   138  H    0.023545
   139  H    0.034166
   140  H    0.037131
 Sum of Mulliken charges =  -0.00000

 Dipole moment (field-independent basis, Debye):
    X=             -0.4646    Y=              3.1069    Z=              3.3607  Tot=              4.6003
 Quadrupole moment (field-independent basis, Debye-Ang):
   XX=           -402.4410   YY=           -420.0411   ZZ=           -393.8165
   XY=             39.6545   XZ=              7.6560   YZ=             23.7847

 Normal termination of Gaussian 16 at Fri Apr 29 05:24:46 2022.
