 Gaussian 16, Revision A.03,
 Gaussian 16:  ES64L-G16RevA.03 25-Dec-2016

 --------------------------------
 #p wB97XD/Def2SVP td=(nstates=5)
 --------------------------------

 --------------------------------------------------
 step_1_chromophore_17 TDDFT with wB97XD functional
 --------------------------------------------------
 Symbolic Z-matrix:
 Charge =  0 Multiplicity = 1

                         Standard orientation:
 ---------------------------------------------------------------------
 Center     Atomic      Atomic             Coordinates (Angstroms)
 Number     Number       Type             X           Y           Z
 ---------------------------------------------------------------------
      1         12           0        3.905836    1.343056   -0.522107
      2          6           0        4.142763   -2.109101   -0.525257
      3          6           0        1.235574    1.135482   -2.710798
      4          6           0        3.256990    4.593566    0.116658
      5          6           0        6.410207    1.307053    1.960729
      6          7           0        2.631219   -0.334079   -1.284244
      7          6           0        3.070407   -1.595795   -1.286770
      8          6           0        2.044847   -2.517137   -2.016866
      9          6           0        1.282611   -1.452465   -2.938774
     10          6           0        1.790769   -0.088078   -2.333900
     11          6           0        1.517685   -1.686301   -4.450584
     12          6           0        1.085821   -3.131031   -1.022473
     13          6           0        0.728997   -4.588420   -1.270068
     14          6           0       -0.712906   -5.168979   -1.015128
     15          8           0       -1.312286   -5.927220   -1.748368
     16          8           0       -1.131241   -4.671365    0.156761
     17          7           0        2.508613    2.711849   -1.378219
     18          6           0        1.462497    2.454046   -2.181923
     19          6           0        0.827949    3.698390   -2.473673
     20          6           0        1.505515    4.760606   -1.801747
     21          6           0        2.511380    4.066672   -0.988030
     22          6           0       -0.234775    3.807165   -3.503772
     23          6           0        1.055519    6.178266   -1.814405
     24          8           0        0.111131    6.515690   -2.508810
     25          6           0        1.790546    7.256585   -1.027293
     26          7           0        4.829274    2.814707    0.851940
     27          6           0        4.282562    4.060358    0.927558
     28          6           0        4.828584    4.805596    2.101902
     29          6           0        5.846235    3.719749    2.694089
     30          6           0        5.783043    2.527643    1.771771
     31          6           0        5.438395    6.179981    1.768290
     32          6           0        5.633388    3.324852    4.222386
     33          6           0        6.814572    3.377427    5.219712
     34          7           0        5.056579   -0.046845    0.490168
     35          6           0        6.060972    0.088692    1.396299
     36          6           0        6.782134   -1.102059    1.494130
     37          6           0        6.098685   -2.041784    0.735029
     38          6           0        5.021970   -1.374013    0.207633
     39          6           0        8.020812   -1.310964    2.413816
     40          6           0        6.066355   -3.357158    0.294343
     41          8           0        6.782593   -4.288854    0.643768
     42          6           0        4.726906   -3.562680   -0.564574
     43          6           0        5.007851   -3.876302   -1.919056
     44          8           0        5.386253   -3.163342   -2.851577
     45          8           0        4.752783   -5.237201   -2.057452
     46          6           0        4.941013   -5.903385   -3.334801
     47          6           0       -2.579773   -4.789353    0.288277
     48          6           0       -2.914305   -4.442481    1.719433
     49          6           0       -4.115641   -4.514585    2.325283
     50          6           0       -5.352357   -5.248128    1.875967
     51          6           0       -4.379097   -3.695799    3.528641
     52          6           0       -4.593319   -2.211359    3.230072
     53          6           0       -5.722620   -1.624994    4.153405
     54          6           0       -6.966255   -1.163862    3.343952
     55          6           0       -8.186168   -1.857656    4.048237
     56          6           0       -7.094337    0.449654    3.359289
     57          6           0       -8.059896    0.922988    2.256330
     58          6           0       -7.385335    1.654751    1.095689
     59          6           0       -7.726023    1.123514   -0.343467
     60          6           0       -6.923406   -0.177180   -0.807751
     61          6           0       -7.516403    2.328541   -1.303502
     62          6           0       -8.712434    2.510511   -2.241590
     63          6           0       -9.967484    2.944523   -1.434713
     64          6           0      -11.121518    1.820230   -1.573844
     65          6           0      -12.101779    2.116403   -2.763422
     66          6           0      -11.926284    1.797635   -0.280234
     67          1           0        0.499757    1.090640   -3.516129
     68          1           0        3.168475    5.637830    0.424972
     69          1           0        7.232216    1.425862    2.669852
     70          1           0        2.605834   -3.291471   -2.539392
     71          1           0        0.212541   -1.383582   -2.745758
     72          1           0        2.249849   -2.473518   -4.629298
     73          1           0        1.851213   -0.757542   -4.914573
     74          1           0        0.552970   -1.924261   -4.898100
     75          1           0        0.144063   -2.612314   -0.842092
     76          1           0        1.562143   -2.970554   -0.055294
     77          1           0        1.471648   -5.181154   -0.736262
     78          1           0        0.958549   -4.681249   -2.331558
     79          1           0        0.316487    4.150978   -4.378790
     80          1           0       -1.014032    4.507713   -3.203007
     81          1           0       -0.727135    2.857862   -3.715013
     82          1           0        1.442900    7.157205    0.001102
     83          1           0        1.371201    8.203298   -1.366983
     84          1           0        2.869475    7.149199   -1.138261
     85          1           0        3.923038    4.900497    2.700264
     86          1           0        6.863982    4.107426    2.739170
     87          1           0        4.723366    6.918299    2.132728
     88          1           0        5.645037    6.306798    0.705094
     89          1           0        6.354865    6.316259    2.341893
     90          1           0        5.267736    2.298816    4.260374
     91          1           0        4.907828    3.962793    4.727538
     92          1           0        7.190611    2.360964    5.104259
     93          1           0        6.446123    3.501001    6.237257
     94          1           0        7.704292    3.961880    4.985749
     95          1           0        7.676324   -1.374817    3.445184
     96          1           0        8.744021   -0.495570    2.437861
     97          1           0        8.538271   -2.237935    2.165159
     98          1           0        4.151416   -4.322099   -0.035016
     99          1           0        5.231935   -6.930508   -3.116773
    100          1           0        5.604170   -5.391586   -4.032720
    101          1           0        3.959394   -6.004125   -3.798024
    102          1           0       -3.049325   -5.756532    0.106989
    103          1           0       -3.140353   -4.086929   -0.328926
    104          1           0       -2.127840   -3.851986    2.189569
    105          1           0       -5.375246   -6.191971    2.422017
    106          1           0       -5.284439   -5.453395    0.807759
    107          1           0       -6.301055   -4.743361    2.059217
    108          1           0       -3.572703   -3.809458    4.252641
    109          1           0       -5.230754   -4.127310    4.053949
    110          1           0       -4.752450   -2.079220    2.159132
    111          1           0       -3.699882   -1.599893    3.358542
    112          1           0       -5.259590   -0.770366    4.646570
    113          1           0       -5.990300   -2.251764    5.004275
    114          1           0       -6.929425   -1.606525    2.349138
    115          1           0       -7.979901   -2.927860    4.011262
    116          1           0       -9.079832   -1.545990    3.508861
    117          1           0       -8.231103   -1.522891    5.084385
    118          1           0       -6.074771    0.795169    3.190833
    119          1           0       -7.467961    0.729635    4.344415
    120          1           0       -8.665868    1.669762    2.767818
    121          1           0       -8.638592    0.096830    1.843494
    122          1           0       -6.317564    1.446852    1.164392
    123          1           0       -7.439558    2.723989    1.299550
    124          1           0       -8.768263    0.807923   -0.362532
    125          1           0       -6.629619   -0.077000   -1.852746
    126          1           0       -7.524429   -1.058856   -0.586608
    127          1           0       -5.965944   -0.224888   -0.289630
    128          1           0       -6.635496    2.054044   -1.884920
    129          1           0       -7.413455    3.345709   -0.925894
    130          1           0       -8.906571    1.714952   -2.962352
    131          1           0       -8.553665    3.421956   -2.817602
    132          1           0      -10.377233    3.877596   -1.822401
    133          1           0       -9.811807    3.172036   -0.380770
    134          1           0      -10.724778    0.808017   -1.654448
    135          1           0      -11.656527    2.888180   -3.391450
    136          1           0      -13.111273    2.432557   -2.503518
    137          1           0      -12.281907    1.202208   -3.327582
    138          1           0      -11.481577    0.985959    0.294702
    139          1           0      -12.964528    1.553129   -0.504500
    140          1           0      -11.737300    2.699921    0.301122
 ---------------------------------------------------------------------

 SCF Done:  E(RwB97XD) =  -3007.84757760     A.U. after   17 cycles

 Excitation energies and oscillator strengths:

 Excited State   1:      Singlet-A      1.6372 eV  757.28 nm  f=0.3901  <S**2>=0.000
     245 -> 248        0.19094
     246 -> 247        0.68257
     245 <- 248        0.11968
 This state for optimization and/or second-order correction.
 Total Energy, E(TD-HF/TD-DFT) =  -3007.78741025
 Copying the excited state density for this state as the 1-particle RhoCI density.

 Excited State   2:      Singlet-A      2.1725 eV  570.69 nm  f=0.0971  <S**2>=0.000
     245 -> 247        0.63457
     246 -> 248       -0.29659

 Excited State   3:      Singlet-A      3.2614 eV  380.16 nm  f=0.0049  <S**2>=0.000
     243 -> 247        0.67150
     246 -> 248        0.12908

 Excited State   4:      Singlet-A      3.4240 eV  362.10 nm  f=0.0552  <S**2>=0.000
     240 -> 247       -0.16700
     240 -> 249        0.18983
     241 -> 247       -0.38904
     241 -> 249        0.11795
     242 -> 247        0.39097
     246 -> 248        0.26208

 Excited State   5:      Singlet-A      3.4975 eV  354.49 nm  f=0.2912  <S**2>=0.000
     240 -> 247        0.42828
     240 -> 249       -0.21982
     245 -> 247        0.18710
     246 -> 248        0.42716

 The electronic state is 1-A.
 Alpha  occ. eigenvalues --  -46.96100 -19.31661 -19.29872 -19.25346 -19.25145
 Alpha  occ. eigenvalues --  -19.24370 -19.23438 -14.47002 -14.46680 -14.44490
 Alpha  occ. eigenvalues --  -14.43885 -10.43730 -10.43464 -10.39302 -10.38644
 Alpha  occ. eigenvalues --  -10.36091 -10.35639 -10.35516 -10.35453 -10.35226
 Alpha  occ. eigenvalues --  -10.35216 -10.34959 -10.33872 -10.33503 -10.32817
 Alpha  occ. eigenvalues --  -10.32559 -10.32541 -10.32457 -10.32414 -10.32346
 Alpha  occ. eigenvalues --  -10.32335 -10.31986 -10.31978 -10.31955 -10.31508
 Alpha  occ. eigenvalues --  -10.31143 -10.31089 -10.30804 -10.30790 -10.30773
 Alpha  occ. eigenvalues --  -10.30503 -10.30491 -10.30319 -10.30093 -10.29995
 Alpha  occ. eigenvalues --  -10.29977 -10.29876 -10.29784 -10.29718 -10.29479
 Alpha  occ. eigenvalues --  -10.29273 -10.29256 -10.29168 -10.29135 -10.28931
 Alpha  occ. eigenvalues --  -10.28897 -10.28833 -10.28820 -10.28622 -10.28475
 Alpha  occ. eigenvalues --  -10.28468 -10.28398 -10.28368 -10.28341 -10.27983
 Alpha  occ. eigenvalues --  -10.27466  -3.21889  -1.95486  -1.95001  -1.94847
 Alpha  occ. eigenvalues --   -1.20465  -1.17905  -1.12330  -1.12264  -1.11307
 Alpha  occ. eigenvalues --   -1.09714  -1.07631  -1.06168  -1.05940  -1.04737
 Alpha  occ. eigenvalues --   -0.95965  -0.92786  -0.91700  -0.91456  -0.91281
 Alpha  occ. eigenvalues --   -0.90330  -0.90020  -0.89906  -0.88915  -0.88504
 Alpha  occ. eigenvalues --   -0.88242  -0.87636  -0.87021  -0.86434  -0.85624
 Alpha  occ. eigenvalues --   -0.84855  -0.84342  -0.83514  -0.83116  -0.82738
 Alpha  occ. eigenvalues --   -0.81763  -0.80308  -0.79868  -0.79392  -0.78486
 Alpha  occ. eigenvalues --   -0.77577  -0.77326  -0.76768  -0.76623  -0.75736
 Alpha  occ. eigenvalues --   -0.75567  -0.74532  -0.74356  -0.72059  -0.71711
 Alpha  occ. eigenvalues --   -0.71234  -0.70266  -0.69828  -0.68769  -0.68217
 Alpha  occ. eigenvalues --   -0.67974  -0.67566  -0.67188  -0.66942  -0.66599
 Alpha  occ. eigenvalues --   -0.65263  -0.64766  -0.64730  -0.64437  -0.62549
 Alpha  occ. eigenvalues --   -0.62262  -0.61705  -0.61127  -0.61052  -0.60244
 Alpha  occ. eigenvalues --   -0.60074  -0.59415  -0.58401  -0.58136  -0.57860
 Alpha  occ. eigenvalues --   -0.57161  -0.57051  -0.56794  -0.56340  -0.55994
 Alpha  occ. eigenvalues --   -0.55880  -0.55473  -0.55380  -0.54912  -0.54687
 Alpha  occ. eigenvalues --   -0.54391  -0.54261  -0.54098  -0.54051  -0.53920
 Alpha  occ. eigenvalues --   -0.53781  -0.53482  -0.53267  -0.52926  -0.52623
 Alpha  occ. eigenvalues --   -0.52358  -0.52233  -0.52025  -0.51946  -0.51670
 Alpha  occ. eigenvalues --   -0.51444  -0.51336  -0.51109  -0.50974  -0.50838
 Alpha  occ. eigenvalues --   -0.50515  -0.50418  -0.50201  -0.49735  -0.49544
 Alpha  occ. eigenvalues --   -0.49413  -0.49346  -0.48896  -0.48860  -0.48727
 Alpha  occ. eigenvalues --   -0.48588  -0.48472  -0.48089  -0.47930  -0.47866
 Alpha  occ. eigenvalues --   -0.47737  -0.47521  -0.47352  -0.47273  -0.47065
 Alpha  occ. eigenvalues --   -0.46939  -0.46831  -0.46705  -0.46303  -0.46264
 Alpha  occ. eigenvalues --   -0.46105  -0.45722  -0.45625  -0.45452  -0.45360
 Alpha  occ. eigenvalues --   -0.44946  -0.44830  -0.44657  -0.44314  -0.44162
 Alpha  occ. eigenvalues --   -0.44064  -0.43976  -0.43913  -0.43598  -0.43383
 Alpha  occ. eigenvalues --   -0.43061  -0.42914  -0.42749  -0.42268  -0.42235
 Alpha  occ. eigenvalues --   -0.41914  -0.41738  -0.41260  -0.40542  -0.40372
 Alpha  occ. eigenvalues --   -0.40101  -0.39970  -0.39913  -0.39760  -0.39502
 Alpha  occ. eigenvalues --   -0.39385  -0.39217  -0.38642  -0.38262  -0.37889
 Alpha  occ. eigenvalues --   -0.37845  -0.36947  -0.36856  -0.36728  -0.36267
 Alpha  occ. eigenvalues --   -0.36148  -0.35783  -0.35220  -0.34098  -0.33323
 Alpha  occ. eigenvalues --   -0.32740  -0.32690  -0.31716  -0.31316  -0.26554
 Alpha  occ. eigenvalues --   -0.23422
 Alpha virt. eigenvalues --   -0.07619  -0.00446   0.01850   0.04386   0.05622
 Alpha virt. eigenvalues --    0.06190   0.06963   0.07753   0.08261   0.08871
 Alpha virt. eigenvalues --    0.10625   0.11170   0.11342   0.11850   0.12049

 Mulliken charges:
               1
     1  Mg   0.939311
     2  C   -0.065371
     3  C   -0.088417
     4  C   -0.039862
     5  C   -0.124096
     6  N   -0.332472
     7  C    0.015755
     8  C   -0.131889
     9  C   -0.101086
    10  C    0.082632
    11  C    0.036774
    12  C    0.069755
    13  C   -0.035015
    14  C    0.215902
    15  O   -0.242897
    16  O   -0.330883
    17  N   -0.455861
    18  C    0.158193
    19  C   -0.182451
    20  C   -0.057202
    21  C    0.198270
    22  C    0.076330
    23  C    0.004631
    24  O   -0.236059
    25  C    0.002922
    26  N   -0.353983
    27  C   -0.009344
    28  C   -0.086531
    29  C   -0.051298
    30  C    0.062248
    31  C    0.022961
    32  C   -0.053323
    33  C   -0.067793
    34  N   -0.434180
    35  C    0.194568
    36  C   -0.187278
    37  C    0.053928
    38  C    0.162442
    39  C    0.075199
    40  C    0.056489
    41  O   -0.206431
    42  C   -0.078100
    43  C    0.295246
    44  O   -0.257229
    45  O   -0.389002
    46  C    0.138677
    47  C    0.235581
    48  C   -0.154225
    49  C   -0.217263
    50  C    0.031078
    51  C    0.041679
    52  C   -0.017541
    53  C    0.005287
    54  C   -0.212744
    55  C   -0.013534
    56  C    0.006531
    57  C    0.003158
    58  C   -0.001072
    59  C   -0.199356
    60  C    0.002662
    61  C    0.020133
    62  C   -0.021080
    63  C   -0.021489
    64  C   -0.250321
    65  C    0.001456
    66  C    0.008968
    67  H    0.000054
    68  H   -0.030086
    69  H   -0.003422
    70  H    0.043987
    71  H    0.043085
    72  H    0.050042
    73  H    0.034012
    74  H    0.037413
    75  H    0.024710
    76  H    0.025075
    77  H    0.067942
    78  H    0.045222
    79  H    0.060987
    80  H    0.065427
    81  H    0.024087
    82  H    0.059154
    83  H    0.052034
    84  H    0.063796
    85  H    0.052841
    86  H    0.024258
    87  H    0.042311
    88  H    0.053262
    89  H    0.040536
    90  H    0.043558
    91  H    0.030812
    92  H    0.022421
    93  H    0.047986
    94  H    0.040281
    95  H    0.047570
    96  H    0.037951
    97  H    0.062510
    98  H    0.082795
    99  H    0.057403
   100  H    0.068720
   101  H    0.038794
   102  H    0.062670
   103  H    0.052915
   104  H    0.028086
   105  H    0.058685
   106  H    0.026257
   107  H    0.043308
   108  H    0.030670
   109  H    0.006642
   110  H    0.021507
   111  H    0.020323
   112  H    0.008367
   113  H    0.019995
   114  H    0.019825
   115  H    0.033951
   116  H    0.027422
   117  H    0.029577
   118  H    0.026440
   119  H    0.020795
   120  H    0.020647
   121  H    0.024208
   122  H    0.001249
   123  H    0.023871
   124  H    0.024512
   125  H    0.032822
   126  H    0.041908
   127  H    0.024835
   128  H    0.010937
   129  H    0.027290
   130  H    0.026888
   131  H    0.013583
   132  H    0.017880
   133  H    0.016987
   134  H    0.030626
   135  H    0.026845
   136  H    0.027138
   137  H    0.025458
   138  H    0.016676
   139  H    0.028210
   140  H    0.030380
 Sum of Mulliken charges =  -0.00000

 Dipole moment (field-independent basis, Debye):
    X=             -0.4137    Y=              3.0841    Z=              3.3139  Tot=              4.5458
 Quadrupole moment (field-independent basis, Debye-Ang):
   XX=           -401.6046   YY=           -419.1894   ZZ=           -393.7121
   XY=             39.0995   XZ=              7.0790   YZ=             23.5359

 Normal termination of Gaussian 16 at Fri Apr 29 05:57:06 2022.
