 Gaussian 16, Revision A.03,
 Gaussian 16:  ES64L-G16RevA.03 25-Dec-2016

 --------------------
 #p ZINDO=(nstates=5)
 --------------------

 ---------------------------
 step_1_chromophore_17 ZINDO
 ---------------------------
 Symbolic Z-matrix:
 Charge =  0 Multiplicity = 1

                         Standard orientation:
 ---------------------------------------------------------------------
 Center     Atomic      Atomic             Coordinates (Angstroms)
 Number     Number       Type             X           Y           Z
 ---------------------------------------------------------------------
      1         12           0        3.905836    1.343056   -0.522107
      2          6           0        4.142763   -2.109101   -0.525257
      3          6           0        1.235574    1.135482   -2.710798
      4          6           0        3.256990    4.593566    0.116658
      5          6           0        6.410207    1.307053    1.960729
      6          7           0        2.631219   -0.334079   -1.284244
      7          6           0        3.070407   -1.595795   -1.286770
      8          6           0        2.044847   -2.517137   -2.016866
      9          6           0        1.282611   -1.452465   -2.938774
     10          6           0        1.790769   -0.088078   -2.333900
     11          6           0        1.517685   -1.686301   -4.450584
     12          6           0        1.085821   -3.131031   -1.022473
     13          6           0        0.728997   -4.588420   -1.270068
     14          6           0       -0.712906   -5.168979   -1.015128
     15          8           0       -1.312286   -5.927220   -1.748368
     16          8           0       -1.131241   -4.671365    0.156761
     17          7           0        2.508613    2.711849   -1.378219
     18          6           0        1.462497    2.454046   -2.181923
     19          6           0        0.827949    3.698390   -2.473673
     20          6           0        1.505515    4.760606   -1.801747
     21          6           0        2.511380    4.066672   -0.988030
     22          6           0       -0.234775    3.807165   -3.503772
     23          6           0        1.055519    6.178266   -1.814405
     24          8           0        0.111131    6.515690   -2.508810
     25          6           0        1.790546    7.256585   -1.027293
     26          7           0        4.829274    2.814707    0.851940
     27          6           0        4.282562    4.060358    0.927558
     28          6           0        4.828584    4.805596    2.101902
     29          6           0        5.846235    3.719749    2.694089
     30          6           0        5.783043    2.527643    1.771771
     31          6           0        5.438395    6.179981    1.768290
     32          6           0        5.633388    3.324852    4.222386
     33          6           0        6.814572    3.377427    5.219712
     34          7           0        5.056579   -0.046845    0.490168
     35          6           0        6.060972    0.088692    1.396299
     36          6           0        6.782134   -1.102059    1.494130
     37          6           0        6.098685   -2.041784    0.735029
     38          6           0        5.021970   -1.374013    0.207633
     39          6           0        8.020812   -1.310964    2.413816
     40          6           0        6.066355   -3.357158    0.294343
     41          8           0        6.782593   -4.288854    0.643768
     42          6           0        4.726906   -3.562680   -0.564574
     43          6           0        5.007851   -3.876302   -1.919056
     44          8           0        5.386253   -3.163342   -2.851577
     45          8           0        4.752783   -5.237201   -2.057452
     46          6           0        4.941013   -5.903385   -3.334801
     47          6           0       -2.579773   -4.789353    0.288277
     48          6           0       -2.914305   -4.442481    1.719433
     49          6           0       -4.115641   -4.514585    2.325283
     50          6           0       -5.352357   -5.248128    1.875967
     51          6           0       -4.379097   -3.695799    3.528641
     52          6           0       -4.593319   -2.211359    3.230072
     53          6           0       -5.722620   -1.624994    4.153405
     54          6           0       -6.966255   -1.163862    3.343952
     55          6           0       -8.186168   -1.857656    4.048237
     56          6           0       -7.094337    0.449654    3.359289
     57          6           0       -8.059896    0.922988    2.256330
     58          6           0       -7.385335    1.654751    1.095689
     59          6           0       -7.726023    1.123514   -0.343467
     60          6           0       -6.923406   -0.177180   -0.807751
     61          6           0       -7.516403    2.328541   -1.303502
     62          6           0       -8.712434    2.510511   -2.241590
     63          6           0       -9.967484    2.944523   -1.434713
     64          6           0      -11.121518    1.820230   -1.573844
     65          6           0      -12.101779    2.116403   -2.763422
     66          6           0      -11.926284    1.797635   -0.280234
     67          1           0        0.499757    1.090640   -3.516129
     68          1           0        3.168475    5.637830    0.424972
     69          1           0        7.232216    1.425862    2.669852
     70          1           0        2.605834   -3.291471   -2.539392
     71          1           0        0.212541   -1.383582   -2.745758
     72          1           0        2.249849   -2.473518   -4.629298
     73          1           0        1.851213   -0.757542   -4.914573
     74          1           0        0.552970   -1.924261   -4.898100
     75          1           0        0.144063   -2.612314   -0.842092
     76          1           0        1.562143   -2.970554   -0.055294
     77          1           0        1.471648   -5.181154   -0.736262
     78          1           0        0.958549   -4.681249   -2.331558
     79          1           0        0.316487    4.150978   -4.378790
     80          1           0       -1.014032    4.507713   -3.203007
     81          1           0       -0.727135    2.857862   -3.715013
     82          1           0        1.442900    7.157205    0.001102
     83          1           0        1.371201    8.203298   -1.366983
     84          1           0        2.869475    7.149199   -1.138261
     85          1           0        3.923038    4.900497    2.700264
     86          1           0        6.863982    4.107426    2.739170
     87          1           0        4.723366    6.918299    2.132728
     88          1           0        5.645037    6.306798    0.705094
     89          1           0        6.354865    6.316259    2.341893
     90          1           0        5.267736    2.298816    4.260374
     91          1           0        4.907828    3.962793    4.727538
     92          1           0        7.190611    2.360964    5.104259
     93          1           0        6.446123    3.501001    6.237257
     94          1           0        7.704292    3.961880    4.985749
     95          1           0        7.676324   -1.374817    3.445184
     96          1           0        8.744021   -0.495570    2.437861
     97          1           0        8.538271   -2.237935    2.165159
     98          1           0        4.151416   -4.322099   -0.035016
     99          1           0        5.231935   -6.930508   -3.116773
    100          1           0        5.604170   -5.391586   -4.032720
    101          1           0        3.959394   -6.004125   -3.798024
    102          1           0       -3.049325   -5.756532    0.106989
    103          1           0       -3.140353   -4.086929   -0.328926
    104          1           0       -2.127840   -3.851986    2.189569
    105          1           0       -5.375246   -6.191971    2.422017
    106          1           0       -5.284439   -5.453395    0.807759
    107          1           0       -6.301055   -4.743361    2.059217
    108          1           0       -3.572703   -3.809458    4.252641
    109          1           0       -5.230754   -4.127310    4.053949
    110          1           0       -4.752450   -2.079220    2.159132
    111          1           0       -3.699882   -1.599893    3.358542
    112          1           0       -5.259590   -0.770366    4.646570
    113          1           0       -5.990300   -2.251764    5.004275
    114          1           0       -6.929425   -1.606525    2.349138
    115          1           0       -7.979901   -2.927860    4.011262
    116          1           0       -9.079832   -1.545990    3.508861
    117          1           0       -8.231103   -1.522891    5.084385
    118          1           0       -6.074771    0.795169    3.190833
    119          1           0       -7.467961    0.729635    4.344415
    120          1           0       -8.665868    1.669762    2.767818
    121          1           0       -8.638592    0.096830    1.843494
    122          1           0       -6.317564    1.446852    1.164392
    123          1           0       -7.439558    2.723989    1.299550
    124          1           0       -8.768263    0.807923   -0.362532
    125          1           0       -6.629619   -0.077000   -1.852746
    126          1           0       -7.524429   -1.058856   -0.586608
    127          1           0       -5.965944   -0.224888   -0.289630
    128          1           0       -6.635496    2.054044   -1.884920
    129          1           0       -7.413455    3.345709   -0.925894
    130          1           0       -8.906571    1.714952   -2.962352
    131          1           0       -8.553665    3.421956   -2.817602
    132          1           0      -10.377233    3.877596   -1.822401
    133          1           0       -9.811807    3.172036   -0.380770
    134          1           0      -10.724778    0.808017   -1.654448
    135          1           0      -11.656527    2.888180   -3.391450
    136          1           0      -13.111273    2.432557   -2.503518
    137          1           0      -12.281907    1.202208   -3.327582
    138          1           0      -11.481577    0.985959    0.294702
    139          1           0      -12.964528    1.553129   -0.504500
    140          1           0      -11.737300    2.699921    0.301122
 ---------------------------------------------------------------------

 SCF Done:  E(RZINDO/S) =  -474.480411029     A.U. after   19 cycles

 Excitation energies and oscillator strengths:

 Excited State   1:      Singlet-A      1.2365 eV 1002.70 nm  f=0.6180  <S**2>=0.000
     175 ->178         0.20060
     176 ->177         0.66044
 This state for optimization and/or second-order correction.
 Total Energy, E(CIS/TDA) =  -474.434970467
 Copying the excited state density for this state as the 1-particle RhoCI density.

 Excited State   2:      Singlet-A      1.9016 eV  651.99 nm  f=0.0415  <S**2>=0.000
     175 ->177         0.54684
     176 ->178        -0.42499

 Excited State   3:      Singlet-A      2.8871 eV  429.44 nm  f=0.0061  <S**2>=0.000
     168 ->177         0.11124
     168 ->179        -0.13687
     169 ->177         0.24674
     169 ->179        -0.29220
     169 ->180         0.14495
     169 ->186        -0.13650
     170 ->177        -0.20131
     170 ->179         0.21477
     170 ->180        -0.11742
     171 ->177        -0.16649
     171 ->179         0.11188
     176 ->179        -0.13503

 Excited State   4:      Singlet-A      2.9564 eV  419.38 nm  f=0.0705  <S**2>=0.000
     169 ->177         0.17637
     169 ->178        -0.10062
     169 ->179         0.16454
     169 ->180         0.21960
     169 ->186         0.12744
     170 ->177         0.21248
     170 ->178        -0.12738
     170 ->179         0.23643
     170 ->180         0.26968
     170 ->186         0.17825
     173 ->177         0.10044
     176 ->178         0.14011

 Excited State   5:      Singlet-A      2.9962 eV  413.80 nm  f=0.7725  <S**2>=0.000
     175 ->177         0.32418
     176 ->178         0.43728
     176 ->179         0.34586

 The electronic state is 1-A.
 Alpha  occ. eigenvalues --   -1.88401  -1.80992  -1.80478  -1.75120  -1.72489
 Alpha  occ. eigenvalues --   -1.72138  -1.65022  -1.61453  -1.60099  -1.59605
 Alpha  occ. eigenvalues --   -1.55099  -1.50160  -1.49856  -1.48223  -1.47103
 Alpha  occ. eigenvalues --   -1.46149  -1.43891  -1.41509  -1.39864  -1.38469
 Alpha  occ. eigenvalues --   -1.36468  -1.33050  -1.32586  -1.31448  -1.28731
 Alpha  occ. eigenvalues --   -1.27522  -1.27033  -1.23710  -1.22153  -1.19365
 Alpha  occ. eigenvalues --   -1.19261  -1.15562  -1.15210  -1.14174  -1.12458
 Alpha  occ. eigenvalues --   -1.12255  -1.09955  -1.09747  -1.05751  -1.04012
 Alpha  occ. eigenvalues --   -1.02599  -1.01261  -0.98570  -0.98057  -0.95526
 Alpha  occ. eigenvalues --   -0.95248  -0.94938  -0.94807  -0.93042  -0.92682
 Alpha  occ. eigenvalues --   -0.91787  -0.90996  -0.88761  -0.88448  -0.87475
 Alpha  occ. eigenvalues --   -0.86167  -0.85954  -0.84424  -0.82954  -0.80335
 Alpha  occ. eigenvalues --   -0.79391  -0.78810  -0.77718  -0.76868  -0.76469
 Alpha  occ. eigenvalues --   -0.76045  -0.75474  -0.74357  -0.73685  -0.73546
 Alpha  occ. eigenvalues --   -0.73231  -0.72340  -0.72102  -0.71382  -0.71129
 Alpha  occ. eigenvalues --   -0.69504  -0.69050  -0.68824  -0.68039  -0.67676
 Alpha  occ. eigenvalues --   -0.67518  -0.66638  -0.66473  -0.66308  -0.65550
 Alpha  occ. eigenvalues --   -0.65240  -0.64989  -0.64632  -0.63900  -0.63792
 Alpha  occ. eigenvalues --   -0.63610  -0.63386  -0.62780  -0.62350  -0.62287
 Alpha  occ. eigenvalues --   -0.62058  -0.61794  -0.61777  -0.61044  -0.60005
 Alpha  occ. eigenvalues --   -0.59820  -0.59013  -0.58693  -0.58486  -0.58352
 Alpha  occ. eigenvalues --   -0.58262  -0.57703  -0.57389  -0.56627  -0.56586
 Alpha  occ. eigenvalues --   -0.56266  -0.55952  -0.55709  -0.55524  -0.55352
 Alpha  occ. eigenvalues --   -0.54689  -0.54455  -0.54005  -0.53606  -0.53317
 Alpha  occ. eigenvalues --   -0.53138  -0.52589  -0.52460  -0.52379  -0.51935
 Alpha  occ. eigenvalues --   -0.51525  -0.51354  -0.51273  -0.50747  -0.50315
 Alpha  occ. eigenvalues --   -0.49949  -0.49766  -0.49459  -0.49166  -0.49077
 Alpha  occ. eigenvalues --   -0.48875  -0.48825  -0.48266  -0.48219  -0.47926
 Alpha  occ. eigenvalues --   -0.47734  -0.47063  -0.46778  -0.46753  -0.46691
 Alpha  occ. eigenvalues --   -0.46479  -0.46101  -0.45912  -0.45610  -0.45542
 Alpha  occ. eigenvalues --   -0.45304  -0.44682  -0.44617  -0.44425  -0.44204
 Alpha  occ. eigenvalues --   -0.43466  -0.42890  -0.42854  -0.42455  -0.42122
 Alpha  occ. eigenvalues --   -0.41871  -0.41623  -0.40898  -0.39336  -0.39084
 Alpha  occ. eigenvalues --   -0.38927  -0.37091  -0.35365  -0.35227  -0.35157
 Alpha  occ. eigenvalues --   -0.33288  -0.32857  -0.32470  -0.31511  -0.26967
 Alpha  occ. eigenvalues --   -0.22139
 Alpha virt. eigenvalues --   -0.08985  -0.02608  -0.00939   0.01195   0.01556
 Alpha virt. eigenvalues --    0.01824   0.02171   0.02676   0.04508   0.04670
 Alpha virt. eigenvalues --    0.06147   0.06947   0.07389   0.07725   0.07863

 Mulliken charges:
               1
     1  Mg   0.429332
     2  C   -0.060780
     3  C   -0.076969
     4  C   -0.084073
     5  C   -0.056969
     6  N   -0.275436
     7  C    0.150491
     8  C    0.004729
     9  C   -0.002389
    10  C    0.130677
    11  C   -0.049842
    12  C   -0.019111
    13  C   -0.006556
    14  C    0.472953
    15  O   -0.507799
    16  O   -0.250811
    17  N   -0.324325
    18  C    0.119584
    19  C    0.048647
    20  C   -0.056194
    21  C    0.111677
    22  C   -0.037945
    23  C    0.327359
    24  O   -0.527207
    25  C   -0.033206
    26  N   -0.273775
    27  C    0.133454
    28  C    0.003389
    29  C    0.003742
    30  C    0.117342
    31  C   -0.046520
    32  C   -0.035783
    33  C   -0.065298
    34  N   -0.340538
    35  C    0.109533
    36  C    0.035884
    37  C   -0.038521
    38  C    0.130596
    39  C   -0.045493
    40  C    0.334584
    41  O   -0.528519
    42  C    0.053496
    43  C    0.502065
    44  O   -0.539341
    45  O   -0.285664
    46  C    0.075199
    47  C    0.103978
    48  C   -0.106145
    49  C    0.000466
    50  C   -0.039742
    51  C   -0.014504
    52  C   -0.029043
    53  C   -0.041489
    54  C   -0.028512
    55  C   -0.061831
    56  C   -0.035558
    57  C   -0.038716
    58  C   -0.040865
    59  C   -0.012414
    60  C   -0.059430
    61  C   -0.033281
    62  C   -0.038417
    63  C   -0.038079
    64  C   -0.023302
    65  C   -0.059813
    66  C   -0.063428
    67  H    0.025570
    68  H    0.026462
    69  H    0.027860
    70  H    0.043208
    71  H    0.034342
    72  H    0.032155
    73  H    0.023177
    74  H    0.019739
    75  H    0.026244
    76  H    0.015676
    77  H    0.043421
    78  H    0.029689
    79  H    0.041899
    80  H    0.042781
    81  H    0.017102
    82  H    0.038355
    83  H    0.038597
    84  H    0.040159
    85  H    0.038782
    86  H    0.027579
    87  H    0.019171
    88  H    0.031011
    89  H    0.020721
    90  H    0.023060
    91  H    0.013869
    92  H    0.008643
    93  H    0.027010
    94  H    0.028820
    95  H    0.027394
    96  H    0.026039
    97  H    0.034217
    98  H    0.062681
    99  H    0.036704
   100  H    0.056725
   101  H    0.027455
   102  H    0.057415
   103  H    0.047350
   104  H    0.026269
   105  H    0.032191
   106  H    0.016527
   107  H    0.028262
   108  H    0.017606
   109  H    0.013520
   110  H    0.021283
   111  H    0.016752
   112  H    0.007762
   113  H    0.025126
   114  H    0.027168
   115  H    0.020119
   116  H    0.016622
   117  H    0.020803
   118  H    0.024169
   119  H    0.024558
   120  H    0.014877
   121  H    0.027911
   122  H    0.008741
   123  H    0.025974
   124  H    0.022404
   125  H    0.023994
   126  H    0.024705
   127  H    0.017594
   128  H    0.011600
   129  H    0.030039
   130  H    0.028449
   131  H    0.004327
   132  H    0.015716
   133  H    0.023681
   134  H    0.026552
   135  H    0.017870
   136  H    0.021425
   137  H    0.013923
   138  H    0.006471
   139  H    0.023475
   140  H    0.024904
 Sum of Mulliken charges =  -0.00000

 Dipole moment (field-independent basis, Debye):
    X=             -1.0617    Y=              4.2163    Z=              4.5627  Tot=              6.3026
 N-N= 4.479927499292D+03 E-N= 0.000000000000D+00  KE=-9.633717484226D+03
 Leave Link  601 at Fri Apr 29 06:11:11 2022, MaxMem=  6710886400 cpu:               3.2 elap:               0.2
 (Enter /sw/apps/gaussian-16.0/g16/l9999.exe)
 1\1\GINC-BP1-COMPUTE150\SP\RZINDO CIS\STO-3G\C55H74Mg1N4O6\OF15641\29-
 Apr-2022\0\\#p ZINDO=(nstates=5)\\step_1_chromophore_17 ZINDO\\0,1\Mg,
 0,29.464,59.145,41.038\C,0,26.578,57.389,40.289\C,0,31.349,56.531,39.7
 82\C,0,32.15,61.189,41.086\C,0,27.354,61.82,41.949\N,0,28.992,57.292,3
 9.871\C,0,27.772,56.748,39.893\C,0,27.779,55.389,39.127\C,0,29.329,54.
 997,39.218\C,0,29.967,56.344,39.732\C,0,29.581,53.727,40.066\C,0,27.37
 4,55.594,37.685\C,0,26.46,54.527,37.103\C,0,26.578,54.021,35.616\O,0,2

 Normal termination of Gaussian 16 at Fri Apr 29 06:11:11 2022.
