 Gaussian 16, Revision A.03,
 Gaussian 16:  ES64L-G16RevA.03 25-Dec-2016

 ------------------------------
 #p blyp/Def2SVP td=(nstates=5)
 ------------------------------

 --------------------------------------------------
 step_301_chromophore_18 TDDFT with blyp functional
 --------------------------------------------------
 Symbolic Z-matrix:
 Charge =  0 Multiplicity = 1

                         Standard orientation:
 ---------------------------------------------------------------------
 Center     Atomic      Atomic             Coordinates (Angstroms)
 Number     Number       Type             X           Y           Z
 ---------------------------------------------------------------------
      1         12           0       -5.273076    1.209425   -0.364130
      2          6           0       -4.586737   -2.304165   -0.289109
      3          6           0       -2.106978    1.809958   -0.693603
      4          6           0       -6.210337    4.371264   -0.077610
      5          6           0       -8.610794    0.299218    0.603431
      6          7           0       -3.537950   -0.144606   -0.450310
      7          6           0       -3.468162   -1.473867   -0.488317
      8          6           0       -1.982488   -1.946633   -0.475091
      9          6           0       -1.278248   -0.610607   -0.504668
     10          6           0       -2.319065    0.456047   -0.572272
     11          6           0       -0.379766   -0.328697    0.710199
     12          6           0       -1.651455   -2.813383   -1.722725
     13          6           0       -0.819919   -4.152146   -1.582319
     14          6           0       -0.047000   -4.220432   -0.240616
     15          8           0       -0.519100   -4.662607    0.871673
     16          8           0        1.258125   -3.841266   -0.449639
     17          7           0       -4.325746    2.892128   -0.533350
     18          6           0       -3.012593    2.950798   -0.641779
     19          6           0       -2.661658    4.324920   -0.733500
     20          6           0       -3.881000    5.064905   -0.545787
     21          6           0       -4.903901    4.103597   -0.392458
     22          6           0       -1.248807    4.717546   -0.916645
     23          6           0       -4.044015    6.604310   -0.458765
     24          8           0       -5.087719    7.199440   -0.283465
     25          6           0       -2.849581    7.541399   -0.599450
     26          7           0       -7.243621    2.245316    0.137904
     27          6           0       -7.313690    3.549681    0.167536
     28          6           0       -8.751480    4.066557    0.526281
     29          6           0       -9.535060    2.737570    0.781388
     30          6           0       -8.428128    1.666960    0.468241
     31          6           0       -8.699262    4.921641    1.841867
     32          6           0      -10.793069    2.639595   -0.120127
     33          6           0      -10.705137    2.055156   -1.499587
     34          7           0       -6.426924   -0.542790   -0.037270
     35          6           0       -7.710596   -0.720021    0.330759
     36          6           0       -8.086585   -2.099474    0.377917
     37          6           0       -6.874666   -2.745008    0.174526
     38          6           0       -5.871701   -1.790534   -0.027433
     39          6           0       -9.414056   -2.745302    0.686972
     40          6           0       -6.241891   -4.017918    0.185535
     41          8           0       -6.731879   -5.116196    0.320566
     42          6           0       -4.717226   -3.845270   -0.130241
     43          6           0       -3.957354   -4.499389    0.991786
     44          8           0       -3.630567   -4.040974    2.031491
     45          8           0       -3.837169   -5.874051    0.733515
     46          6           0       -3.322624   -6.674980    1.869933
     47          6           0        1.955754   -3.777195    0.838939
     48          6           0        3.354811   -3.121235    0.638617
     49          6           0        4.637496   -3.615302    0.466674
     50          6           0        5.005054   -5.156188    0.272033
     51          6           0        5.897880   -2.682188    0.514215
     52          6           0        6.613478   -2.400460   -0.782154
     53          6           0        7.519881   -1.130019   -0.689215
     54          6           0        8.873865   -1.191165   -1.420945
     55          6           0        8.859922   -1.525528   -2.926744
     56          6           0        9.757475    0.054442   -1.135346
     57          6           0       10.946692   -0.133649   -0.190503
     58          6           0       12.293208   -0.638787   -0.710745
     59          6           0       13.030912    0.687778   -1.228978
     60          6           0       13.465248    0.539524   -2.745249
     61          6           0       14.293942    0.776247   -0.351073
     62          6           0       14.166387    1.441271    1.013690
     63          6           0       14.961191    2.766713    1.208951
     64          6           0       14.400637    3.542218    2.430532
     65          6           0       13.304308    4.608440    2.115460
     66          6           0       15.623671    4.244136    3.118752
     67          1           0       -1.045776    2.065591   -0.736232
     68          1           0       -6.521254    5.404276    0.093242
     69          1           0       -9.671898    0.117146    0.784995
     70          1           0       -1.935088   -2.409655    0.509995
     71          1           0       -0.656233   -0.579940   -1.399350
     72          1           0       -0.911125    0.323272    1.403140
     73          1           0        0.542514    0.138197    0.364608
     74          1           0       -0.032396   -1.253977    1.169720
     75          1           0       -1.249650   -2.168525   -2.503360
     76          1           0       -2.552490   -3.201466   -2.197962
     77          1           0       -0.154437   -4.248144   -2.439966
     78          1           0       -1.543691   -4.967691   -1.588442
     79          1           0       -0.547112    3.958738   -1.263332
     80          1           0       -0.999761    5.163647    0.045494
     81          1           0       -1.208931    5.502205   -1.672092
     82          1           0       -2.604208    7.624512   -1.658801
     83          1           0       -1.975252    7.102833   -0.120266
     84          1           0       -2.926555    8.504951   -0.096234
     85          1           0       -9.079429    4.579597   -0.376983
     86          1           0       -9.806286    2.541048    1.819319
     87          1           0       -7.681544    5.078975    2.199247
     88          1           0       -9.312149    4.578709    2.676416
     89          1           0       -8.931271    5.939690    1.530183
     90          1           0      -11.025444    3.702774   -0.179705
     91          1           0      -11.595441    2.220298    0.485681
     92          1           0      -11.148865    1.073941   -1.329127
     93          1           0       -9.715959    1.771907   -1.859837
     94          1           0      -11.148477    2.760866   -2.201704
     95          1           0       -9.673352   -2.718623    1.745323
     96          1           0       -9.438581   -3.808337    0.447505
     97          1           0      -10.204574   -2.250099    0.122969
     98          1           0       -4.515513   -4.279624   -1.109884
     99          1           0       -4.049034   -6.668301    2.683368
    100          1           0       -2.364342   -6.323098    2.251589
    101          1           0       -3.247655   -7.674976    1.441321
    102          1           0        2.058017   -4.828114    1.110342
    103          1           0        1.427227   -3.242290    1.627817
    104          1           0        3.283741   -2.076921    0.941699
    105          1           0        5.849080   -5.436878    0.901665
    106          1           0        5.505859   -5.340601   -0.677882
    107          1           0        4.088363   -5.739439    0.354859
    108          1           0        6.622135   -3.278286    1.069425
    109          1           0        5.763931   -1.792669    1.129659
    110          1           0        5.904639   -2.191184   -1.583593
    111          1           0        7.239569   -3.281122   -0.921608
    112          1           0        7.524604   -0.682002    0.305239
    113          1           0        7.025802   -0.392146   -1.322738
    114          1           0        9.310878   -2.074624   -0.955004
    115          1           0        7.852619   -1.461333   -3.340229
    116          1           0        9.211735   -2.540318   -3.110382
    117          1           0        9.443109   -0.814891   -3.511973
    118          1           0        9.146920    0.904599   -0.832316
    119          1           0       10.307221    0.434540   -1.997188
    120          1           0       10.630501   -0.831323    0.585344
    121          1           0       11.005792    0.760072    0.431312
    122          1           0       12.032149   -1.327105   -1.514040
    123          1           0       12.748977   -1.254127    0.065127
    124          1           0       12.420949    1.576646   -1.070042
    125          1           0       12.847628    1.233907   -3.314388
    126          1           0       13.360766   -0.498370   -3.061187
    127          1           0       14.546460    0.592794   -2.871183
    128          1           0       15.048811    1.251072   -0.977905
    129          1           0       14.779554   -0.163795   -0.090009
    130          1           0       14.514943    0.652054    1.679207
    131          1           0       13.128362    1.443233    1.345209
    132          1           0       14.829452    3.338449    0.290027
    133          1           0       16.022812    2.529728    1.272423
    134          1           0       14.013774    2.850433    3.178939
    135          1           0       12.377965    4.145462    1.776646
    136          1           0       13.730523    5.256209    1.349477
    137          1           0       13.167564    5.278913    2.963362
    138          1           0       16.578002    4.317315    2.597371
    139          1           0       15.840882    3.731984    4.056387
    140          1           0       15.282310    5.277115    3.189833
 ---------------------------------------------------------------------

 SCF Done:  E(RB-LYP) =  -3007.34627804     A.U. after   20 cycles

 Excitation energies and oscillator strengths:

 Excited State   1:      Singlet-A      1.9103 eV  649.03 nm  f=0.3272  <S**2>=0.000
     245 -> 248       -0.19463
     246 -> 247        0.68300
     246 <- 247       -0.14428
 This state for optimization and/or second-order correction.
 Total Energy, E(TD-HF/TD-DFT) =  -3007.27607569
 Copying the excited state density for this state as the 1-particle RhoCI density.

 Excited State   2:      Singlet-A      1.9194 eV  645.96 nm  f=0.0037  <S**2>=0.000
     244 -> 247        0.70102

 Excited State   3:      Singlet-A      1.9505 eV  635.66 nm  f=0.0029  <S**2>=0.000
     243 -> 247        0.70452

 Excited State   4:      Singlet-A      2.1183 eV  585.29 nm  f=0.0842  <S**2>=0.000
     245 -> 247        0.64838
     246 -> 248        0.24690

 Excited State   5:      Singlet-A      2.6329 eV  470.91 nm  f=0.0007  <S**2>=0.000
     240 -> 247        0.59568
     241 -> 247       -0.19079
     242 -> 247        0.32190

 The electronic state is 1-A.
 Alpha  occ. eigenvalues --  -46.26637 -18.83452 -18.79377 -18.77537 -18.75811
 Alpha  occ. eigenvalues --  -18.75343 -18.75076 -14.02778 -14.02305 -14.00643
 Alpha  occ. eigenvalues --  -14.00540 -10.04956 -10.02448  -9.99857  -9.98804
 Alpha  occ. eigenvalues --   -9.98438  -9.96339  -9.96004  -9.95522  -9.95497
 Alpha  occ. eigenvalues --   -9.95402  -9.95376  -9.95206  -9.95058  -9.94861
 Alpha  occ. eigenvalues --   -9.94203  -9.94054  -9.93989  -9.93863  -9.93847
 Alpha  occ. eigenvalues --   -9.93600  -9.93501  -9.93240  -9.93219  -9.93197
 Alpha  occ. eigenvalues --   -9.93156  -9.93023  -9.92975  -9.92890  -9.92777
 Alpha  occ. eigenvalues --   -9.92689  -9.92411  -9.92355  -9.92278  -9.92276
 Alpha  occ. eigenvalues --   -9.92196  -9.92191  -9.92171  -9.92161  -9.91988
 Alpha  occ. eigenvalues --   -9.91945  -9.91800  -9.91659  -9.91498  -9.91395
 Alpha  occ. eigenvalues --   -9.91376  -9.91334  -9.91329  -9.91181  -9.91146
 Alpha  occ. eigenvalues --   -9.90987  -9.90598  -9.90597  -9.90529  -9.90307
 Alpha  occ. eigenvalues --   -9.90206  -2.91399  -1.71831  -1.71292  -1.71107
 Alpha  occ. eigenvalues --   -0.97913  -0.96412  -0.91851  -0.91524  -0.88318
 Alpha  occ. eigenvalues --   -0.88153  -0.87615  -0.86874  -0.86496  -0.85781
 Alpha  occ. eigenvalues --   -0.75198  -0.73611  -0.73004  -0.72666  -0.72511
 Alpha  occ. eigenvalues --   -0.71830  -0.71645  -0.71045  -0.70629  -0.70492
 Alpha  occ. eigenvalues --   -0.69944  -0.69358  -0.68301  -0.67412  -0.67261
 Alpha  occ. eigenvalues --   -0.66557  -0.65519  -0.64882  -0.64444  -0.64247
 Alpha  occ. eigenvalues --   -0.63891  -0.62638  -0.62340  -0.61417  -0.60606
 Alpha  occ. eigenvalues --   -0.60162  -0.59949  -0.59774  -0.59646  -0.59008
 Alpha  occ. eigenvalues --   -0.58597  -0.58053  -0.56653  -0.55836  -0.55042
 Alpha  occ. eigenvalues --   -0.54104  -0.53659  -0.52889  -0.52740  -0.51616
 Alpha  occ. eigenvalues --   -0.51241  -0.50790  -0.50703  -0.50415  -0.50131
 Alpha  occ. eigenvalues --   -0.50009  -0.49384  -0.49047  -0.47039  -0.46760
 Alpha  occ. eigenvalues --   -0.46660  -0.46050  -0.45928  -0.44809  -0.44017
 Alpha  occ. eigenvalues --   -0.43735  -0.43544  -0.42970  -0.42874  -0.42104
 Alpha  occ. eigenvalues --   -0.41977  -0.41710  -0.41531  -0.41365  -0.41057
 Alpha  occ. eigenvalues --   -0.40820  -0.40733  -0.40273  -0.40023  -0.39939
 Alpha  occ. eigenvalues --   -0.39830  -0.39807  -0.39191  -0.39090  -0.38986
 Alpha  occ. eigenvalues --   -0.38915  -0.38583  -0.38276  -0.38241  -0.38146
 Alpha  occ. eigenvalues --   -0.37879  -0.37644  -0.37529  -0.37292  -0.37150
 Alpha  occ. eigenvalues --   -0.36971  -0.36785  -0.36664  -0.36571  -0.36425
 Alpha  occ. eigenvalues --   -0.36248  -0.36157  -0.35731  -0.35551  -0.35442
 Alpha  occ. eigenvalues --   -0.35261  -0.35182  -0.34959  -0.34817  -0.34738
 Alpha  occ. eigenvalues --   -0.34474  -0.34369  -0.34041  -0.34020  -0.33853
 Alpha  occ. eigenvalues --   -0.33648  -0.33253  -0.33216  -0.32996  -0.32867
 Alpha  occ. eigenvalues --   -0.32778  -0.32648  -0.32585  -0.32485  -0.32307
 Alpha  occ. eigenvalues --   -0.32156  -0.31916  -0.31726  -0.31676  -0.31464
 Alpha  occ. eigenvalues --   -0.31386  -0.31245  -0.31135  -0.31058  -0.31010
 Alpha  occ. eigenvalues --   -0.30515  -0.30400  -0.30258  -0.30095  -0.29596
 Alpha  occ. eigenvalues --   -0.29524  -0.29470  -0.29433  -0.29235  -0.28841
 Alpha  occ. eigenvalues --   -0.28799  -0.28568  -0.28280  -0.28102  -0.27737
 Alpha  occ. eigenvalues --   -0.27712  -0.27229  -0.26941  -0.26908  -0.26486
 Alpha  occ. eigenvalues --   -0.26008  -0.25937  -0.25382  -0.25304  -0.24867
 Alpha  occ. eigenvalues --   -0.24723  -0.24257  -0.24050  -0.23121  -0.22825
 Alpha  occ. eigenvalues --   -0.22799  -0.22623  -0.22176  -0.21100  -0.20885
 Alpha  occ. eigenvalues --   -0.20674  -0.20413  -0.18241  -0.18172  -0.17163
 Alpha  occ. eigenvalues --   -0.15756
 Alpha virt. eigenvalues --   -0.11184  -0.06289  -0.05543  -0.04616  -0.03996
 Alpha virt. eigenvalues --   -0.03667  -0.01347  -0.00885  -0.00589   0.00467
 Alpha virt. eigenvalues --    0.01497   0.01821   0.02136   0.02412   0.02801

 Mulliken charges:
               1
     1  Mg   0.703136
     2  C   -0.023160
     3  C   -0.059137
     4  C   -0.054884
     5  C   -0.091671
     6  N   -0.196280
     7  C   -0.139876
     8  C    0.046735
     9  C    0.024339
    10  C    0.015079
    11  C    0.122610
    12  C    0.086903
    13  C    0.180790
    14  C    0.094286
    15  O   -0.246388
    16  O   -0.253997
    17  N   -0.323313
    18  C    0.124136
    19  C   -0.150948
    20  C    0.038199
    21  C    0.162072
    22  C    0.174403
    23  C   -0.067535
    24  O   -0.155432
    25  C    0.127006
    26  N   -0.140580
    27  C   -0.087872
    28  C    0.044336
    29  C    0.048620
    30  C   -0.076704
    31  C    0.114056
    32  C    0.048804
    33  C    0.104571
    34  N   -0.219091
    35  C    0.176314
    36  C   -0.197672
    37  C    0.151873
    38  C    0.063879
    39  C    0.180942
    40  C   -0.119917
    41  O   -0.113023
    42  C    0.094139
    43  C    0.129960
    44  O   -0.146074
    45  O   -0.304172
    46  C    0.223993
    47  C    0.278907
    48  C   -0.093009
    49  C   -0.105846
    50  C    0.122215
    51  C    0.094560
    52  C    0.110867
    53  C    0.068984
    54  C   -0.063032
    55  C    0.113442
    56  C    0.135327
    57  C    0.009187
    58  C    0.152098
    59  C   -0.075775
    60  C    0.126207
    61  C    0.094399
    62  C    0.043312
    63  C    0.139831
    64  C   -0.093840
    65  C    0.107305
    66  C    0.088734
    67  H   -0.077184
    68  H   -0.056653
    69  H   -0.074467
    70  H    0.018125
    71  H   -0.034027
    72  H    0.007430
    73  H   -0.014494
    74  H   -0.010782
    75  H   -0.024922
    76  H   -0.019713
    77  H   -0.005411
    78  H    0.000854
    79  H   -0.003529
    80  H    0.019286
    81  H   -0.009625
    82  H    0.015007
    83  H   -0.034503
    84  H   -0.002746
    85  H   -0.009590
    86  H   -0.024322
    87  H   -0.003129
    88  H    0.003068
    89  H   -0.006613
    90  H   -0.030333
    91  H   -0.027553
    92  H   -0.006218
    93  H    0.001010
    94  H    0.003676
    95  H    0.001790
    96  H    0.002391
    97  H   -0.008575
    98  H    0.003474
    99  H    0.005528
   100  H    0.026216
   101  H    0.004496
   102  H   -0.011932
   103  H    0.021480
   104  H   -0.033287
   105  H   -0.008315
   106  H   -0.003811
   107  H    0.005495
   108  H   -0.033873
   109  H   -0.024554
   110  H   -0.014772
   111  H   -0.026314
   112  H   -0.024383
   113  H   -0.041725
   114  H   -0.039579
   115  H   -0.027465
   116  H   -0.012826
   117  H   -0.012968
   118  H   -0.045246
   119  H   -0.050254
   120  H   -0.064375
   121  H   -0.042649
   122  H   -0.037887
   123  H   -0.023278
   124  H   -0.016646
   125  H    0.001353
   126  H   -0.029161
   127  H   -0.025995
   128  H   -0.052296
   129  H   -0.043140
   130  H   -0.050463
   131  H   -0.039512
   132  H   -0.033452
   133  H   -0.024670
   134  H   -0.030709
   135  H   -0.007534
   136  H   -0.019794
   137  H   -0.008805
   138  H   -0.017635
   139  H   -0.009084
   140  H   -0.035223
 Sum of Mulliken charges =  -0.00000

 Dipole moment (field-independent basis, Debye):
    X=              4.4348    Y=              1.5814    Z=             -1.9187  Tot=              5.0842
 Quadrupole moment (field-independent basis, Debye-Ang):
   XX=           -378.1632   YY=           -436.2057   ZZ=           -404.7023
   XY=            -24.6078   XZ=              3.2753   YZ=              5.9825

 Normal termination of Gaussian 16 at Fri Apr 29 13:12:12 2022.
