 Gaussian 16, Revision A.03,
 Gaussian 16:  ES64L-G16RevA.03 25-Dec-2016

 -----------------------------------
 #p cam-b3lyp/Def2SVP td=(nstates=5)
 -----------------------------------

 -------------------------------------------------------
 step_301_chromophore_18 TDDFT with cam-b3lyp functional
 -------------------------------------------------------
 Symbolic Z-matrix:
 Charge =  0 Multiplicity = 1

                         Standard orientation:
 ---------------------------------------------------------------------
 Center     Atomic      Atomic             Coordinates (Angstroms)
 Number     Number       Type             X           Y           Z
 ---------------------------------------------------------------------
      1         12           0       -5.273076    1.209425   -0.364130
      2          6           0       -4.586737   -2.304165   -0.289109
      3          6           0       -2.106978    1.809958   -0.693603
      4          6           0       -6.210337    4.371264   -0.077610
      5          6           0       -8.610794    0.299218    0.603431
      6          7           0       -3.537950   -0.144606   -0.450310
      7          6           0       -3.468162   -1.473867   -0.488317
      8          6           0       -1.982488   -1.946633   -0.475091
      9          6           0       -1.278248   -0.610607   -0.504668
     10          6           0       -2.319065    0.456047   -0.572272
     11          6           0       -0.379766   -0.328697    0.710199
     12          6           0       -1.651455   -2.813383   -1.722725
     13          6           0       -0.819919   -4.152146   -1.582319
     14          6           0       -0.047000   -4.220432   -0.240616
     15          8           0       -0.519100   -4.662607    0.871673
     16          8           0        1.258125   -3.841266   -0.449639
     17          7           0       -4.325746    2.892128   -0.533350
     18          6           0       -3.012593    2.950798   -0.641779
     19          6           0       -2.661658    4.324920   -0.733500
     20          6           0       -3.881000    5.064905   -0.545787
     21          6           0       -4.903901    4.103597   -0.392458
     22          6           0       -1.248807    4.717546   -0.916645
     23          6           0       -4.044015    6.604310   -0.458765
     24          8           0       -5.087719    7.199440   -0.283465
     25          6           0       -2.849581    7.541399   -0.599450
     26          7           0       -7.243621    2.245316    0.137904
     27          6           0       -7.313690    3.549681    0.167536
     28          6           0       -8.751480    4.066557    0.526281
     29          6           0       -9.535060    2.737570    0.781388
     30          6           0       -8.428128    1.666960    0.468241
     31          6           0       -8.699262    4.921641    1.841867
     32          6           0      -10.793069    2.639595   -0.120127
     33          6           0      -10.705137    2.055156   -1.499587
     34          7           0       -6.426924   -0.542790   -0.037270
     35          6           0       -7.710596   -0.720021    0.330759
     36          6           0       -8.086585   -2.099474    0.377917
     37          6           0       -6.874666   -2.745008    0.174526
     38          6           0       -5.871701   -1.790534   -0.027433
     39          6           0       -9.414056   -2.745302    0.686972
     40          6           0       -6.241891   -4.017918    0.185535
     41          8           0       -6.731879   -5.116196    0.320566
     42          6           0       -4.717226   -3.845270   -0.130241
     43          6           0       -3.957354   -4.499389    0.991786
     44          8           0       -3.630567   -4.040974    2.031491
     45          8           0       -3.837169   -5.874051    0.733515
     46          6           0       -3.322624   -6.674980    1.869933
     47          6           0        1.955754   -3.777195    0.838939
     48          6           0        3.354811   -3.121235    0.638617
     49          6           0        4.637496   -3.615302    0.466674
     50          6           0        5.005054   -5.156188    0.272033
     51          6           0        5.897880   -2.682188    0.514215
     52          6           0        6.613478   -2.400460   -0.782154
     53          6           0        7.519881   -1.130019   -0.689215
     54          6           0        8.873865   -1.191165   -1.420945
     55          6           0        8.859922   -1.525528   -2.926744
     56          6           0        9.757475    0.054442   -1.135346
     57          6           0       10.946692   -0.133649   -0.190503
     58          6           0       12.293208   -0.638787   -0.710745
     59          6           0       13.030912    0.687778   -1.228978
     60          6           0       13.465248    0.539524   -2.745249
     61          6           0       14.293942    0.776247   -0.351073
     62          6           0       14.166387    1.441271    1.013690
     63          6           0       14.961191    2.766713    1.208951
     64          6           0       14.400637    3.542218    2.430532
     65          6           0       13.304308    4.608440    2.115460
     66          6           0       15.623671    4.244136    3.118752
     67          1           0       -1.045776    2.065591   -0.736232
     68          1           0       -6.521254    5.404276    0.093242
     69          1           0       -9.671898    0.117146    0.784995
     70          1           0       -1.935088   -2.409655    0.509995
     71          1           0       -0.656233   -0.579940   -1.399350
     72          1           0       -0.911125    0.323272    1.403140
     73          1           0        0.542514    0.138197    0.364608
     74          1           0       -0.032396   -1.253977    1.169720
     75          1           0       -1.249650   -2.168525   -2.503360
     76          1           0       -2.552490   -3.201466   -2.197962
     77          1           0       -0.154437   -4.248144   -2.439966
     78          1           0       -1.543691   -4.967691   -1.588442
     79          1           0       -0.547112    3.958738   -1.263332
     80          1           0       -0.999761    5.163647    0.045494
     81          1           0       -1.208931    5.502205   -1.672092
     82          1           0       -2.604208    7.624512   -1.658801
     83          1           0       -1.975252    7.102833   -0.120266
     84          1           0       -2.926555    8.504951   -0.096234
     85          1           0       -9.079429    4.579597   -0.376983
     86          1           0       -9.806286    2.541048    1.819319
     87          1           0       -7.681544    5.078975    2.199247
     88          1           0       -9.312149    4.578709    2.676416
     89          1           0       -8.931271    5.939690    1.530183
     90          1           0      -11.025444    3.702774   -0.179705
     91          1           0      -11.595441    2.220298    0.485681
     92          1           0      -11.148865    1.073941   -1.329127
     93          1           0       -9.715959    1.771907   -1.859837
     94          1           0      -11.148477    2.760866   -2.201704
     95          1           0       -9.673352   -2.718623    1.745323
     96          1           0       -9.438581   -3.808337    0.447505
     97          1           0      -10.204574   -2.250099    0.122969
     98          1           0       -4.515513   -4.279624   -1.109884
     99          1           0       -4.049034   -6.668301    2.683368
    100          1           0       -2.364342   -6.323098    2.251589
    101          1           0       -3.247655   -7.674976    1.441321
    102          1           0        2.058017   -4.828114    1.110342
    103          1           0        1.427227   -3.242290    1.627817
    104          1           0        3.283741   -2.076921    0.941699
    105          1           0        5.849080   -5.436878    0.901665
    106          1           0        5.505859   -5.340601   -0.677882
    107          1           0        4.088363   -5.739439    0.354859
    108          1           0        6.622135   -3.278286    1.069425
    109          1           0        5.763931   -1.792669    1.129659
    110          1           0        5.904639   -2.191184   -1.583593
    111          1           0        7.239569   -3.281122   -0.921608
    112          1           0        7.524604   -0.682002    0.305239
    113          1           0        7.025802   -0.392146   -1.322738
    114          1           0        9.310878   -2.074624   -0.955004
    115          1           0        7.852619   -1.461333   -3.340229
    116          1           0        9.211735   -2.540318   -3.110382
    117          1           0        9.443109   -0.814891   -3.511973
    118          1           0        9.146920    0.904599   -0.832316
    119          1           0       10.307221    0.434540   -1.997188
    120          1           0       10.630501   -0.831323    0.585344
    121          1           0       11.005792    0.760072    0.431312
    122          1           0       12.032149   -1.327105   -1.514040
    123          1           0       12.748977   -1.254127    0.065127
    124          1           0       12.420949    1.576646   -1.070042
    125          1           0       12.847628    1.233907   -3.314388
    126          1           0       13.360766   -0.498370   -3.061187
    127          1           0       14.546460    0.592794   -2.871183
    128          1           0       15.048811    1.251072   -0.977905
    129          1           0       14.779554   -0.163795   -0.090009
    130          1           0       14.514943    0.652054    1.679207
    131          1           0       13.128362    1.443233    1.345209
    132          1           0       14.829452    3.338449    0.290027
    133          1           0       16.022812    2.529728    1.272423
    134          1           0       14.013774    2.850433    3.178939
    135          1           0       12.377965    4.145462    1.776646
    136          1           0       13.730523    5.256209    1.349477
    137          1           0       13.167564    5.278913    2.963362
    138          1           0       16.578002    4.317315    2.597371
    139          1           0       15.840882    3.731984    4.056387
    140          1           0       15.282310    5.277115    3.189833
 ---------------------------------------------------------------------

 SCF Done:  E(RCAM-B3LYP) =  -3007.14698690     A.U. after   18 cycles

 Excitation energies and oscillator strengths:

 Excited State   1:      Singlet-A      1.7967 eV  690.06 nm  f=0.4081  <S**2>=0.000
     245 -> 248       -0.18568
     246 -> 247        0.68331
     245 <- 248       -0.10784
 This state for optimization and/or second-order correction.
 Total Energy, E(TD-HF/TD-DFT) =  -3007.08095870
 Copying the excited state density for this state as the 1-particle RhoCI density.

 Excited State   2:      Singlet-A      2.3251 eV  533.25 nm  f=0.1310  <S**2>=0.000
     245 -> 247        0.64255
     246 -> 248        0.28327

 Excited State   3:      Singlet-A      3.4626 eV  358.06 nm  f=0.0003  <S**2>=0.000
     241 -> 247        0.53658
     241 -> 249       -0.28832
     241 -> 250       -0.10420
     241 -> 251       -0.13990
     242 -> 247        0.10955
     243 -> 247        0.22369

 Excited State   4:      Singlet-A      3.5431 eV  349.93 nm  f=0.0009  <S**2>=0.000
     241 -> 247        0.17125
     243 -> 247       -0.33126
     244 -> 247        0.57614

 Excited State   5:      Singlet-A      3.6387 eV  340.73 nm  f=0.1333  <S**2>=0.000
     241 -> 247       -0.13528
     243 -> 247        0.45477
     244 -> 247        0.34543
     245 -> 247        0.10708
     246 -> 248       -0.35813

 The electronic state is 1-A.
 Alpha  occ. eigenvalues --  -46.88165 -19.26400 -19.22217 -19.20514 -19.19007
 Alpha  occ. eigenvalues --  -19.18491 -19.18323 -14.41489 -14.41248 -14.39003
 Alpha  occ. eigenvalues --  -14.38976 -10.40467 -10.37926 -10.34993 -10.34125
 Alpha  occ. eigenvalues --  -10.32615 -10.30982 -10.30335 -10.29946 -10.29685
 Alpha  occ. eigenvalues --  -10.29535 -10.29499 -10.29426 -10.29172 -10.29153
 Alpha  occ. eigenvalues --  -10.28526 -10.28300 -10.28275 -10.28021 -10.27825
 Alpha  occ. eigenvalues --  -10.27689 -10.27674 -10.27497 -10.27495 -10.27396
 Alpha  occ. eigenvalues --  -10.27006 -10.26988 -10.26958 -10.26852 -10.26613
 Alpha  occ. eigenvalues --  -10.26521 -10.26445 -10.26186 -10.26158 -10.26035
 Alpha  occ. eigenvalues --  -10.25991 -10.25939 -10.25919 -10.25917 -10.25824
 Alpha  occ. eigenvalues --  -10.25646 -10.25509 -10.25509 -10.25485 -10.25232
 Alpha  occ. eigenvalues --  -10.25070 -10.24996 -10.24941 -10.24847 -10.24744
 Alpha  occ. eigenvalues --  -10.24614 -10.24348 -10.24249 -10.24236 -10.24121
 Alpha  occ. eigenvalues --  -10.23949  -3.16838  -1.91742  -1.91284  -1.91158
 Alpha  occ. eigenvalues --   -1.16316  -1.15070  -1.10228  -1.10013  -1.06165
 Alpha  occ. eigenvalues --   -1.05972  -1.05299  -1.04571  -1.04223  -1.03409
 Alpha  occ. eigenvalues --   -0.92391  -0.90447  -0.89806  -0.89434  -0.89256
 Alpha  occ. eigenvalues --   -0.88466  -0.88312  -0.87665  -0.87186  -0.87075
 Alpha  occ. eigenvalues --   -0.86547  -0.85763  -0.84585  -0.83599  -0.83451
 Alpha  occ. eigenvalues --   -0.82619  -0.81572  -0.80778  -0.80486  -0.80027
 Alpha  occ. eigenvalues --   -0.79716  -0.78370  -0.77957  -0.76885  -0.75934
 Alpha  occ. eigenvalues --   -0.75471  -0.75267  -0.75068  -0.74923  -0.74228
 Alpha  occ. eigenvalues --   -0.73681  -0.73131  -0.71552  -0.70682  -0.69721
 Alpha  occ. eigenvalues --   -0.68793  -0.68206  -0.67316  -0.67169  -0.65783
 Alpha  occ. eigenvalues --   -0.65337  -0.64909  -0.64833  -0.64399  -0.64177
 Alpha  occ. eigenvalues --   -0.63899  -0.63356  -0.62929  -0.60741  -0.60394
 Alpha  occ. eigenvalues --   -0.60293  -0.59675  -0.59397  -0.58241  -0.57707
 Alpha  occ. eigenvalues --   -0.57075  -0.56775  -0.56266  -0.56023  -0.55289
 Alpha  occ. eigenvalues --   -0.54940  -0.54731  -0.54592  -0.54314  -0.53781
 Alpha  occ. eigenvalues --   -0.53651  -0.53320  -0.52938  -0.52682  -0.52571
 Alpha  occ. eigenvalues --   -0.52527  -0.52478  -0.52374  -0.51850  -0.51511
 Alpha  occ. eigenvalues --   -0.51401  -0.51301  -0.51070  -0.50974  -0.50545
 Alpha  occ. eigenvalues --   -0.50448  -0.50208  -0.49786  -0.49611  -0.49342
 Alpha  occ. eigenvalues --   -0.49264  -0.49131  -0.48919  -0.48713  -0.48642
 Alpha  occ. eigenvalues --   -0.48590  -0.48329  -0.48220  -0.47826  -0.47509
 Alpha  occ. eigenvalues --   -0.47457  -0.47275  -0.46889  -0.46774  -0.46730
 Alpha  occ. eigenvalues --   -0.46413  -0.46132  -0.45907  -0.45729  -0.45569
 Alpha  occ. eigenvalues --   -0.45444  -0.45307  -0.45075  -0.44748  -0.44696
 Alpha  occ. eigenvalues --   -0.44530  -0.44428  -0.44225  -0.44039  -0.43892
 Alpha  occ. eigenvalues --   -0.43684  -0.43542  -0.43375  -0.43249  -0.43174
 Alpha  occ. eigenvalues --   -0.43001  -0.42824  -0.42733  -0.42627  -0.42527
 Alpha  occ. eigenvalues --   -0.41843  -0.41776  -0.41632  -0.41279  -0.40933
 Alpha  occ. eigenvalues --   -0.40763  -0.40605  -0.40520  -0.40499  -0.40368
 Alpha  occ. eigenvalues --   -0.40153  -0.39857  -0.39214  -0.39177  -0.38781
 Alpha  occ. eigenvalues --   -0.38596  -0.38068  -0.37841  -0.37651  -0.37385
 Alpha  occ. eigenvalues --   -0.37094  -0.36669  -0.36577  -0.35952  -0.35886
 Alpha  occ. eigenvalues --   -0.35273  -0.34787  -0.34729  -0.34535  -0.33754
 Alpha  occ. eigenvalues --   -0.33695  -0.33173  -0.33119  -0.31269  -0.30879
 Alpha  occ. eigenvalues --   -0.30307  -0.30279  -0.30123  -0.29763  -0.23860
 Alpha  occ. eigenvalues --   -0.21111
 Alpha virt. eigenvalues --   -0.08285  -0.01079   0.01076   0.03046   0.03101
 Alpha virt. eigenvalues --    0.03484   0.03786   0.05609   0.06758   0.07159
 Alpha virt. eigenvalues --    0.07852   0.08392   0.08786   0.08912   0.09033

 Mulliken charges:
               1
     1  Mg   0.838066
     2  C   -0.051650
     3  C   -0.073388
     4  C   -0.069034
     5  C   -0.091606
     6  N   -0.273450
     7  C   -0.077044
     8  C   -0.025250
     9  C   -0.028848
    10  C    0.032202
    11  C    0.070320
    12  C    0.040359
    13  C    0.114758
    14  C    0.167239
    15  O   -0.289906
    16  O   -0.314585
    17  N   -0.419877
    18  C    0.137038
    19  C   -0.161366
    20  C   -0.030753
    21  C    0.180461
    22  C    0.112498
    23  C    0.010998
    24  O   -0.196769
    25  C    0.051712
    26  N   -0.208150
    27  C   -0.065140
    28  C   -0.013730
    29  C    0.001039
    30  C   -0.062612
    31  C    0.053826
    32  C   -0.005350
    33  C    0.038354
    34  N   -0.309324
    35  C    0.177130
    36  C   -0.184478
    37  C    0.061975
    38  C    0.100558
    39  C    0.128481
    40  C   -0.019723
    41  O   -0.150219
    42  C    0.026864
    43  C    0.210626
    44  O   -0.179516
    45  O   -0.366999
    46  C    0.185189
    47  C    0.245441
    48  C   -0.111978
    49  C   -0.126949
    50  C    0.065874
    51  C    0.037063
    52  C    0.056429
    53  C    0.019068
    54  C   -0.117938
    55  C    0.053331
    56  C    0.082555
    57  C   -0.043277
    58  C    0.098752
    59  C   -0.135828
    60  C    0.067525
    61  C    0.039836
    62  C   -0.005288
    63  C    0.084866
    64  C   -0.155379
    65  C    0.049424
    66  C    0.029463
    67  H   -0.042870
    68  H   -0.014302
    69  H   -0.038025
    70  H    0.053328
    71  H    0.002936
    72  H    0.034472
    73  H    0.009341
    74  H    0.007504
    75  H    0.007350
    76  H    0.010753
    77  H    0.030928
    78  H    0.032831
    79  H    0.024688
    80  H    0.043402
    81  H    0.016102
    82  H    0.041179
    83  H   -0.006388
    84  H    0.030484
    85  H    0.024576
    86  H    0.011648
    87  H    0.023324
    88  H    0.027117
    89  H    0.017879
    90  H   -0.001001
    91  H    0.001543
    92  H    0.015241
    93  H    0.025349
    94  H    0.028183
    95  H    0.029604
    96  H    0.032445
    97  H    0.015528
    98  H    0.043965
    99  H    0.028190
   100  H    0.048965
   101  H    0.027935
   102  H    0.018538
   103  H    0.047667
   104  H   -0.004598
   105  H    0.015754
   106  H    0.019923
   107  H    0.028283
   108  H   -0.005350
   109  H    0.005286
   110  H    0.013277
   111  H   -0.000875
   112  H    0.003797
   113  H   -0.013323
   114  H   -0.009625
   115  H   -0.003147
   116  H    0.011366
   117  H    0.011712
   118  H   -0.014139
   119  H   -0.023589
   120  H   -0.034429
   121  H   -0.014593
   122  H   -0.010670
   123  H    0.005469
   124  H    0.012931
   125  H    0.023880
   126  H   -0.004287
   127  H   -0.000010
   128  H   -0.022583
   129  H   -0.012769
   130  H   -0.020669
   131  H   -0.014802
   132  H   -0.006123
   133  H    0.004414
   134  H    0.000746
   135  H    0.015091
   136  H    0.003091
   137  H    0.015234
   138  H    0.006664
   139  H    0.014818
   140  H   -0.010485
 Sum of Mulliken charges =  -0.00000

 Dipole moment (field-independent basis, Debye):
    X=              4.5221    Y=              1.7077    Z=             -1.9701  Tot=              5.2199
 Quadrupole moment (field-independent basis, Debye-Ang):
   XX=           -375.3029   YY=           -433.4431   ZZ=           -404.6567
   XY=            -24.4431   XZ=              2.5872   YZ=              6.3248

 Normal termination of Gaussian 16 at Fri Apr 29 12:09:40 2022.
