 Gaussian 16, Revision A.03,
 Gaussian 16:  ES64L-G16RevA.03 25-Dec-2016

 ---------------------------------
 #p PBE1PBE/Def2SVP td=(nstates=5)
 ---------------------------------

 -----------------------------------------------------
 step_301_chromophore_18 TDDFT with PBE1PBE functional
 -----------------------------------------------------
 Symbolic Z-matrix:
 Charge =  0 Multiplicity = 1

                         Standard orientation:
 ---------------------------------------------------------------------
 Center     Atomic      Atomic             Coordinates (Angstroms)
 Number     Number       Type             X           Y           Z
 ---------------------------------------------------------------------
      1         12           0       -5.273076    1.209425   -0.364130
      2          6           0       -4.586737   -2.304165   -0.289109
      3          6           0       -2.106978    1.809958   -0.693603
      4          6           0       -6.210337    4.371264   -0.077610
      5          6           0       -8.610794    0.299218    0.603431
      6          7           0       -3.537950   -0.144606   -0.450310
      7          6           0       -3.468162   -1.473867   -0.488317
      8          6           0       -1.982488   -1.946633   -0.475091
      9          6           0       -1.278248   -0.610607   -0.504668
     10          6           0       -2.319065    0.456047   -0.572272
     11          6           0       -0.379766   -0.328697    0.710199
     12          6           0       -1.651455   -2.813383   -1.722725
     13          6           0       -0.819919   -4.152146   -1.582319
     14          6           0       -0.047000   -4.220432   -0.240616
     15          8           0       -0.519100   -4.662607    0.871673
     16          8           0        1.258125   -3.841266   -0.449639
     17          7           0       -4.325746    2.892128   -0.533350
     18          6           0       -3.012593    2.950798   -0.641779
     19          6           0       -2.661658    4.324920   -0.733500
     20          6           0       -3.881000    5.064905   -0.545787
     21          6           0       -4.903901    4.103597   -0.392458
     22          6           0       -1.248807    4.717546   -0.916645
     23          6           0       -4.044015    6.604310   -0.458765
     24          8           0       -5.087719    7.199440   -0.283465
     25          6           0       -2.849581    7.541399   -0.599450
     26          7           0       -7.243621    2.245316    0.137904
     27          6           0       -7.313690    3.549681    0.167536
     28          6           0       -8.751480    4.066557    0.526281
     29          6           0       -9.535060    2.737570    0.781388
     30          6           0       -8.428128    1.666960    0.468241
     31          6           0       -8.699262    4.921641    1.841867
     32          6           0      -10.793069    2.639595   -0.120127
     33          6           0      -10.705137    2.055156   -1.499587
     34          7           0       -6.426924   -0.542790   -0.037270
     35          6           0       -7.710596   -0.720021    0.330759
     36          6           0       -8.086585   -2.099474    0.377917
     37          6           0       -6.874666   -2.745008    0.174526
     38          6           0       -5.871701   -1.790534   -0.027433
     39          6           0       -9.414056   -2.745302    0.686972
     40          6           0       -6.241891   -4.017918    0.185535
     41          8           0       -6.731879   -5.116196    0.320566
     42          6           0       -4.717226   -3.845270   -0.130241
     43          6           0       -3.957354   -4.499389    0.991786
     44          8           0       -3.630567   -4.040974    2.031491
     45          8           0       -3.837169   -5.874051    0.733515
     46          6           0       -3.322624   -6.674980    1.869933
     47          6           0        1.955754   -3.777195    0.838939
     48          6           0        3.354811   -3.121235    0.638617
     49          6           0        4.637496   -3.615302    0.466674
     50          6           0        5.005054   -5.156188    0.272033
     51          6           0        5.897880   -2.682188    0.514215
     52          6           0        6.613478   -2.400460   -0.782154
     53          6           0        7.519881   -1.130019   -0.689215
     54          6           0        8.873865   -1.191165   -1.420945
     55          6           0        8.859922   -1.525528   -2.926744
     56          6           0        9.757475    0.054442   -1.135346
     57          6           0       10.946692   -0.133649   -0.190503
     58          6           0       12.293208   -0.638787   -0.710745
     59          6           0       13.030912    0.687778   -1.228978
     60          6           0       13.465248    0.539524   -2.745249
     61          6           0       14.293942    0.776247   -0.351073
     62          6           0       14.166387    1.441271    1.013690
     63          6           0       14.961191    2.766713    1.208951
     64          6           0       14.400637    3.542218    2.430532
     65          6           0       13.304308    4.608440    2.115460
     66          6           0       15.623671    4.244136    3.118752
     67          1           0       -1.045776    2.065591   -0.736232
     68          1           0       -6.521254    5.404276    0.093242
     69          1           0       -9.671898    0.117146    0.784995
     70          1           0       -1.935088   -2.409655    0.509995
     71          1           0       -0.656233   -0.579940   -1.399350
     72          1           0       -0.911125    0.323272    1.403140
     73          1           0        0.542514    0.138197    0.364608
     74          1           0       -0.032396   -1.253977    1.169720
     75          1           0       -1.249650   -2.168525   -2.503360
     76          1           0       -2.552490   -3.201466   -2.197962
     77          1           0       -0.154437   -4.248144   -2.439966
     78          1           0       -1.543691   -4.967691   -1.588442
     79          1           0       -0.547112    3.958738   -1.263332
     80          1           0       -0.999761    5.163647    0.045494
     81          1           0       -1.208931    5.502205   -1.672092
     82          1           0       -2.604208    7.624512   -1.658801
     83          1           0       -1.975252    7.102833   -0.120266
     84          1           0       -2.926555    8.504951   -0.096234
     85          1           0       -9.079429    4.579597   -0.376983
     86          1           0       -9.806286    2.541048    1.819319
     87          1           0       -7.681544    5.078975    2.199247
     88          1           0       -9.312149    4.578709    2.676416
     89          1           0       -8.931271    5.939690    1.530183
     90          1           0      -11.025444    3.702774   -0.179705
     91          1           0      -11.595441    2.220298    0.485681
     92          1           0      -11.148865    1.073941   -1.329127
     93          1           0       -9.715959    1.771907   -1.859837
     94          1           0      -11.148477    2.760866   -2.201704
     95          1           0       -9.673352   -2.718623    1.745323
     96          1           0       -9.438581   -3.808337    0.447505
     97          1           0      -10.204574   -2.250099    0.122969
     98          1           0       -4.515513   -4.279624   -1.109884
     99          1           0       -4.049034   -6.668301    2.683368
    100          1           0       -2.364342   -6.323098    2.251589
    101          1           0       -3.247655   -7.674976    1.441321
    102          1           0        2.058017   -4.828114    1.110342
    103          1           0        1.427227   -3.242290    1.627817
    104          1           0        3.283741   -2.076921    0.941699
    105          1           0        5.849080   -5.436878    0.901665
    106          1           0        5.505859   -5.340601   -0.677882
    107          1           0        4.088363   -5.739439    0.354859
    108          1           0        6.622135   -3.278286    1.069425
    109          1           0        5.763931   -1.792669    1.129659
    110          1           0        5.904639   -2.191184   -1.583593
    111          1           0        7.239569   -3.281122   -0.921608
    112          1           0        7.524604   -0.682002    0.305239
    113          1           0        7.025802   -0.392146   -1.322738
    114          1           0        9.310878   -2.074624   -0.955004
    115          1           0        7.852619   -1.461333   -3.340229
    116          1           0        9.211735   -2.540318   -3.110382
    117          1           0        9.443109   -0.814891   -3.511973
    118          1           0        9.146920    0.904599   -0.832316
    119          1           0       10.307221    0.434540   -1.997188
    120          1           0       10.630501   -0.831323    0.585344
    121          1           0       11.005792    0.760072    0.431312
    122          1           0       12.032149   -1.327105   -1.514040
    123          1           0       12.748977   -1.254127    0.065127
    124          1           0       12.420949    1.576646   -1.070042
    125          1           0       12.847628    1.233907   -3.314388
    126          1           0       13.360766   -0.498370   -3.061187
    127          1           0       14.546460    0.592794   -2.871183
    128          1           0       15.048811    1.251072   -0.977905
    129          1           0       14.779554   -0.163795   -0.090009
    130          1           0       14.514943    0.652054    1.679207
    131          1           0       13.128362    1.443233    1.345209
    132          1           0       14.829452    3.338449    0.290027
    133          1           0       16.022812    2.529728    1.272423
    134          1           0       14.013774    2.850433    3.178939
    135          1           0       12.377965    4.145462    1.776646
    136          1           0       13.730523    5.256209    1.349477
    137          1           0       13.167564    5.278913    2.963362
    138          1           0       16.578002    4.317315    2.597371
    139          1           0       15.840882    3.731984    4.056387
    140          1           0       15.282310    5.277115    3.189833
 ---------------------------------------------------------------------

 SCF Done:  E(RPBE1PBE) =  -3005.33491259     A.U. after   15 cycles

 Excitation energies and oscillator strengths:

 Excited State   1:      Singlet-A      1.9566 eV  633.67 nm  f=0.3977  <S**2>=0.000
     245 -> 248       -0.17973
     246 -> 247        0.69021
     246 <- 247       -0.10358
 This state for optimization and/or second-order correction.
 Total Energy, E(TD-HF/TD-DFT) =  -3005.26300885
 Copying the excited state density for this state as the 1-particle RhoCI density.

 Excited State   2:      Singlet-A      2.3336 eV  531.29 nm  f=0.1231  <S**2>=0.000
     245 -> 247        0.65214
     246 -> 248        0.26247

 Excited State   3:      Singlet-A      2.9653 eV  418.12 nm  f=0.0001  <S**2>=0.000
     243 -> 247        0.62934
     243 -> 249       -0.15685
     244 -> 247        0.25270

 Excited State   4:      Singlet-A      3.0649 eV  404.53 nm  f=0.0001  <S**2>=0.000
     243 -> 247       -0.25259
     244 -> 247        0.63107
     244 -> 249        0.12806

 Excited State   5:      Singlet-A      3.2132 eV  385.86 nm  f=0.0005  <S**2>=0.000
     241 -> 247       -0.13477
     242 -> 247        0.68679

 The electronic state is 1-A.
 Alpha  occ. eigenvalues --  -46.91549 -19.27059 -19.22883 -19.20838 -19.19141
 Alpha  occ. eigenvalues --  -19.18748 -19.18494 -14.41079 -14.40641 -14.38648
 Alpha  occ. eigenvalues --  -14.38602 -10.37545 -10.34888 -10.32193 -10.31216
 Alpha  occ. eigenvalues --  -10.30005 -10.28631 -10.28079 -10.27662 -10.27459
 Alpha  occ. eigenvalues --  -10.27274 -10.27267 -10.26911 -10.26759 -10.26658
 Alpha  occ. eigenvalues --  -10.26113 -10.25883 -10.25770 -10.25662 -10.25645
 Alpha  occ. eigenvalues --  -10.25477 -10.25314 -10.25304 -10.25282 -10.25203
 Alpha  occ. eigenvalues --  -10.24790 -10.24622 -10.24585 -10.24406 -10.24369
 Alpha  occ. eigenvalues --  -10.24028 -10.24014 -10.23933 -10.23700 -10.23662
 Alpha  occ. eigenvalues --  -10.23601 -10.23521 -10.23487 -10.23379 -10.23314
 Alpha  occ. eigenvalues --  -10.23163 -10.23095 -10.23076 -10.22824 -10.22659
 Alpha  occ. eigenvalues --  -10.22613 -10.22539 -10.22416 -10.22335 -10.22138
 Alpha  occ. eigenvalues --  -10.22039 -10.21979 -10.21797 -10.21783 -10.21536
 Alpha  occ. eigenvalues --  -10.21522  -3.13802  -1.86648  -1.86166  -1.86046
 Alpha  occ. eigenvalues --   -1.11115  -1.09783  -1.05013  -1.04719  -1.00998
 Alpha  occ. eigenvalues --   -1.00790  -1.00013  -0.99250  -0.98841  -0.98066
 Alpha  occ. eigenvalues --   -0.86724  -0.84544  -0.84043  -0.83547  -0.83526
 Alpha  occ. eigenvalues --   -0.82793  -0.82433  -0.81972  -0.81400  -0.81305
 Alpha  occ. eigenvalues --   -0.80859  -0.79999  -0.78793  -0.77888  -0.77698
 Alpha  occ. eigenvalues --   -0.76815  -0.75847  -0.74955  -0.74681  -0.74229
 Alpha  occ. eigenvalues --   -0.74024  -0.72679  -0.72222  -0.71191  -0.70107
 Alpha  occ. eigenvalues --   -0.69802  -0.69379  -0.69234  -0.69189  -0.68405
 Alpha  occ. eigenvalues --   -0.67979  -0.67570  -0.65981  -0.64999  -0.64046
 Alpha  occ. eigenvalues --   -0.63233  -0.62460  -0.61728  -0.61450  -0.60260
 Alpha  occ. eigenvalues --   -0.59907  -0.59303  -0.59112  -0.58927  -0.58428
 Alpha  occ. eigenvalues --   -0.58279  -0.57538  -0.57114  -0.55307  -0.54927
 Alpha  occ. eigenvalues --   -0.54729  -0.54210  -0.53991  -0.52894  -0.52058
 Alpha  occ. eigenvalues --   -0.51652  -0.51140  -0.50810  -0.50585  -0.49782
 Alpha  occ. eigenvalues --   -0.49511  -0.49306  -0.49087  -0.48795  -0.48253
 Alpha  occ. eigenvalues --   -0.48101  -0.47820  -0.47442  -0.47292  -0.47043
 Alpha  occ. eigenvalues --   -0.46961  -0.46951  -0.46892  -0.46477  -0.46012
 Alpha  occ. eigenvalues --   -0.45947  -0.45815  -0.45704  -0.45431  -0.45096
 Alpha  occ. eigenvalues --   -0.44948  -0.44757  -0.44369  -0.44227  -0.43950
 Alpha  occ. eigenvalues --   -0.43844  -0.43778  -0.43524  -0.43344  -0.43258
 Alpha  occ. eigenvalues --   -0.43211  -0.42960  -0.42852  -0.42416  -0.42164
 Alpha  occ. eigenvalues --   -0.42035  -0.41956  -0.41575  -0.41446  -0.41420
 Alpha  occ. eigenvalues --   -0.41081  -0.40781  -0.40715  -0.40329  -0.40217
 Alpha  occ. eigenvalues --   -0.40210  -0.39991  -0.39783  -0.39482  -0.39387
 Alpha  occ. eigenvalues --   -0.39193  -0.39101  -0.38931  -0.38773  -0.38661
 Alpha  occ. eigenvalues --   -0.38450  -0.38329  -0.38173  -0.38009  -0.37988
 Alpha  occ. eigenvalues --   -0.37773  -0.37617  -0.37557  -0.37441  -0.37305
 Alpha  occ. eigenvalues --   -0.36660  -0.36613  -0.36412  -0.36040  -0.35726
 Alpha  occ. eigenvalues --   -0.35581  -0.35425  -0.35321  -0.35280  -0.35211
 Alpha  occ. eigenvalues --   -0.34989  -0.34625  -0.34138  -0.33975  -0.33711
 Alpha  occ. eigenvalues --   -0.33412  -0.32856  -0.32774  -0.32612  -0.32374
 Alpha  occ. eigenvalues --   -0.32158  -0.31589  -0.31443  -0.30922  -0.30742
 Alpha  occ. eigenvalues --   -0.30107  -0.29664  -0.29656  -0.29343  -0.29172
 Alpha  occ. eigenvalues --   -0.28865  -0.28151  -0.28072  -0.26913  -0.26192
 Alpha  occ. eigenvalues --   -0.25719  -0.25408  -0.25120  -0.25094  -0.20830
 Alpha  occ. eigenvalues --   -0.18726
 Alpha virt. eigenvalues --   -0.10764  -0.04595  -0.03185  -0.01508  -0.01348
 Alpha virt. eigenvalues --   -0.00715   0.00846   0.02123   0.02230   0.03128
 Alpha virt. eigenvalues --    0.04419   0.04712   0.05089   0.05503   0.05744

 Mulliken charges:
               1
     1  Mg   0.987469
     2  C   -0.052004
     3  C   -0.061914
     4  C   -0.059945
     5  C   -0.069282
     6  N   -0.382140
     7  C    0.008137
     8  C   -0.117074
     9  C   -0.102159
    10  C    0.064492
    11  C    0.007995
    12  C    0.002043
    13  C    0.040454
    14  C    0.221044
    15  O   -0.317909
    16  O   -0.340930
    17  N   -0.556731
    18  C    0.176427
    19  C   -0.198882
    20  C   -0.080744
    21  C    0.208721
    22  C    0.050776
    23  C    0.065698
    24  O   -0.233137
    25  C   -0.020863
    26  N   -0.314168
    27  C   -0.013348
    28  C   -0.100451
    29  C   -0.066556
    30  C   -0.019153
    31  C   -0.000608
    32  C   -0.067060
    33  C   -0.034410
    34  N   -0.436396
    35  C    0.177671
    36  C   -0.187195
    37  C    0.001385
    38  C    0.146793
    39  C    0.074353
    40  C    0.080506
    41  O   -0.196160
    42  C   -0.077637
    43  C    0.295312
    44  O   -0.216273
    45  O   -0.397425
    46  C    0.128486
    47  C    0.200730
    48  C   -0.121775
    49  C   -0.167810
    50  C    0.003714
    51  C   -0.027841
    52  C   -0.007573
    53  C   -0.034096
    54  C   -0.203481
    55  C   -0.004684
    56  C    0.028975
    57  C   -0.110192
    58  C    0.048095
    59  C   -0.228814
    60  C    0.011235
    61  C   -0.012322
    62  C   -0.062947
    63  C    0.028752
    64  C   -0.248181
    65  C   -0.015871
    66  C   -0.029281
    67  H   -0.008725
    68  H    0.018328
    69  H   -0.005872
    70  H    0.091602
    71  H    0.039625
    72  H    0.062623
    73  H    0.036658
    74  H    0.041496
    75  H    0.037439
    76  H    0.043930
    77  H    0.062240
    78  H    0.065033
    79  H    0.050958
    80  H    0.072277
    81  H    0.046298
    82  H    0.067908
    83  H    0.021564
    84  H    0.057574
    85  H    0.059987
    86  H    0.047729
    87  H    0.051028
    88  H    0.053556
    89  H    0.045555
    90  H    0.033790
    91  H    0.033450
    92  H    0.042533
    93  H    0.054625
    94  H    0.055081
    95  H    0.056808
    96  H    0.059258
    97  H    0.041922
    98  H    0.080409
    99  H    0.051132
   100  H    0.071600
   101  H    0.050339
   102  H    0.046702
   103  H    0.072331
   104  H    0.025040
   105  H    0.042255
   106  H    0.047478
   107  H    0.056000
   108  H    0.029373
   109  H    0.035593
   110  H    0.045545
   111  H    0.031150
   112  H    0.034116
   113  H    0.022121
   114  H    0.029180
   115  H    0.024378
   116  H    0.037785
   117  H    0.038088
   118  H    0.017588
   119  H    0.012464
   120  H    0.000498
   121  H    0.018644
   122  H    0.023298
   123  H    0.035891
   124  H    0.048841
   125  H    0.049922
   126  H    0.022714
   127  H    0.026142
   128  H    0.009747
   129  H    0.019914
   130  H    0.012711
   131  H    0.019469
   132  H    0.026865
   133  H    0.036207
   134  H    0.038258
   135  H    0.042818
   136  H    0.031463
   137  H    0.043140
   138  H    0.033399
   139  H    0.042023
   140  H    0.017253
 Sum of Mulliken charges =  -0.00000

 Dipole moment (field-independent basis, Debye):
    X=              4.6236    Y=              1.8087    Z=             -1.9543  Tot=              5.3356
 Quadrupole moment (field-independent basis, Debye-Ang):
   XX=           -370.3444   YY=           -430.1032   ZZ=           -402.3110
   XY=            -25.5240   XZ=              2.1703   YZ=              6.4164

 Normal termination of Gaussian 16 at Fri Apr 29 12:27:13 2022.
