 Gaussian 16, Revision A.03,
 Gaussian 16:  ES64L-G16RevA.03 25-Dec-2016

 --------------------------------
 #p wB97XD/Def2SVP td=(nstates=5)
 --------------------------------

 ----------------------------------------------------
 step_301_chromophore_18 TDDFT with wB97XD functional
 ----------------------------------------------------
 Symbolic Z-matrix:
 Charge =  0 Multiplicity = 1

                         Standard orientation:
 ---------------------------------------------------------------------
 Center     Atomic      Atomic             Coordinates (Angstroms)
 Number     Number       Type             X           Y           Z
 ---------------------------------------------------------------------
      1         12           0       -5.273076    1.209425   -0.364130
      2          6           0       -4.586737   -2.304165   -0.289109
      3          6           0       -2.106978    1.809958   -0.693603
      4          6           0       -6.210337    4.371264   -0.077610
      5          6           0       -8.610794    0.299218    0.603431
      6          7           0       -3.537950   -0.144606   -0.450310
      7          6           0       -3.468162   -1.473867   -0.488317
      8          6           0       -1.982488   -1.946633   -0.475091
      9          6           0       -1.278248   -0.610607   -0.504668
     10          6           0       -2.319065    0.456047   -0.572272
     11          6           0       -0.379766   -0.328697    0.710199
     12          6           0       -1.651455   -2.813383   -1.722725
     13          6           0       -0.819919   -4.152146   -1.582319
     14          6           0       -0.047000   -4.220432   -0.240616
     15          8           0       -0.519100   -4.662607    0.871673
     16          8           0        1.258125   -3.841266   -0.449639
     17          7           0       -4.325746    2.892128   -0.533350
     18          6           0       -3.012593    2.950798   -0.641779
     19          6           0       -2.661658    4.324920   -0.733500
     20          6           0       -3.881000    5.064905   -0.545787
     21          6           0       -4.903901    4.103597   -0.392458
     22          6           0       -1.248807    4.717546   -0.916645
     23          6           0       -4.044015    6.604310   -0.458765
     24          8           0       -5.087719    7.199440   -0.283465
     25          6           0       -2.849581    7.541399   -0.599450
     26          7           0       -7.243621    2.245316    0.137904
     27          6           0       -7.313690    3.549681    0.167536
     28          6           0       -8.751480    4.066557    0.526281
     29          6           0       -9.535060    2.737570    0.781388
     30          6           0       -8.428128    1.666960    0.468241
     31          6           0       -8.699262    4.921641    1.841867
     32          6           0      -10.793069    2.639595   -0.120127
     33          6           0      -10.705137    2.055156   -1.499587
     34          7           0       -6.426924   -0.542790   -0.037270
     35          6           0       -7.710596   -0.720021    0.330759
     36          6           0       -8.086585   -2.099474    0.377917
     37          6           0       -6.874666   -2.745008    0.174526
     38          6           0       -5.871701   -1.790534   -0.027433
     39          6           0       -9.414056   -2.745302    0.686972
     40          6           0       -6.241891   -4.017918    0.185535
     41          8           0       -6.731879   -5.116196    0.320566
     42          6           0       -4.717226   -3.845270   -0.130241
     43          6           0       -3.957354   -4.499389    0.991786
     44          8           0       -3.630567   -4.040974    2.031491
     45          8           0       -3.837169   -5.874051    0.733515
     46          6           0       -3.322624   -6.674980    1.869933
     47          6           0        1.955754   -3.777195    0.838939
     48          6           0        3.354811   -3.121235    0.638617
     49          6           0        4.637496   -3.615302    0.466674
     50          6           0        5.005054   -5.156188    0.272033
     51          6           0        5.897880   -2.682188    0.514215
     52          6           0        6.613478   -2.400460   -0.782154
     53          6           0        7.519881   -1.130019   -0.689215
     54          6           0        8.873865   -1.191165   -1.420945
     55          6           0        8.859922   -1.525528   -2.926744
     56          6           0        9.757475    0.054442   -1.135346
     57          6           0       10.946692   -0.133649   -0.190503
     58          6           0       12.293208   -0.638787   -0.710745
     59          6           0       13.030912    0.687778   -1.228978
     60          6           0       13.465248    0.539524   -2.745249
     61          6           0       14.293942    0.776247   -0.351073
     62          6           0       14.166387    1.441271    1.013690
     63          6           0       14.961191    2.766713    1.208951
     64          6           0       14.400637    3.542218    2.430532
     65          6           0       13.304308    4.608440    2.115460
     66          6           0       15.623671    4.244136    3.118752
     67          1           0       -1.045776    2.065591   -0.736232
     68          1           0       -6.521254    5.404276    0.093242
     69          1           0       -9.671898    0.117146    0.784995
     70          1           0       -1.935088   -2.409655    0.509995
     71          1           0       -0.656233   -0.579940   -1.399350
     72          1           0       -0.911125    0.323272    1.403140
     73          1           0        0.542514    0.138197    0.364608
     74          1           0       -0.032396   -1.253977    1.169720
     75          1           0       -1.249650   -2.168525   -2.503360
     76          1           0       -2.552490   -3.201466   -2.197962
     77          1           0       -0.154437   -4.248144   -2.439966
     78          1           0       -1.543691   -4.967691   -1.588442
     79          1           0       -0.547112    3.958738   -1.263332
     80          1           0       -0.999761    5.163647    0.045494
     81          1           0       -1.208931    5.502205   -1.672092
     82          1           0       -2.604208    7.624512   -1.658801
     83          1           0       -1.975252    7.102833   -0.120266
     84          1           0       -2.926555    8.504951   -0.096234
     85          1           0       -9.079429    4.579597   -0.376983
     86          1           0       -9.806286    2.541048    1.819319
     87          1           0       -7.681544    5.078975    2.199247
     88          1           0       -9.312149    4.578709    2.676416
     89          1           0       -8.931271    5.939690    1.530183
     90          1           0      -11.025444    3.702774   -0.179705
     91          1           0      -11.595441    2.220298    0.485681
     92          1           0      -11.148865    1.073941   -1.329127
     93          1           0       -9.715959    1.771907   -1.859837
     94          1           0      -11.148477    2.760866   -2.201704
     95          1           0       -9.673352   -2.718623    1.745323
     96          1           0       -9.438581   -3.808337    0.447505
     97          1           0      -10.204574   -2.250099    0.122969
     98          1           0       -4.515513   -4.279624   -1.109884
     99          1           0       -4.049034   -6.668301    2.683368
    100          1           0       -2.364342   -6.323098    2.251589
    101          1           0       -3.247655   -7.674976    1.441321
    102          1           0        2.058017   -4.828114    1.110342
    103          1           0        1.427227   -3.242290    1.627817
    104          1           0        3.283741   -2.076921    0.941699
    105          1           0        5.849080   -5.436878    0.901665
    106          1           0        5.505859   -5.340601   -0.677882
    107          1           0        4.088363   -5.739439    0.354859
    108          1           0        6.622135   -3.278286    1.069425
    109          1           0        5.763931   -1.792669    1.129659
    110          1           0        5.904639   -2.191184   -1.583593
    111          1           0        7.239569   -3.281122   -0.921608
    112          1           0        7.524604   -0.682002    0.305239
    113          1           0        7.025802   -0.392146   -1.322738
    114          1           0        9.310878   -2.074624   -0.955004
    115          1           0        7.852619   -1.461333   -3.340229
    116          1           0        9.211735   -2.540318   -3.110382
    117          1           0        9.443109   -0.814891   -3.511973
    118          1           0        9.146920    0.904599   -0.832316
    119          1           0       10.307221    0.434540   -1.997188
    120          1           0       10.630501   -0.831323    0.585344
    121          1           0       11.005792    0.760072    0.431312
    122          1           0       12.032149   -1.327105   -1.514040
    123          1           0       12.748977   -1.254127    0.065127
    124          1           0       12.420949    1.576646   -1.070042
    125          1           0       12.847628    1.233907   -3.314388
    126          1           0       13.360766   -0.498370   -3.061187
    127          1           0       14.546460    0.592794   -2.871183
    128          1           0       15.048811    1.251072   -0.977905
    129          1           0       14.779554   -0.163795   -0.090009
    130          1           0       14.514943    0.652054    1.679207
    131          1           0       13.128362    1.443233    1.345209
    132          1           0       14.829452    3.338449    0.290027
    133          1           0       16.022812    2.529728    1.272423
    134          1           0       14.013774    2.850433    3.178939
    135          1           0       12.377965    4.145462    1.776646
    136          1           0       13.730523    5.256209    1.349477
    137          1           0       13.167564    5.278913    2.963362
    138          1           0       16.578002    4.317315    2.597371
    139          1           0       15.840882    3.731984    4.056387
    140          1           0       15.282310    5.277115    3.189833
 ---------------------------------------------------------------------

 SCF Done:  E(RwB97XD) =  -3007.84509588     A.U. after   19 cycles

 Excitation energies and oscillator strengths:

 Excited State   1:      Singlet-A      1.7400 eV  712.57 nm  f=0.4061  <S**2>=0.000
     245 -> 248       -0.19095
     246 -> 247        0.68157
     245 <- 248       -0.11685
 This state for optimization and/or second-order correction.
 Total Energy, E(TD-HF/TD-DFT) =  -3007.78115357
 Copying the excited state density for this state as the 1-particle RhoCI density.

 Excited State   2:      Singlet-A      2.2734 eV  545.38 nm  f=0.1279  <S**2>=0.000
     245 -> 247        0.64107
     246 -> 248        0.28519

 Excited State   3:      Singlet-A      3.4853 eV  355.74 nm  f=0.0007  <S**2>=0.000
     241 -> 247       -0.17551
     241 -> 249        0.14557
     242 -> 247        0.53224
     242 -> 249       -0.27968
     242 -> 250        0.15004
     243 -> 247        0.14158

 Excited State   4:      Singlet-A      3.5569 eV  348.57 nm  f=0.0058  <S**2>=0.000
     241 -> 247       -0.43979
     244 -> 247        0.50037
     246 -> 248        0.11425

 Excited State   5:      Singlet-A      3.6623 eV  338.54 nm  f=0.1962  <S**2>=0.000
     241 -> 247        0.32244
     242 -> 247        0.13299
     243 -> 247        0.12022
     244 -> 247        0.41310
     245 -> 247        0.12959
     246 -> 248       -0.39562

 The electronic state is 1-A.
 Alpha  occ. eigenvalues --  -46.94497 -19.31625 -19.27454 -19.25475 -19.23905
 Alpha  occ. eigenvalues --  -19.23495 -19.23380 -14.46055 -14.45833 -14.43588
 Alpha  occ. eigenvalues --  -14.43581 -10.44314 -10.41762 -10.38955 -10.38138
 Alpha  occ. eigenvalues --  -10.36522 -10.35025 -10.34343 -10.33966 -10.33655
 Alpha  occ. eigenvalues --  -10.33606 -10.33503 -10.33176 -10.33175 -10.33157
 Alpha  occ. eigenvalues --  -10.32572 -10.32333 -10.32199 -10.32010 -10.31865
 Alpha  occ. eigenvalues --  -10.31849 -10.31762 -10.31592 -10.31546 -10.31513
 Alpha  occ. eigenvalues --  -10.31015 -10.30963 -10.30893 -10.30811 -10.30692
 Alpha  occ. eigenvalues --  -10.30430 -10.30393 -10.30202 -10.30186 -10.29978
 Alpha  occ. eigenvalues --  -10.29953 -10.29870 -10.29869 -10.29841 -10.29673
 Alpha  occ. eigenvalues --  -10.29558 -10.29512 -10.29430 -10.29359 -10.29045
 Alpha  occ. eigenvalues --  -10.29001 -10.28912 -10.28776 -10.28759 -10.28569
 Alpha  occ. eigenvalues --  -10.28449 -10.28398 -10.28159 -10.28149 -10.27938
 Alpha  occ. eigenvalues --  -10.27874  -3.20596  -1.94195  -1.93713  -1.93588
 Alpha  occ. eigenvalues --   -1.18501  -1.17203  -1.12427  -1.12262  -1.08377
 Alpha  occ. eigenvalues --   -1.08155  -1.07313  -1.06610  -1.06230  -1.05454
 Alpha  occ. eigenvalues --   -0.94382  -0.92214  -0.91653  -0.91204  -0.91134
 Alpha  occ. eigenvalues --   -0.90364  -0.90102  -0.89574  -0.89005  -0.88968
 Alpha  occ. eigenvalues --   -0.88514  -0.87644  -0.86441  -0.85512  -0.85327
 Alpha  occ. eigenvalues --   -0.84461  -0.83492  -0.82631  -0.82389  -0.81884
 Alpha  occ. eigenvalues --   -0.81659  -0.80320  -0.79852  -0.78794  -0.77780
 Alpha  occ. eigenvalues --   -0.77410  -0.77068  -0.76885  -0.76841  -0.76063
 Alpha  occ. eigenvalues --   -0.75587  -0.75122  -0.73513  -0.72611  -0.71627
 Alpha  occ. eigenvalues --   -0.70794  -0.70084  -0.69251  -0.69070  -0.67735
 Alpha  occ. eigenvalues --   -0.67334  -0.66802  -0.66733  -0.66382  -0.65984
 Alpha  occ. eigenvalues --   -0.65875  -0.65181  -0.64751  -0.62752  -0.62346
 Alpha  occ. eigenvalues --   -0.62234  -0.61654  -0.61378  -0.60267  -0.59628
 Alpha  occ. eigenvalues --   -0.59052  -0.58653  -0.58218  -0.57985  -0.57231
 Alpha  occ. eigenvalues --   -0.56883  -0.56690  -0.56505  -0.56229  -0.55665
 Alpha  occ. eigenvalues --   -0.55529  -0.55202  -0.54821  -0.54618  -0.54499
 Alpha  occ. eigenvalues --   -0.54387  -0.54348  -0.54293  -0.53791  -0.53415
 Alpha  occ. eigenvalues --   -0.53275  -0.53190  -0.53002  -0.52937  -0.52502
 Alpha  occ. eigenvalues --   -0.52305  -0.52141  -0.51665  -0.51521  -0.51263
 Alpha  occ. eigenvalues --   -0.51144  -0.51029  -0.50835  -0.50621  -0.50564
 Alpha  occ. eigenvalues --   -0.50482  -0.50270  -0.50129  -0.49740  -0.49424
 Alpha  occ. eigenvalues --   -0.49339  -0.49220  -0.48812  -0.48667  -0.48644
 Alpha  occ. eigenvalues --   -0.48358  -0.48001  -0.47796  -0.47567  -0.47450
 Alpha  occ. eigenvalues --   -0.47356  -0.47216  -0.47018  -0.46672  -0.46605
 Alpha  occ. eigenvalues --   -0.46420  -0.46323  -0.46123  -0.45924  -0.45805
 Alpha  occ. eigenvalues --   -0.45581  -0.45473  -0.45296  -0.45135  -0.45114
 Alpha  occ. eigenvalues --   -0.44899  -0.44762  -0.44664  -0.44533  -0.44408
 Alpha  occ. eigenvalues --   -0.43818  -0.43672  -0.43528  -0.43137  -0.42872
 Alpha  occ. eigenvalues --   -0.42666  -0.42478  -0.42383  -0.42335  -0.42262
 Alpha  occ. eigenvalues --   -0.42026  -0.41722  -0.41116  -0.41013  -0.40665
 Alpha  occ. eigenvalues --   -0.40448  -0.39900  -0.39815  -0.39543  -0.39297
 Alpha  occ. eigenvalues --   -0.39192  -0.38608  -0.38464  -0.37790  -0.37787
 Alpha  occ. eigenvalues --   -0.37111  -0.36775  -0.36563  -0.36443  -0.35899
 Alpha  occ. eigenvalues --   -0.35709  -0.35219  -0.34949  -0.33504  -0.32911
 Alpha  occ. eigenvalues --   -0.32350  -0.32261  -0.32197  -0.31936  -0.25781
 Alpha  occ. eigenvalues --   -0.22934
 Alpha virt. eigenvalues --   -0.06638   0.00835   0.03133   0.05203   0.05307
 Alpha virt. eigenvalues --    0.05965   0.06595   0.08510   0.08940   0.09641
 Alpha virt. eigenvalues --    0.11188   0.11444   0.11877   0.12345   0.12486

 Mulliken charges:
               1
     1  Mg   0.978028
     2  C   -0.065360
     3  C   -0.083668
     4  C   -0.076107
     5  C   -0.090933
     6  N   -0.347056
     7  C   -0.022081
     8  C   -0.083629
     9  C   -0.080004
    10  C    0.057468
    11  C    0.025284
    12  C    0.008199
    13  C    0.055569
    14  C    0.211384
    15  O   -0.315602
    16  O   -0.341389
    17  N   -0.517165
    18  C    0.161175
    19  C   -0.184686
    20  C   -0.075062
    21  C    0.200279
    22  C    0.063158
    23  C    0.059488
    24  O   -0.228437
    25  C   -0.008203
    26  N   -0.275362
    27  C   -0.033292
    28  C   -0.073424
    29  C   -0.045024
    30  C   -0.036803
    31  C    0.008537
    32  C   -0.052226
    33  C   -0.017977
    34  N   -0.399248
    35  C    0.180224
    36  C   -0.187937
    37  C    0.008745
    38  C    0.134760
    39  C    0.084359
    40  C    0.059578
    41  O   -0.186004
    42  C   -0.038017
    43  C    0.270593
    44  O   -0.208022
    45  O   -0.396304
    46  C    0.143724
    47  C    0.216978
    48  C   -0.130322
    49  C   -0.157805
    50  C    0.018689
    51  C   -0.005954
    52  C    0.008100
    53  C   -0.018899
    54  C   -0.174250
    55  C    0.006697
    56  C    0.045001
    57  C   -0.086225
    58  C    0.059788
    59  C   -0.198114
    60  C    0.022699
    61  C    0.004642
    62  C   -0.046427
    63  C    0.042522
    64  C   -0.220284
    65  C   -0.000292
    66  C   -0.017368
    67  H   -0.018242
    68  H    0.012429
    69  H   -0.012081
    70  H    0.075825
    71  H    0.029597
    72  H    0.056270
    73  H    0.031142
    74  H    0.029027
    75  H    0.031748
    76  H    0.034268
    77  H    0.058804
    78  H    0.060111
    79  H    0.047842
    80  H    0.065612
    81  H    0.038885
    82  H    0.063546
    83  H    0.013688
    84  H    0.056371
    85  H    0.050720
    86  H    0.038351
    87  H    0.044095
    88  H    0.048810
    89  H    0.039978
    90  H    0.023607
    91  H    0.027314
    92  H    0.035852
    93  H    0.045641
    94  H    0.051589
    95  H    0.053131
    96  H    0.056943
    97  H    0.036624
    98  H    0.073629
    99  H    0.046786
   100  H    0.067790
   101  H    0.047041
   102  H    0.040247
   103  H    0.067729
   104  H    0.021151
   105  H    0.036572
   106  H    0.041393
   107  H    0.050234
   108  H    0.019139
   109  H    0.028531
   110  H    0.037582
   111  H    0.021600
   112  H    0.026178
   113  H    0.010578
   114  H    0.013915
   115  H    0.017820
   116  H    0.033173
   117  H    0.032285
   118  H    0.010961
   119  H   -0.002996
   120  H   -0.009968
   121  H    0.007463
   122  H    0.011116
   123  H    0.029085
   124  H    0.036009
   125  H    0.045629
   126  H    0.016074
   127  H    0.020566
   128  H   -0.001312
   129  H    0.011273
   130  H    0.004594
   131  H    0.004833
   132  H    0.016834
   133  H    0.028670
   134  H    0.027606
   135  H    0.037466
   136  H    0.023264
   137  H    0.036559
   138  H    0.027599
   139  H    0.037188
   140  H    0.009914
 Sum of Mulliken charges =  -0.00000

 Dipole moment (field-independent basis, Debye):
    X=              4.5400    Y=              1.6830    Z=             -1.9679  Tot=              5.2265
 Quadrupole moment (field-independent basis, Debye-Ang):
   XX=           -369.5747   YY=           -429.0022   ZZ=           -401.8955
   XY=            -24.2101   XZ=              2.1892   YZ=              6.3815

 Normal termination of Gaussian 16 at Fri Apr 29 12:59:02 2022.
