 Gaussian 16, Revision A.03,
 Gaussian 16:  ES64L-G16RevA.03 25-Dec-2016

 --------------------
 #p ZINDO=(nstates=5)
 --------------------

 -----------------------------
 step_301_chromophore_18 ZINDO
 -----------------------------
 Symbolic Z-matrix:
 Charge =  0 Multiplicity = 1

                         Standard orientation:
 ---------------------------------------------------------------------
 Center     Atomic      Atomic             Coordinates (Angstroms)
 Number     Number       Type             X           Y           Z
 ---------------------------------------------------------------------
      1         12           0       -5.273076    1.209425   -0.364130
      2          6           0       -4.586737   -2.304165   -0.289109
      3          6           0       -2.106978    1.809958   -0.693603
      4          6           0       -6.210337    4.371264   -0.077610
      5          6           0       -8.610794    0.299218    0.603431
      6          7           0       -3.537950   -0.144606   -0.450310
      7          6           0       -3.468162   -1.473867   -0.488317
      8          6           0       -1.982488   -1.946633   -0.475091
      9          6           0       -1.278248   -0.610607   -0.504668
     10          6           0       -2.319065    0.456047   -0.572272
     11          6           0       -0.379766   -0.328697    0.710199
     12          6           0       -1.651455   -2.813383   -1.722725
     13          6           0       -0.819919   -4.152146   -1.582319
     14          6           0       -0.047000   -4.220432   -0.240616
     15          8           0       -0.519100   -4.662607    0.871673
     16          8           0        1.258125   -3.841266   -0.449639
     17          7           0       -4.325746    2.892128   -0.533350
     18          6           0       -3.012593    2.950798   -0.641779
     19          6           0       -2.661658    4.324920   -0.733500
     20          6           0       -3.881000    5.064905   -0.545787
     21          6           0       -4.903901    4.103597   -0.392458
     22          6           0       -1.248807    4.717546   -0.916645
     23          6           0       -4.044015    6.604310   -0.458765
     24          8           0       -5.087719    7.199440   -0.283465
     25          6           0       -2.849581    7.541399   -0.599450
     26          7           0       -7.243621    2.245316    0.137904
     27          6           0       -7.313690    3.549681    0.167536
     28          6           0       -8.751480    4.066557    0.526281
     29          6           0       -9.535060    2.737570    0.781388
     30          6           0       -8.428128    1.666960    0.468241
     31          6           0       -8.699262    4.921641    1.841867
     32          6           0      -10.793069    2.639595   -0.120127
     33          6           0      -10.705137    2.055156   -1.499587
     34          7           0       -6.426924   -0.542790   -0.037270
     35          6           0       -7.710596   -0.720021    0.330759
     36          6           0       -8.086585   -2.099474    0.377917
     37          6           0       -6.874666   -2.745008    0.174526
     38          6           0       -5.871701   -1.790534   -0.027433
     39          6           0       -9.414056   -2.745302    0.686972
     40          6           0       -6.241891   -4.017918    0.185535
     41          8           0       -6.731879   -5.116196    0.320566
     42          6           0       -4.717226   -3.845270   -0.130241
     43          6           0       -3.957354   -4.499389    0.991786
     44          8           0       -3.630567   -4.040974    2.031491
     45          8           0       -3.837169   -5.874051    0.733515
     46          6           0       -3.322624   -6.674980    1.869933
     47          6           0        1.955754   -3.777195    0.838939
     48          6           0        3.354811   -3.121235    0.638617
     49          6           0        4.637496   -3.615302    0.466674
     50          6           0        5.005054   -5.156188    0.272033
     51          6           0        5.897880   -2.682188    0.514215
     52          6           0        6.613478   -2.400460   -0.782154
     53          6           0        7.519881   -1.130019   -0.689215
     54          6           0        8.873865   -1.191165   -1.420945
     55          6           0        8.859922   -1.525528   -2.926744
     56          6           0        9.757475    0.054442   -1.135346
     57          6           0       10.946692   -0.133649   -0.190503
     58          6           0       12.293208   -0.638787   -0.710745
     59          6           0       13.030912    0.687778   -1.228978
     60          6           0       13.465248    0.539524   -2.745249
     61          6           0       14.293942    0.776247   -0.351073
     62          6           0       14.166387    1.441271    1.013690
     63          6           0       14.961191    2.766713    1.208951
     64          6           0       14.400637    3.542218    2.430532
     65          6           0       13.304308    4.608440    2.115460
     66          6           0       15.623671    4.244136    3.118752
     67          1           0       -1.045776    2.065591   -0.736232
     68          1           0       -6.521254    5.404276    0.093242
     69          1           0       -9.671898    0.117146    0.784995
     70          1           0       -1.935088   -2.409655    0.509995
     71          1           0       -0.656233   -0.579940   -1.399350
     72          1           0       -0.911125    0.323272    1.403140
     73          1           0        0.542514    0.138197    0.364608
     74          1           0       -0.032396   -1.253977    1.169720
     75          1           0       -1.249650   -2.168525   -2.503360
     76          1           0       -2.552490   -3.201466   -2.197962
     77          1           0       -0.154437   -4.248144   -2.439966
     78          1           0       -1.543691   -4.967691   -1.588442
     79          1           0       -0.547112    3.958738   -1.263332
     80          1           0       -0.999761    5.163647    0.045494
     81          1           0       -1.208931    5.502205   -1.672092
     82          1           0       -2.604208    7.624512   -1.658801
     83          1           0       -1.975252    7.102833   -0.120266
     84          1           0       -2.926555    8.504951   -0.096234
     85          1           0       -9.079429    4.579597   -0.376983
     86          1           0       -9.806286    2.541048    1.819319
     87          1           0       -7.681544    5.078975    2.199247
     88          1           0       -9.312149    4.578709    2.676416
     89          1           0       -8.931271    5.939690    1.530183
     90          1           0      -11.025444    3.702774   -0.179705
     91          1           0      -11.595441    2.220298    0.485681
     92          1           0      -11.148865    1.073941   -1.329127
     93          1           0       -9.715959    1.771907   -1.859837
     94          1           0      -11.148477    2.760866   -2.201704
     95          1           0       -9.673352   -2.718623    1.745323
     96          1           0       -9.438581   -3.808337    0.447505
     97          1           0      -10.204574   -2.250099    0.122969
     98          1           0       -4.515513   -4.279624   -1.109884
     99          1           0       -4.049034   -6.668301    2.683368
    100          1           0       -2.364342   -6.323098    2.251589
    101          1           0       -3.247655   -7.674976    1.441321
    102          1           0        2.058017   -4.828114    1.110342
    103          1           0        1.427227   -3.242290    1.627817
    104          1           0        3.283741   -2.076921    0.941699
    105          1           0        5.849080   -5.436878    0.901665
    106          1           0        5.505859   -5.340601   -0.677882
    107          1           0        4.088363   -5.739439    0.354859
    108          1           0        6.622135   -3.278286    1.069425
    109          1           0        5.763931   -1.792669    1.129659
    110          1           0        5.904639   -2.191184   -1.583593
    111          1           0        7.239569   -3.281122   -0.921608
    112          1           0        7.524604   -0.682002    0.305239
    113          1           0        7.025802   -0.392146   -1.322738
    114          1           0        9.310878   -2.074624   -0.955004
    115          1           0        7.852619   -1.461333   -3.340229
    116          1           0        9.211735   -2.540318   -3.110382
    117          1           0        9.443109   -0.814891   -3.511973
    118          1           0        9.146920    0.904599   -0.832316
    119          1           0       10.307221    0.434540   -1.997188
    120          1           0       10.630501   -0.831323    0.585344
    121          1           0       11.005792    0.760072    0.431312
    122          1           0       12.032149   -1.327105   -1.514040
    123          1           0       12.748977   -1.254127    0.065127
    124          1           0       12.420949    1.576646   -1.070042
    125          1           0       12.847628    1.233907   -3.314388
    126          1           0       13.360766   -0.498370   -3.061187
    127          1           0       14.546460    0.592794   -2.871183
    128          1           0       15.048811    1.251072   -0.977905
    129          1           0       14.779554   -0.163795   -0.090009
    130          1           0       14.514943    0.652054    1.679207
    131          1           0       13.128362    1.443233    1.345209
    132          1           0       14.829452    3.338449    0.290027
    133          1           0       16.022812    2.529728    1.272423
    134          1           0       14.013774    2.850433    3.178939
    135          1           0       12.377965    4.145462    1.776646
    136          1           0       13.730523    5.256209    1.349477
    137          1           0       13.167564    5.278913    2.963362
    138          1           0       16.578002    4.317315    2.597371
    139          1           0       15.840882    3.731984    4.056387
    140          1           0       15.282310    5.277115    3.189833
 ---------------------------------------------------------------------

 SCF Done:  E(RZINDO/S) =  -474.469947411     A.U. after   19 cycles

 Excitation energies and oscillator strengths:

 Excited State   1:      Singlet-A      1.2988 eV  954.63 nm  f=0.6150  <S**2>=0.000
     175 ->178         0.19833
     176 ->177         0.66181
 This state for optimization and/or second-order correction.
 Total Energy, E(CIS/TDA) =  -474.422218780
 Copying the excited state density for this state as the 1-particle RhoCI density.

 Excited State   2:      Singlet-A      1.9832 eV  625.17 nm  f=0.0665  <S**2>=0.000
     175 ->177         0.56234
     176 ->178        -0.40265

 Excited State   3:      Singlet-A      2.9023 eV  427.19 nm  f=0.0047  <S**2>=0.000
     168 ->179         0.11905
     169 ->177         0.34909
     169 ->178        -0.12082
     169 ->179        -0.38946
     169 ->180        -0.10674
     169 ->181         0.21460
     169 ->186        -0.17624

 Excited State   4:      Singlet-A      2.9756 eV  416.67 nm  f=0.0002  <S**2>=0.000
     170 ->177         0.26846
     170 ->178        -0.11326
     170 ->179         0.27854
     170 ->181         0.40619
     170 ->184        -0.12881
     170 ->186         0.20286
     170 ->187        -0.14390
     170 ->188         0.10206

 Excited State   5:      Singlet-A      3.1162 eV  397.88 nm  f=1.0944  <S**2>=0.000
     171 ->177        -0.12734
     175 ->177         0.34804
     176 ->178         0.52899
     176 ->179         0.21381

 The electronic state is 1-A.
 Alpha  occ. eigenvalues --   -1.86078  -1.85428  -1.81881  -1.74360  -1.72127
 Alpha  occ. eigenvalues --   -1.71271  -1.65325  -1.59920  -1.59146  -1.58745
 Alpha  occ. eigenvalues --   -1.54408  -1.49418  -1.48661  -1.48427  -1.46993
 Alpha  occ. eigenvalues --   -1.43707  -1.41509  -1.40535  -1.39828  -1.38294
 Alpha  occ. eigenvalues --   -1.36798  -1.33872  -1.32978  -1.31504  -1.29179
 Alpha  occ. eigenvalues --   -1.27988  -1.25847  -1.21355  -1.19967  -1.18131
 Alpha  occ. eigenvalues --   -1.17468  -1.15075  -1.14850  -1.13989  -1.12954
 Alpha  occ. eigenvalues --   -1.12629  -1.10589  -1.09992  -1.04900  -1.04007
 Alpha  occ. eigenvalues --   -1.02920  -1.01489  -0.98293  -0.98238  -0.97543
 Alpha  occ. eigenvalues --   -0.95592  -0.95239  -0.94389  -0.93453  -0.92737
 Alpha  occ. eigenvalues --   -0.90519  -0.90124  -0.89170  -0.88483  -0.87690
 Alpha  occ. eigenvalues --   -0.85166  -0.84437  -0.83542  -0.80988  -0.80093
 Alpha  occ. eigenvalues --   -0.79701  -0.77938  -0.77665  -0.76299  -0.75935
 Alpha  occ. eigenvalues --   -0.75176  -0.74591  -0.74487  -0.74269  -0.73806
 Alpha  occ. eigenvalues --   -0.73306  -0.72305  -0.71774  -0.71563  -0.70890
 Alpha  occ. eigenvalues --   -0.70320  -0.69907  -0.69798  -0.68395  -0.68101
 Alpha  occ. eigenvalues --   -0.67529  -0.66863  -0.66030  -0.65777  -0.65526
 Alpha  occ. eigenvalues --   -0.64743  -0.64534  -0.63638  -0.63403  -0.63301
 Alpha  occ. eigenvalues --   -0.62850  -0.62764  -0.62570  -0.61831  -0.61733
 Alpha  occ. eigenvalues --   -0.61399  -0.61012  -0.60909  -0.60353  -0.59977
 Alpha  occ. eigenvalues --   -0.59779  -0.59228  -0.58811  -0.58621  -0.57775
 Alpha  occ. eigenvalues --   -0.57592  -0.57330  -0.56879  -0.56377  -0.56261
 Alpha  occ. eigenvalues --   -0.55673  -0.55418  -0.55174  -0.54998  -0.54573
 Alpha  occ. eigenvalues --   -0.54398  -0.54027  -0.53397  -0.53205  -0.53170
 Alpha  occ. eigenvalues --   -0.53076  -0.52729  -0.52265  -0.51705  -0.51428
 Alpha  occ. eigenvalues --   -0.50623  -0.50594  -0.50512  -0.50197  -0.49915
 Alpha  occ. eigenvalues --   -0.49699  -0.49629  -0.49604  -0.49189  -0.48815
 Alpha  occ. eigenvalues --   -0.48583  -0.48476  -0.48127  -0.47825  -0.47351
 Alpha  occ. eigenvalues --   -0.47292  -0.47129  -0.46799  -0.46566  -0.46525
 Alpha  occ. eigenvalues --   -0.46140  -0.45794  -0.45674  -0.45379  -0.44856
 Alpha  occ. eigenvalues --   -0.44706  -0.44244  -0.43899  -0.43674  -0.43333
 Alpha  occ. eigenvalues --   -0.42991  -0.42640  -0.42267  -0.41917  -0.41608
 Alpha  occ. eigenvalues --   -0.41441  -0.40906  -0.40355  -0.39208  -0.38997
 Alpha  occ. eigenvalues --   -0.37882  -0.36402  -0.35039  -0.34568  -0.34122
 Alpha  occ. eigenvalues --   -0.33275  -0.33099  -0.32565  -0.31812  -0.26235
 Alpha  occ. eigenvalues --   -0.21669
 Alpha virt. eigenvalues --   -0.08121  -0.01497   0.00083   0.00559   0.02122
 Alpha virt. eigenvalues --    0.03110   0.03672   0.03691   0.03851   0.05552
 Alpha virt. eigenvalues --    0.06731   0.07180   0.07874   0.07919   0.08327

 Mulliken charges:
               1
     1  Mg   0.422456
     2  C   -0.071478
     3  C   -0.095782
     4  C   -0.053759
     5  C   -0.066990
     6  N   -0.287745
     7  C    0.143099
     8  C    0.006064
     9  C    0.014193
    10  C    0.125369
    11  C   -0.051243
    12  C   -0.021954
    13  C    0.005897
    14  C    0.462885
    15  O   -0.533123
    16  O   -0.251835
    17  N   -0.298454
    18  C    0.100260
    19  C   -0.008258
    20  C   -0.059000
    21  C    0.131423
    22  C   -0.042990
    23  C    0.320778
    24  O   -0.522627
    25  C   -0.030732
    26  N   -0.259759
    27  C    0.121401
    28  C    0.003879
    29  C   -0.000788
    30  C    0.113962
    31  C   -0.055821
    32  C   -0.028278
    33  C   -0.054082
    34  N   -0.330772
    35  C    0.128746
    36  C    0.040468
    37  C   -0.045750
    38  C    0.120755
    39  C   -0.034287
    40  C    0.336935
    41  O   -0.518016
    42  C    0.055884
    43  C    0.490127
    44  O   -0.492966
    45  O   -0.285081
    46  C    0.077429
    47  C    0.106925
    48  C   -0.100692
    49  C   -0.006359
    50  C   -0.050764
    51  C   -0.020831
    52  C   -0.025750
    53  C   -0.040122
    54  C   -0.002806
    55  C   -0.054287
    56  C   -0.033111
    57  C   -0.038373
    58  C   -0.033308
    59  C   -0.011615
    60  C   -0.068629
    61  C   -0.038808
    62  C   -0.046777
    63  C   -0.024968
    64  C   -0.013160
    65  C   -0.054372
    66  C   -0.070283
    67  H    0.018267
    68  H    0.039521
    69  H    0.023346
    70  H    0.064126
    71  H    0.022188
    72  H    0.033357
    73  H    0.013390
    74  H    0.022332
    75  H    0.026923
    76  H    0.016170
    77  H    0.040236
    78  H    0.043585
    79  H    0.030887
    80  H    0.034430
    81  H    0.018263
    82  H    0.040194
    83  H    0.015514
    84  H    0.041340
    85  H    0.046232
    86  H    0.035839
    87  H    0.026229
    88  H    0.029826
    89  H    0.017882
    90  H    0.009510
    91  H    0.017452
    92  H    0.022626
    93  H    0.024206
    94  H    0.029669
    95  H    0.035518
    96  H    0.034030
    97  H    0.023520
    98  H    0.056183
    99  H    0.043118
   100  H    0.054102
   101  H    0.026788
   102  H    0.044191
   103  H    0.058340
   104  H    0.019602
   105  H    0.032476
   106  H    0.025341
   107  H    0.033661
   108  H    0.013520
   109  H    0.025676
   110  H    0.026506
   111  H    0.025462
   112  H    0.029638
   113  H    0.004892
   114  H    0.011483
   115  H    0.013573
   116  H    0.019539
   117  H    0.021013
   118  H    0.016638
   119  H    0.013624
   120  H   -0.006520
   121  H    0.012342
   122  H    0.017977
   123  H    0.030623
   124  H    0.037147
   125  H    0.027453
   126  H    0.016876
   127  H    0.025020
   128  H    0.006026
   129  H    0.016329
   130  H    0.006669
   131  H    0.021117
   132  H    0.019090
   133  H    0.026209
   134  H    0.021786
   135  H    0.021795
   136  H    0.016864
   137  H    0.021313
   138  H    0.019789
   139  H    0.020017
   140  H    0.017760
 Sum of Mulliken charges =  -0.00000

 Dipole moment (field-independent basis, Debye):
    X=              5.2222    Y=              1.6970    Z=             -3.2914  Tot=              6.4019
 N-N= 4.263160177468D+03 E-N= 0.000000000000D+00  KE=-9.201315557992D+03
 Leave Link  601 at Fri Apr 29 13:12:18 2022, MaxMem=  6710886400 cpu:               0.8 elap:               0.0
 (Enter /sw/apps/gaussian-16.0/g16/l9999.exe)
 1\1\GINC-BP1-COMPUTE154\SP\RZINDO CIS\STO-3G\C55H74Mg1N4O6\OF15641\29-
 Apr-2022\0\\#p ZINDO=(nstates=5)\\step_301_chromophore_18 ZINDO\\0,1\M
 g,0,34.909,49.672,25.789\C,0,35.035,47.867,28.879\C,0,33.943,52.319,27
 .387\C,0,34.591,50.95,22.752\C,0,35.394,46.477,24.22\N,0,34.51,50.014,
 27.928\C,0,34.69,49.227,28.987\C,0,34.18,49.926,30.284\C,0,33.77,51.26
 6,29.72\C,0,34.086,51.267,28.262\C,0,32.281,51.608,29.889\C,0,35.312,5
 0.055,31.342\C,0,35.043,49.712,32.863\C,0,33.53,49.699,33.199\O,0,32.7

 Normal termination of Gaussian 16 at Fri Apr 29 13:12:18 2022.
