 Gaussian 16, Revision A.03,
 Gaussian 16:  ES64L-G16RevA.03 25-Dec-2016

 ------------------------------
 #p blyp/Def2SVP td=(nstates=5)
 ------------------------------

 -------------------------------------------------
 step_751_chromophore_9 TDDFT with blyp functional
 -------------------------------------------------
 Symbolic Z-matrix:
 Charge =  0 Multiplicity = 1

                         Standard orientation:
 ---------------------------------------------------------------------
 Center     Atomic      Atomic             Coordinates (Angstroms)
 Number     Number       Type             X           Y           Z
 ---------------------------------------------------------------------
      1         12           0       -4.867238    0.866409   -0.118198
      2          6           0       -4.105917   -2.532510   -0.013379
      3          6           0       -1.459160    1.565908    0.079088
      4          6           0       -5.667285    4.236784    0.129344
      5          6           0       -8.184814    0.056668    0.294325
      6          7           0       -2.943837   -0.379261    0.074310
      7          6           0       -2.917006   -1.712464    0.129680
      8          6           0       -1.473309   -2.258893   -0.002706
      9          6           0       -0.620947   -0.969802    0.382819
     10          6           0       -1.714182    0.155803    0.154681
     11          6           0       -0.133575   -0.933817    1.851013
     12          6           0       -1.201726   -2.904042   -1.348602
     13          6           0       -0.075675   -3.866236   -1.511294
     14          6           0        1.061584   -3.873996   -0.466144
     15          8           0        1.177705   -4.818976    0.308778
     16          8           0        1.891343   -2.848077   -0.490594
     17          7           0       -3.734687    2.663261    0.022578
     18          6           0       -2.313652    2.702433   -0.035510
     19          6           0       -2.000569    4.070476   -0.321866
     20          6           0       -3.070808    4.870590   -0.257043
     21          6           0       -4.237647    3.949951   -0.025345
     22          6           0       -0.510073    4.467281   -0.605104
     23          6           0       -3.307299    6.353773   -0.407441
     24          8           0       -4.420521    6.853886   -0.247277
     25          6           0       -2.150273    7.291072   -0.626017
     26          7           0       -6.622039    2.055385    0.184580
     27          6           0       -6.737210    3.385409    0.374006
     28          6           0       -8.233949    3.828713    0.482043
     29          6           0       -8.945740    2.477094    0.551118
     30          6           0       -7.870447    1.507344    0.319822
     31          6           0       -8.522545    4.729438    1.762728
     32          6           0      -10.037168    2.343821   -0.555058
     33          6           0       -9.524648    2.222189   -2.021377
     34          7           0       -5.943074   -0.832382    0.177476
     35          6           0       -7.338991   -1.045622    0.235133
     36          6           0       -7.633630   -2.468169    0.351233
     37          6           0       -6.386987   -3.079787    0.153409
     38          6           0       -5.400701   -2.055302    0.111114
     39          6           0       -8.851165   -3.253023    0.565893
     40          6           0       -5.713851   -4.350294    0.014869
     41          8           0       -6.112195   -5.512098    0.043066
     42          6           0       -4.216913   -4.085745   -0.183965
     43          6           0       -3.342792   -4.720828    0.885772
     44          8           0       -3.216800   -4.258902    2.019704
     45          8           0       -2.630430   -5.804613    0.447746
     46          6           0       -1.700326   -6.441430    1.376056
     47          6           0        3.053248   -2.804681    0.392502
     48          6           0        4.253704   -2.171835   -0.205057
     49          6           0        5.274642   -2.812630   -0.891295
     50          6           0        5.160975   -4.260770   -1.434550
     51          6           0        6.611152   -2.091347   -1.075354
     52          6           0        6.476093   -1.174454   -2.382904
     53          6           0        7.805206   -1.125102   -3.236675
     54          6           0        8.345650    0.331261   -3.613287
     55          6           0        7.948529    0.622668   -5.115661
     56          6           0        9.868549    0.370507   -3.381901
     57          6           0       10.017576    0.523594   -1.815013
     58          6           0       11.131511    1.551707   -1.491333
     59          6           0       10.610496    2.708591   -0.422217
     60          6           0       10.939556    4.077531   -0.877161
     61          6           0       11.181929    2.489551    0.951584
     62          6           0       10.328496    1.744800    1.924215
     63          6           0       11.176618    1.022528    3.016846
     64          6           0       10.522035    1.035203    4.517393
     65          6           0       11.496948    1.765203    5.460675
     66          6           0       10.275151   -0.343218    5.135834
     67          1           0       -0.375915    1.659033    0.178336
     68          1           0       -6.113114    5.229382    0.035541
     69          1           0       -9.224081   -0.258139    0.418954
     70          1           0       -1.280077   -3.004507    0.768738
     71          1           0        0.267277   -0.701626   -0.189494
     72          1           0       -0.058371   -1.875538    2.393736
     73          1           0       -0.885554   -0.315609    2.340744
     74          1           0        0.806712   -0.391604    1.948027
     75          1           0       -1.113732   -2.014798   -1.973202
     76          1           0       -2.056351   -3.463493   -1.727841
     77          1           0        0.347222   -3.630614   -2.487737
     78          1           0       -0.569223   -4.831098   -1.621658
     79          1           0       -0.531052    4.991699   -1.560120
     80          1           0        0.265538    3.703456   -0.540802
     81          1           0       -0.168446    5.200654    0.125056
     82          1           0       -1.517443    7.339302    0.260261
     83          1           0       -2.621658    8.272276   -0.686742
     84          1           0       -1.629424    7.203726   -1.579858
     85          1           0       -8.407317    4.296231   -0.487565
     86          1           0       -9.433629    2.360928    1.518584
     87          1           0       -8.581389    5.771585    1.448749
     88          1           0       -7.672275    4.784070    2.442937
     89          1           0       -9.326830    4.403380    2.422221
     90          1           0      -10.689218    3.217114   -0.568997
     91          1           0      -10.653232    1.504918   -0.231528
     92          1           0       -8.460619    2.362705   -2.207313
     93          1           0      -10.072443    2.964701   -2.600437
     94          1           0       -9.719787    1.212067   -2.382990
     95          1           0       -9.720711   -2.703784    0.205216
     96          1           0       -9.118427   -3.424678    1.608760
     97          1           0       -8.745424   -4.136148   -0.064300
     98          1           0       -3.786421   -4.321774   -1.157368
     99          1           0       -0.793062   -5.835787    1.360145
    100          1           0       -1.417847   -7.421067    0.991802
    101          1           0       -2.044795   -6.440368    2.410085
    102          1           0        3.303766   -3.823569    0.689591
    103          1           0        2.796989   -2.328229    1.338960
    104          1           0        4.408272   -1.121942    0.043103
    105          1           0        5.331542   -4.425820   -2.498342
    106          1           0        4.165086   -4.703394   -1.413033
    107          1           0        5.801377   -4.935561   -0.867186
    108          1           0        7.431468   -2.784285   -1.264547
    109          1           0        6.829079   -1.533118   -0.164123
    110          1           0        6.158208   -0.153356   -2.168992
    111          1           0        5.747354   -1.738035   -2.964092
    112          1           0        7.509409   -1.706547   -4.109980
    113          1           0        8.656385   -1.615929   -2.764681
    114          1           0        7.804759    1.037149   -2.982209
    115          1           0        7.332554   -0.198783   -5.482358
    116          1           0        8.763241    0.857309   -5.801427
    117          1           0        7.273159    1.476811   -5.093387
    118          1           0       10.413373    1.174649   -3.876140
    119          1           0       10.322894   -0.576766   -3.674676
    120          1           0       10.051190   -0.322938   -1.128396
    121          1           0        9.092528    0.847342   -1.338755
    122          1           0       11.713788    1.877563   -2.353405
    123          1           0       11.940629    0.973815   -1.045272
    124          1           0        9.528041    2.605439   -0.344367
    125          1           0       10.494501    4.291535   -1.849713
    126          1           0       12.029133    4.110449   -0.856399
    127          1           0       10.584024    4.809651   -0.152279
    128          1           0       11.136147    3.445478    1.473598
    129          1           0       12.179610    2.052269    1.006828
    130          1           0        9.869526    1.020545    1.250805
    131          1           0        9.562239    2.389914    2.353562
    132          1           0       12.225512    1.306285    2.937695
    133          1           0       11.154880   -0.033961    2.746991
    134          1           0        9.575002    1.570697    4.468082
    135          1           0       12.022620    1.030791    6.070749
    136          1           0       10.936774    2.462650    6.084619
    137          1           0       12.259359    2.270116    4.868437
    138          1           0        9.359313   -0.716132    4.678079
    139          1           0       10.081265   -0.293898    6.207412
    140          1           0       11.223625   -0.871842    5.040093
 ---------------------------------------------------------------------

 SCF Done:  E(RB-LYP) =  -3007.34776846     A.U. after   22 cycles

 Excitation energies and oscillator strengths:

 Excited State   1:      Singlet-A      1.7967 eV  690.08 nm  f=0.2656  <S**2>=0.000
     245 -> 248       -0.21219
     246 -> 247        0.68060
     246 <- 247       -0.13429
 This state for optimization and/or second-order correction.
 Total Energy, E(TD-HF/TD-DFT) =  -3007.28174238
 Copying the excited state density for this state as the 1-particle RhoCI density.

 Excited State   2:      Singlet-A      1.9624 eV  631.80 nm  f=0.0570  <S**2>=0.000
     243 -> 247        0.14556
     244 -> 247        0.12104
     245 -> 247        0.62430
     246 -> 248        0.25138

 Excited State   3:      Singlet-A      2.0932 eV  592.33 nm  f=0.0033  <S**2>=0.000
     244 -> 247        0.69409
     245 -> 247       -0.10390

 Excited State   4:      Singlet-A      2.1269 eV  582.92 nm  f=0.0020  <S**2>=0.000
     243 -> 247        0.68959
     245 -> 247       -0.11077

 Excited State   5:      Singlet-A      2.6059 eV  475.78 nm  f=0.0000  <S**2>=0.000
     241 -> 247        0.66243
     242 -> 247        0.23957

 The electronic state is 1-A.
 Alpha  occ. eigenvalues --  -46.27419 -18.83131 -18.81633 -18.76519 -18.75859
 Alpha  occ. eigenvalues --  -18.75447 -18.75321 -14.03188 -14.03032 -14.00972
 Alpha  occ. eigenvalues --  -14.00862 -10.04576 -10.03553  -9.99694  -9.99537
 Alpha  occ. eigenvalues --   -9.98403  -9.96747  -9.96587  -9.96250  -9.96231
 Alpha  occ. eigenvalues --   -9.96073  -9.95738  -9.95507  -9.95477  -9.95203
 Alpha  occ. eigenvalues --   -9.94289  -9.94126  -9.94085  -9.93945  -9.93810
 Alpha  occ. eigenvalues --   -9.93720  -9.93499  -9.93410  -9.93337  -9.93305
 Alpha  occ. eigenvalues --   -9.93279  -9.93254  -9.93138  -9.93033  -9.92908
 Alpha  occ. eigenvalues --   -9.92836  -9.92795  -9.92794  -9.92738  -9.92705
 Alpha  occ. eigenvalues --   -9.92280  -9.92253  -9.92228  -9.92084  -9.92041
 Alpha  occ. eigenvalues --   -9.91955  -9.91859  -9.91838  -9.91798  -9.91798
 Alpha  occ. eigenvalues --   -9.91576  -9.91576  -9.91538  -9.91457  -9.91135
 Alpha  occ. eigenvalues --   -9.91077  -9.91021  -9.90960  -9.90735  -9.90531
 Alpha  occ. eigenvalues --   -9.90329  -2.91958  -1.72382  -1.71839  -1.71672
 Alpha  occ. eigenvalues --   -0.99724  -0.96949  -0.91066  -0.90942  -0.90056
 Alpha  occ. eigenvalues --   -0.88716  -0.86618  -0.86256  -0.85393  -0.83664
 Alpha  occ. eigenvalues --   -0.74982  -0.73869  -0.73596  -0.73179  -0.72648
 Alpha  occ. eigenvalues --   -0.72049  -0.71070  -0.70841  -0.70430  -0.69869
 Alpha  occ. eigenvalues --   -0.69559  -0.69217  -0.68214  -0.67296  -0.66865
 Alpha  occ. eigenvalues --   -0.66283  -0.65919  -0.65249  -0.64678  -0.64545
 Alpha  occ. eigenvalues --   -0.64112  -0.62581  -0.62056  -0.61609  -0.61104
 Alpha  occ. eigenvalues --   -0.60438  -0.59788  -0.59694  -0.59620  -0.59041
 Alpha  occ. eigenvalues --   -0.58447  -0.57468  -0.56466  -0.55443  -0.55227
 Alpha  occ. eigenvalues --   -0.53998  -0.53538  -0.52890  -0.52217  -0.51663
 Alpha  occ. eigenvalues --   -0.51454  -0.50590  -0.50538  -0.50292  -0.50198
 Alpha  occ. eigenvalues --   -0.49764  -0.49748  -0.48967  -0.47865  -0.47327
 Alpha  occ. eigenvalues --   -0.46266  -0.46129  -0.45424  -0.44913  -0.44271
 Alpha  occ. eigenvalues --   -0.44034  -0.43922  -0.43631  -0.42921  -0.42686
 Alpha  occ. eigenvalues --   -0.42187  -0.42008  -0.41844  -0.41632  -0.41149
 Alpha  occ. eigenvalues --   -0.40755  -0.40653  -0.40357  -0.40242  -0.39861
 Alpha  occ. eigenvalues --   -0.39733  -0.39554  -0.39543  -0.39481  -0.39347
 Alpha  occ. eigenvalues --   -0.39132  -0.38912  -0.38601  -0.38443  -0.38323
 Alpha  occ. eigenvalues --   -0.37912  -0.37862  -0.37458  -0.37117  -0.37028
 Alpha  occ. eigenvalues --   -0.36926  -0.36820  -0.36647  -0.36641  -0.36336
 Alpha  occ. eigenvalues --   -0.35985  -0.35802  -0.35657  -0.35487  -0.35329
 Alpha  occ. eigenvalues --   -0.35274  -0.35087  -0.34903  -0.34715  -0.34562
 Alpha  occ. eigenvalues --   -0.34413  -0.34102  -0.33960  -0.33809  -0.33551
 Alpha  occ. eigenvalues --   -0.33452  -0.33336  -0.33120  -0.33046  -0.33024
 Alpha  occ. eigenvalues --   -0.32844  -0.32618  -0.32591  -0.32268  -0.32217
 Alpha  occ. eigenvalues --   -0.31988  -0.31895  -0.31877  -0.31579  -0.31360
 Alpha  occ. eigenvalues --   -0.31274  -0.31162  -0.31019  -0.30836  -0.30443
 Alpha  occ. eigenvalues --   -0.30329  -0.30122  -0.29993  -0.29879  -0.29789
 Alpha  occ. eigenvalues --   -0.29682  -0.29563  -0.29494  -0.29112  -0.28938
 Alpha  occ. eigenvalues --   -0.28640  -0.28537  -0.28357  -0.28263  -0.28093
 Alpha  occ. eigenvalues --   -0.27827  -0.27600  -0.27494  -0.26952  -0.26288
 Alpha  occ. eigenvalues --   -0.26227  -0.25896  -0.25772  -0.25531  -0.25370
 Alpha  occ. eigenvalues --   -0.25132  -0.24417  -0.23998  -0.23527  -0.23516
 Alpha  occ. eigenvalues --   -0.23383  -0.22119  -0.21811  -0.21149  -0.21045
 Alpha  occ. eigenvalues --   -0.20559  -0.20238  -0.18613  -0.18550  -0.16728
 Alpha  occ. eigenvalues --   -0.15395
 Alpha virt. eigenvalues --   -0.10969  -0.07014  -0.06219  -0.04884  -0.04649
 Alpha virt. eigenvalues --   -0.02869  -0.02732  -0.02244  -0.01083   0.00493
 Alpha virt. eigenvalues --    0.01390   0.01680   0.01903   0.02707   0.02907

 Mulliken charges:
               1
     1  Mg   0.697543
     2  C   -0.090451
     3  C   -0.020345
     4  C   -0.005627
     5  C   -0.083865
     6  N   -0.156989
     7  C   -0.037883
     8  C   -0.001633
     9  C   -0.006471
    10  C   -0.086632
    11  C    0.110235
    12  C    0.107944
    13  C    0.199558
    14  C    0.062824
    15  O   -0.209162
    16  O   -0.233780
    17  N   -0.306257
    18  C    0.172579
    19  C   -0.138811
    20  C    0.083741
    21  C    0.088084
    22  C    0.164588
    23  C   -0.084628
    24  O   -0.167322
    25  C    0.123062
    26  N   -0.205683
    27  C   -0.051162
    28  C    0.038448
    29  C    0.067112
    30  C    0.028806
    31  C    0.119706
    32  C    0.048832
    33  C    0.065314
    34  N   -0.293914
    35  C    0.120768
    36  C   -0.161080
    37  C    0.093319
    38  C    0.096750
    39  C    0.178535
    40  C   -0.039735
    41  O   -0.138881
    42  C    0.111794
    43  C    0.106945
    44  O   -0.200420
    45  O   -0.266593
    46  C    0.213018
    47  C    0.314170
    48  C   -0.091284
    49  C   -0.133357
    50  C    0.111712
    51  C    0.129283
    52  C    0.060672
    53  C    0.064713
    54  C   -0.103986
    55  C    0.120433
    56  C    0.146775
    57  C    0.027279
    58  C    0.096864
    59  C   -0.035659
    60  C    0.116649
    61  C    0.078369
    62  C    0.059287
    63  C    0.099356
    64  C   -0.111609
    65  C    0.105686
    66  C    0.110867
    67  H   -0.071382
    68  H   -0.045552
    69  H   -0.074015
    70  H   -0.004012
    71  H   -0.027217
    72  H    0.013377
    73  H   -0.006157
    74  H   -0.013170
    75  H   -0.030898
    76  H   -0.028217
    77  H   -0.017907
    78  H   -0.008188
    79  H   -0.002958
    80  H   -0.009836
    81  H   -0.011883
    82  H    0.015479
    83  H   -0.021989
    84  H    0.007365
    85  H   -0.012198
    86  H   -0.026266
    87  H   -0.001569
    88  H   -0.009951
    89  H   -0.003309
    90  H   -0.022150
    91  H   -0.017214
    92  H    0.006110
    93  H   -0.007850
    94  H   -0.006016
    95  H   -0.032482
    96  H    0.013938
    97  H    0.020211
    98  H    0.001285
    99  H    0.014899
   100  H    0.013640
   101  H    0.016692
   102  H   -0.005932
   103  H   -0.005821
   104  H   -0.039250
   105  H   -0.001036
   106  H   -0.010594
   107  H    0.009126
   108  H   -0.026671
   109  H   -0.009538
   110  H   -0.011225
   111  H   -0.018460
   112  H   -0.025408
   113  H   -0.020576
   114  H   -0.023614
   115  H   -0.025106
   116  H   -0.010044
   117  H   -0.026236
   118  H   -0.020804
   119  H   -0.021824
   120  H   -0.034150
   121  H   -0.040478
   122  H   -0.036481
   123  H   -0.049211
   124  H   -0.042520
   125  H   -0.017238
   126  H   -0.015031
   127  H   -0.022010
   128  H   -0.048618
   129  H   -0.024385
   130  H   -0.045911
   131  H   -0.025359
   132  H   -0.020892
   133  H   -0.045151
   134  H   -0.034120
   135  H   -0.023106
   136  H   -0.010896
   137  H   -0.022104
   138  H   -0.014190
   139  H   -0.017701
   140  H   -0.006448
 Sum of Mulliken charges =  -0.00000

 Dipole moment (field-independent basis, Debye):
    X=              4.3192    Y=              2.2232    Z=             -2.7145  Tot=              5.5648
 Quadrupole moment (field-independent basis, Debye-Ang):
   XX=           -370.7246   YY=           -444.6790   ZZ=           -404.2513
   XY=            -22.5576   XZ=              1.7887   YZ=              8.7414

 Normal termination of Gaussian 16 at Thu May  5 10:13:19 2022.
