 Gaussian 16, Revision A.03,
 Gaussian 16:  ES64L-G16RevA.03 25-Dec-2016

 -----------------------------------
 #p cam-b3lyp/Def2SVP td=(nstates=5)
 -----------------------------------

 ------------------------------------------------------
 step_751_chromophore_9 TDDFT with cam-b3lyp functional
 ------------------------------------------------------
 Symbolic Z-matrix:
 Charge =  0 Multiplicity = 1

                         Standard orientation:
 ---------------------------------------------------------------------
 Center     Atomic      Atomic             Coordinates (Angstroms)
 Number     Number       Type             X           Y           Z
 ---------------------------------------------------------------------
      1         12           0       -4.867238    0.866409   -0.118198
      2          6           0       -4.105917   -2.532510   -0.013379
      3          6           0       -1.459160    1.565908    0.079088
      4          6           0       -5.667285    4.236784    0.129344
      5          6           0       -8.184814    0.056668    0.294325
      6          7           0       -2.943837   -0.379261    0.074310
      7          6           0       -2.917006   -1.712464    0.129680
      8          6           0       -1.473309   -2.258893   -0.002706
      9          6           0       -0.620947   -0.969802    0.382819
     10          6           0       -1.714182    0.155803    0.154681
     11          6           0       -0.133575   -0.933817    1.851013
     12          6           0       -1.201726   -2.904042   -1.348602
     13          6           0       -0.075675   -3.866236   -1.511294
     14          6           0        1.061584   -3.873996   -0.466144
     15          8           0        1.177705   -4.818976    0.308778
     16          8           0        1.891343   -2.848077   -0.490594
     17          7           0       -3.734687    2.663261    0.022578
     18          6           0       -2.313652    2.702433   -0.035510
     19          6           0       -2.000569    4.070476   -0.321866
     20          6           0       -3.070808    4.870590   -0.257043
     21          6           0       -4.237647    3.949951   -0.025345
     22          6           0       -0.510073    4.467281   -0.605104
     23          6           0       -3.307299    6.353773   -0.407441
     24          8           0       -4.420521    6.853886   -0.247277
     25          6           0       -2.150273    7.291072   -0.626017
     26          7           0       -6.622039    2.055385    0.184580
     27          6           0       -6.737210    3.385409    0.374006
     28          6           0       -8.233949    3.828713    0.482043
     29          6           0       -8.945740    2.477094    0.551118
     30          6           0       -7.870447    1.507344    0.319822
     31          6           0       -8.522545    4.729438    1.762728
     32          6           0      -10.037168    2.343821   -0.555058
     33          6           0       -9.524648    2.222189   -2.021377
     34          7           0       -5.943074   -0.832382    0.177476
     35          6           0       -7.338991   -1.045622    0.235133
     36          6           0       -7.633630   -2.468169    0.351233
     37          6           0       -6.386987   -3.079787    0.153409
     38          6           0       -5.400701   -2.055302    0.111114
     39          6           0       -8.851165   -3.253023    0.565893
     40          6           0       -5.713851   -4.350294    0.014869
     41          8           0       -6.112195   -5.512098    0.043066
     42          6           0       -4.216913   -4.085745   -0.183965
     43          6           0       -3.342792   -4.720828    0.885772
     44          8           0       -3.216800   -4.258902    2.019704
     45          8           0       -2.630430   -5.804613    0.447746
     46          6           0       -1.700326   -6.441430    1.376056
     47          6           0        3.053248   -2.804681    0.392502
     48          6           0        4.253704   -2.171835   -0.205057
     49          6           0        5.274642   -2.812630   -0.891295
     50          6           0        5.160975   -4.260770   -1.434550
     51          6           0        6.611152   -2.091347   -1.075354
     52          6           0        6.476093   -1.174454   -2.382904
     53          6           0        7.805206   -1.125102   -3.236675
     54          6           0        8.345650    0.331261   -3.613287
     55          6           0        7.948529    0.622668   -5.115661
     56          6           0        9.868549    0.370507   -3.381901
     57          6           0       10.017576    0.523594   -1.815013
     58          6           0       11.131511    1.551707   -1.491333
     59          6           0       10.610496    2.708591   -0.422217
     60          6           0       10.939556    4.077531   -0.877161
     61          6           0       11.181929    2.489551    0.951584
     62          6           0       10.328496    1.744800    1.924215
     63          6           0       11.176618    1.022528    3.016846
     64          6           0       10.522035    1.035203    4.517393
     65          6           0       11.496948    1.765203    5.460675
     66          6           0       10.275151   -0.343218    5.135834
     67          1           0       -0.375915    1.659033    0.178336
     68          1           0       -6.113114    5.229382    0.035541
     69          1           0       -9.224081   -0.258139    0.418954
     70          1           0       -1.280077   -3.004507    0.768738
     71          1           0        0.267277   -0.701626   -0.189494
     72          1           0       -0.058371   -1.875538    2.393736
     73          1           0       -0.885554   -0.315609    2.340744
     74          1           0        0.806712   -0.391604    1.948027
     75          1           0       -1.113732   -2.014798   -1.973202
     76          1           0       -2.056351   -3.463493   -1.727841
     77          1           0        0.347222   -3.630614   -2.487737
     78          1           0       -0.569223   -4.831098   -1.621658
     79          1           0       -0.531052    4.991699   -1.560120
     80          1           0        0.265538    3.703456   -0.540802
     81          1           0       -0.168446    5.200654    0.125056
     82          1           0       -1.517443    7.339302    0.260261
     83          1           0       -2.621658    8.272276   -0.686742
     84          1           0       -1.629424    7.203726   -1.579858
     85          1           0       -8.407317    4.296231   -0.487565
     86          1           0       -9.433629    2.360928    1.518584
     87          1           0       -8.581389    5.771585    1.448749
     88          1           0       -7.672275    4.784070    2.442937
     89          1           0       -9.326830    4.403380    2.422221
     90          1           0      -10.689218    3.217114   -0.568997
     91          1           0      -10.653232    1.504918   -0.231528
     92          1           0       -8.460619    2.362705   -2.207313
     93          1           0      -10.072443    2.964701   -2.600437
     94          1           0       -9.719787    1.212067   -2.382990
     95          1           0       -9.720711   -2.703784    0.205216
     96          1           0       -9.118427   -3.424678    1.608760
     97          1           0       -8.745424   -4.136148   -0.064300
     98          1           0       -3.786421   -4.321774   -1.157368
     99          1           0       -0.793062   -5.835787    1.360145
    100          1           0       -1.417847   -7.421067    0.991802
    101          1           0       -2.044795   -6.440368    2.410085
    102          1           0        3.303766   -3.823569    0.689591
    103          1           0        2.796989   -2.328229    1.338960
    104          1           0        4.408272   -1.121942    0.043103
    105          1           0        5.331542   -4.425820   -2.498342
    106          1           0        4.165086   -4.703394   -1.413033
    107          1           0        5.801377   -4.935561   -0.867186
    108          1           0        7.431468   -2.784285   -1.264547
    109          1           0        6.829079   -1.533118   -0.164123
    110          1           0        6.158208   -0.153356   -2.168992
    111          1           0        5.747354   -1.738035   -2.964092
    112          1           0        7.509409   -1.706547   -4.109980
    113          1           0        8.656385   -1.615929   -2.764681
    114          1           0        7.804759    1.037149   -2.982209
    115          1           0        7.332554   -0.198783   -5.482358
    116          1           0        8.763241    0.857309   -5.801427
    117          1           0        7.273159    1.476811   -5.093387
    118          1           0       10.413373    1.174649   -3.876140
    119          1           0       10.322894   -0.576766   -3.674676
    120          1           0       10.051190   -0.322938   -1.128396
    121          1           0        9.092528    0.847342   -1.338755
    122          1           0       11.713788    1.877563   -2.353405
    123          1           0       11.940629    0.973815   -1.045272
    124          1           0        9.528041    2.605439   -0.344367
    125          1           0       10.494501    4.291535   -1.849713
    126          1           0       12.029133    4.110449   -0.856399
    127          1           0       10.584024    4.809651   -0.152279
    128          1           0       11.136147    3.445478    1.473598
    129          1           0       12.179610    2.052269    1.006828
    130          1           0        9.869526    1.020545    1.250805
    131          1           0        9.562239    2.389914    2.353562
    132          1           0       12.225512    1.306285    2.937695
    133          1           0       11.154880   -0.033961    2.746991
    134          1           0        9.575002    1.570697    4.468082
    135          1           0       12.022620    1.030791    6.070749
    136          1           0       10.936774    2.462650    6.084619
    137          1           0       12.259359    2.270116    4.868437
    138          1           0        9.359313   -0.716132    4.678079
    139          1           0       10.081265   -0.293898    6.207412
    140          1           0       11.223625   -0.871842    5.040093
 ---------------------------------------------------------------------

 SCF Done:  E(RCAM-B3LYP) =  -3007.13632588     A.U. after   17 cycles

 Excitation energies and oscillator strengths:

 Excited State   1:      Singlet-A      1.7228 eV  719.68 nm  f=0.3419  <S**2>=0.000
     245 -> 248       -0.20633
     246 -> 247        0.67780
     245 <- 248       -0.11191
 This state for optimization and/or second-order correction.
 Total Energy, E(TD-HF/TD-DFT) =  -3007.07301551
 Copying the excited state density for this state as the 1-particle RhoCI density.

 Excited State   2:      Singlet-A      2.2139 eV  560.02 nm  f=0.0653  <S**2>=0.000
     245 -> 247        0.61595
     246 -> 248        0.33991

 Excited State   3:      Singlet-A      3.3831 eV  366.48 nm  f=0.7219  <S**2>=0.000
     242 -> 247       -0.17792
     245 -> 247       -0.31578
     246 -> 248        0.58337
     245 <- 247        0.10977

 Excited State   4:      Singlet-A      3.4778 eV  356.51 nm  f=0.0681  <S**2>=0.000
     239 -> 247        0.38895
     239 -> 249       -0.25740
     239 -> 251       -0.10595
     240 -> 247        0.14134
     240 -> 249       -0.13681
     242 -> 247        0.20752
     242 -> 249       -0.12223
     244 -> 247       -0.32678
     245 -> 247       -0.10210
     246 -> 248        0.16787

 Excited State   5:      Singlet-A      3.6118 eV  343.27 nm  f=0.0062  <S**2>=0.000
     239 -> 247        0.23547
     239 -> 249       -0.16577
     240 -> 247        0.23013
     244 -> 247        0.57390

 The electronic state is 1-A.
 Alpha  occ. eigenvalues --  -46.88956 -19.26029 -19.24574 -19.19399 -19.19040
 Alpha  occ. eigenvalues --  -19.19019 -19.18420 -14.42079 -14.41866 -14.39353
 Alpha  occ. eigenvalues --  -14.39323 -10.39795 -10.39125 -10.35160 -10.34752
 Alpha  occ. eigenvalues --  -10.32531 -10.31465 -10.31234 -10.30422 -10.30324
 Alpha  occ. eigenvalues --  -10.30303 -10.30206 -10.29687 -10.29483 -10.29414
 Alpha  occ. eigenvalues --  -10.28769 -10.28693 -10.28613 -10.28062 -10.27835
 Alpha  occ. eigenvalues --  -10.27819 -10.27793 -10.27485 -10.27478 -10.27432
 Alpha  occ. eigenvalues --  -10.27033 -10.27005 -10.26992 -10.26963 -10.26921
 Alpha  occ. eigenvalues --  -10.26704 -10.26628 -10.26620 -10.26515 -10.26470
 Alpha  occ. eigenvalues --  -10.26162 -10.26045 -10.25957 -10.25856 -10.25772
 Alpha  occ. eigenvalues --  -10.25749 -10.25665 -10.25549 -10.25540 -10.25539
 Alpha  occ. eigenvalues --  -10.25473 -10.25394 -10.25323 -10.25256 -10.25140
 Alpha  occ. eigenvalues --  -10.24713 -10.24662 -10.24544 -10.24270 -10.24114
 Alpha  occ. eigenvalues --  -10.23917  -3.17394  -1.92296  -1.91839  -1.91702
 Alpha  occ. eigenvalues --   -1.18184  -1.15513  -1.09688  -1.09334  -1.07903
 Alpha  occ. eigenvalues --   -1.06700  -1.04389  -1.03933  -1.03086  -1.00935
 Alpha  occ. eigenvalues --   -0.92270  -0.90709  -0.90413  -0.89983  -0.89353
 Alpha  occ. eigenvalues --   -0.88711  -0.87878  -0.87415  -0.86963  -0.86307
 Alpha  occ. eigenvalues --   -0.86018  -0.85460  -0.84438  -0.83385  -0.83071
 Alpha  occ. eigenvalues --   -0.82325  -0.81837  -0.81282  -0.80613  -0.80362
 Alpha  occ. eigenvalues --   -0.79864  -0.78338  -0.77596  -0.77080  -0.76438
 Alpha  occ. eigenvalues --   -0.75886  -0.75097  -0.74942  -0.74881  -0.74278
 Alpha  occ. eigenvalues --   -0.73389  -0.72554  -0.71305  -0.70189  -0.69917
 Alpha  occ. eigenvalues --   -0.68719  -0.68004  -0.67196  -0.66545  -0.65933
 Alpha  occ. eigenvalues --   -0.65554  -0.64596  -0.64421  -0.64372  -0.64241
 Alpha  occ. eigenvalues --   -0.63737  -0.63631  -0.62873  -0.61614  -0.60957
 Alpha  occ. eigenvalues --   -0.59948  -0.59756  -0.58875  -0.58448  -0.57946
 Alpha  occ. eigenvalues --   -0.57357  -0.57260  -0.56854  -0.55922  -0.55826
 Alpha  occ. eigenvalues --   -0.55260  -0.54864  -0.54812  -0.54664  -0.54092
 Alpha  occ. eigenvalues --   -0.53640  -0.53460  -0.53315  -0.52829  -0.52753
 Alpha  occ. eigenvalues --   -0.52350  -0.52251  -0.52128  -0.52117  -0.51957
 Alpha  occ. eigenvalues --   -0.51851  -0.51507  -0.51162  -0.51031  -0.50821
 Alpha  occ. eigenvalues --   -0.50465  -0.50170  -0.49812  -0.49554  -0.49237
 Alpha  occ. eigenvalues --   -0.49125  -0.49102  -0.48884  -0.48723  -0.48584
 Alpha  occ. eigenvalues --   -0.48522  -0.48355  -0.47691  -0.47649  -0.47516
 Alpha  occ. eigenvalues --   -0.47325  -0.47191  -0.46932  -0.46654  -0.46536
 Alpha  occ. eigenvalues --   -0.46078  -0.45714  -0.45648  -0.45594  -0.45450
 Alpha  occ. eigenvalues --   -0.45286  -0.45192  -0.45004  -0.44800  -0.44574
 Alpha  occ. eigenvalues --   -0.44505  -0.44430  -0.44293  -0.43987  -0.43805
 Alpha  occ. eigenvalues --   -0.43624  -0.43396  -0.43270  -0.43136  -0.42896
 Alpha  occ. eigenvalues --   -0.42706  -0.42662  -0.42485  -0.42241  -0.41892
 Alpha  occ. eigenvalues --   -0.41736  -0.41369  -0.41278  -0.41140  -0.41074
 Alpha  occ. eigenvalues --   -0.40993  -0.40906  -0.40709  -0.40627  -0.40447
 Alpha  occ. eigenvalues --   -0.39780  -0.39551  -0.39441  -0.39180  -0.38955
 Alpha  occ. eigenvalues --   -0.38922  -0.38440  -0.38374  -0.37781  -0.37465
 Alpha  occ. eigenvalues --   -0.37241  -0.36847  -0.36486  -0.36116  -0.36108
 Alpha  occ. eigenvalues --   -0.35666  -0.35460  -0.34977  -0.34307  -0.33964
 Alpha  occ. eigenvalues --   -0.33871  -0.33615  -0.32812  -0.31277  -0.31089
 Alpha  occ. eigenvalues --   -0.30736  -0.30488  -0.30405  -0.29305  -0.23421
 Alpha  occ. eigenvalues --   -0.20579
 Alpha virt. eigenvalues --   -0.07864  -0.02017   0.00160   0.02266   0.02368
 Alpha virt. eigenvalues --    0.02529   0.04989   0.05381   0.06403   0.07067
 Alpha virt. eigenvalues --    0.07779   0.08046   0.08465   0.09096   0.09338

 Mulliken charges:
               1
     1  Mg   0.827834
     2  C   -0.112199
     3  C   -0.033829
     4  C   -0.024627
     5  C   -0.093734
     6  N   -0.222436
     7  C    0.012918
     8  C   -0.061990
     9  C   -0.056858
    10  C   -0.070798
    11  C    0.055955
    12  C    0.062532
    13  C    0.131914
    14  C    0.135066
    15  O   -0.253049
    16  O   -0.295968
    17  N   -0.387714
    18  C    0.172178
    19  C   -0.145377
    20  C    0.006193
    21  C    0.112932
    22  C    0.113631
    23  C   -0.004252
    24  O   -0.209229
    25  C    0.040523
    26  N   -0.274962
    27  C   -0.025445
    28  C   -0.025546
    29  C    0.007742
    30  C    0.048754
    31  C    0.062505
    32  C   -0.000480
    33  C   -0.000564
    34  N   -0.384941
    35  C    0.128445
    36  C   -0.153076
    37  C    0.011529
    38  C    0.131644
    39  C    0.124177
    40  C    0.058822
    41  O   -0.173727
    42  C    0.035880
    43  C    0.194572
    44  O   -0.236544
    45  O   -0.330349
    46  C    0.173251
    47  C    0.279462
    48  C   -0.112222
    49  C   -0.159391
    50  C    0.053278
    51  C    0.072540
    52  C    0.011536
    53  C    0.014341
    54  C   -0.160148
    55  C    0.064506
    56  C    0.089250
    57  C   -0.017200
    58  C    0.039094
    59  C   -0.094871
    60  C    0.058537
    61  C    0.022595
    62  C    0.014662
    63  C    0.042045
    64  C   -0.166665
    65  C    0.045583
    66  C    0.048643
    67  H   -0.037263
    68  H   -0.007282
    69  H   -0.039197
    70  H    0.026968
    71  H    0.008654
    72  H    0.036028
    73  H    0.021189
    74  H    0.009102
    75  H    0.000404
    76  H   -0.000477
    77  H    0.016938
    78  H    0.025273
    79  H    0.020323
    80  H    0.016977
    81  H    0.012443
    82  H    0.042916
    83  H    0.014540
    84  H    0.035530
    85  H    0.022108
    86  H    0.011204
    87  H    0.022622
    88  H    0.017210
    89  H    0.019971
    90  H    0.007953
    91  H    0.010200
    92  H    0.028268
    93  H    0.016822
    94  H    0.018377
    95  H   -0.005548
    96  H    0.042817
    97  H    0.047277
    98  H    0.043948
    99  H    0.036772
   100  H    0.037344
   101  H    0.042356
   102  H    0.028499
   103  H    0.021006
   104  H   -0.006824
   105  H    0.023129
   106  H    0.013150
   107  H    0.033022
   108  H    0.004272
   109  H    0.018658
   110  H    0.013688
   111  H    0.010449
   112  H    0.002611
   113  H    0.004729
   114  H    0.006663
   115  H   -0.001429
   116  H    0.013650
   117  H   -0.001918
   118  H    0.008129
   119  H    0.006858
   120  H   -0.007697
   121  H   -0.016985
   122  H   -0.007016
   123  H   -0.018779
   124  H   -0.009917
   125  H    0.008131
   126  H    0.007655
   127  H    0.002640
   128  H   -0.017390
   129  H    0.002932
   130  H   -0.021212
   131  H    0.000890
   132  H    0.006238
   133  H   -0.014299
   134  H   -0.003426
   135  H    0.000956
   136  H    0.013416
   137  H    0.002047
   138  H    0.010391
   139  H    0.007861
   140  H    0.015577
 Sum of Mulliken charges =  -0.00000

 Dipole moment (field-independent basis, Debye):
    X=              4.2363    Y=              2.1547    Z=             -2.8541  Tot=              5.5439
 Quadrupole moment (field-independent basis, Debye-Ang):
   XX=           -366.8606   YY=           -441.6949   ZZ=           -404.1747
   XY=            -20.8236   XZ=              2.3871   YZ=              8.7802

 Normal termination of Gaussian 16 at Thu May  5 08:48:42 2022.
