 Gaussian 16, Revision A.03,
 Gaussian 16:  ES64L-G16RevA.03 25-Dec-2016

 ---------------------------------
 #p PBE1PBE/Def2SVP td=(nstates=5)
 ---------------------------------

 ----------------------------------------------------
 step_751_chromophore_9 TDDFT with PBE1PBE functional
 ----------------------------------------------------
 Symbolic Z-matrix:
 Charge =  0 Multiplicity = 1

                         Standard orientation:
 ---------------------------------------------------------------------
 Center     Atomic      Atomic             Coordinates (Angstroms)
 Number     Number       Type             X           Y           Z
 ---------------------------------------------------------------------
      1         12           0       -4.867238    0.866409   -0.118198
      2          6           0       -4.105917   -2.532510   -0.013379
      3          6           0       -1.459160    1.565908    0.079088
      4          6           0       -5.667285    4.236784    0.129344
      5          6           0       -8.184814    0.056668    0.294325
      6          7           0       -2.943837   -0.379261    0.074310
      7          6           0       -2.917006   -1.712464    0.129680
      8          6           0       -1.473309   -2.258893   -0.002706
      9          6           0       -0.620947   -0.969802    0.382819
     10          6           0       -1.714182    0.155803    0.154681
     11          6           0       -0.133575   -0.933817    1.851013
     12          6           0       -1.201726   -2.904042   -1.348602
     13          6           0       -0.075675   -3.866236   -1.511294
     14          6           0        1.061584   -3.873996   -0.466144
     15          8           0        1.177705   -4.818976    0.308778
     16          8           0        1.891343   -2.848077   -0.490594
     17          7           0       -3.734687    2.663261    0.022578
     18          6           0       -2.313652    2.702433   -0.035510
     19          6           0       -2.000569    4.070476   -0.321866
     20          6           0       -3.070808    4.870590   -0.257043
     21          6           0       -4.237647    3.949951   -0.025345
     22          6           0       -0.510073    4.467281   -0.605104
     23          6           0       -3.307299    6.353773   -0.407441
     24          8           0       -4.420521    6.853886   -0.247277
     25          6           0       -2.150273    7.291072   -0.626017
     26          7           0       -6.622039    2.055385    0.184580
     27          6           0       -6.737210    3.385409    0.374006
     28          6           0       -8.233949    3.828713    0.482043
     29          6           0       -8.945740    2.477094    0.551118
     30          6           0       -7.870447    1.507344    0.319822
     31          6           0       -8.522545    4.729438    1.762728
     32          6           0      -10.037168    2.343821   -0.555058
     33          6           0       -9.524648    2.222189   -2.021377
     34          7           0       -5.943074   -0.832382    0.177476
     35          6           0       -7.338991   -1.045622    0.235133
     36          6           0       -7.633630   -2.468169    0.351233
     37          6           0       -6.386987   -3.079787    0.153409
     38          6           0       -5.400701   -2.055302    0.111114
     39          6           0       -8.851165   -3.253023    0.565893
     40          6           0       -5.713851   -4.350294    0.014869
     41          8           0       -6.112195   -5.512098    0.043066
     42          6           0       -4.216913   -4.085745   -0.183965
     43          6           0       -3.342792   -4.720828    0.885772
     44          8           0       -3.216800   -4.258902    2.019704
     45          8           0       -2.630430   -5.804613    0.447746
     46          6           0       -1.700326   -6.441430    1.376056
     47          6           0        3.053248   -2.804681    0.392502
     48          6           0        4.253704   -2.171835   -0.205057
     49          6           0        5.274642   -2.812630   -0.891295
     50          6           0        5.160975   -4.260770   -1.434550
     51          6           0        6.611152   -2.091347   -1.075354
     52          6           0        6.476093   -1.174454   -2.382904
     53          6           0        7.805206   -1.125102   -3.236675
     54          6           0        8.345650    0.331261   -3.613287
     55          6           0        7.948529    0.622668   -5.115661
     56          6           0        9.868549    0.370507   -3.381901
     57          6           0       10.017576    0.523594   -1.815013
     58          6           0       11.131511    1.551707   -1.491333
     59          6           0       10.610496    2.708591   -0.422217
     60          6           0       10.939556    4.077531   -0.877161
     61          6           0       11.181929    2.489551    0.951584
     62          6           0       10.328496    1.744800    1.924215
     63          6           0       11.176618    1.022528    3.016846
     64          6           0       10.522035    1.035203    4.517393
     65          6           0       11.496948    1.765203    5.460675
     66          6           0       10.275151   -0.343218    5.135834
     67          1           0       -0.375915    1.659033    0.178336
     68          1           0       -6.113114    5.229382    0.035541
     69          1           0       -9.224081   -0.258139    0.418954
     70          1           0       -1.280077   -3.004507    0.768738
     71          1           0        0.267277   -0.701626   -0.189494
     72          1           0       -0.058371   -1.875538    2.393736
     73          1           0       -0.885554   -0.315609    2.340744
     74          1           0        0.806712   -0.391604    1.948027
     75          1           0       -1.113732   -2.014798   -1.973202
     76          1           0       -2.056351   -3.463493   -1.727841
     77          1           0        0.347222   -3.630614   -2.487737
     78          1           0       -0.569223   -4.831098   -1.621658
     79          1           0       -0.531052    4.991699   -1.560120
     80          1           0        0.265538    3.703456   -0.540802
     81          1           0       -0.168446    5.200654    0.125056
     82          1           0       -1.517443    7.339302    0.260261
     83          1           0       -2.621658    8.272276   -0.686742
     84          1           0       -1.629424    7.203726   -1.579858
     85          1           0       -8.407317    4.296231   -0.487565
     86          1           0       -9.433629    2.360928    1.518584
     87          1           0       -8.581389    5.771585    1.448749
     88          1           0       -7.672275    4.784070    2.442937
     89          1           0       -9.326830    4.403380    2.422221
     90          1           0      -10.689218    3.217114   -0.568997
     91          1           0      -10.653232    1.504918   -0.231528
     92          1           0       -8.460619    2.362705   -2.207313
     93          1           0      -10.072443    2.964701   -2.600437
     94          1           0       -9.719787    1.212067   -2.382990
     95          1           0       -9.720711   -2.703784    0.205216
     96          1           0       -9.118427   -3.424678    1.608760
     97          1           0       -8.745424   -4.136148   -0.064300
     98          1           0       -3.786421   -4.321774   -1.157368
     99          1           0       -0.793062   -5.835787    1.360145
    100          1           0       -1.417847   -7.421067    0.991802
    101          1           0       -2.044795   -6.440368    2.410085
    102          1           0        3.303766   -3.823569    0.689591
    103          1           0        2.796989   -2.328229    1.338960
    104          1           0        4.408272   -1.121942    0.043103
    105          1           0        5.331542   -4.425820   -2.498342
    106          1           0        4.165086   -4.703394   -1.413033
    107          1           0        5.801377   -4.935561   -0.867186
    108          1           0        7.431468   -2.784285   -1.264547
    109          1           0        6.829079   -1.533118   -0.164123
    110          1           0        6.158208   -0.153356   -2.168992
    111          1           0        5.747354   -1.738035   -2.964092
    112          1           0        7.509409   -1.706547   -4.109980
    113          1           0        8.656385   -1.615929   -2.764681
    114          1           0        7.804759    1.037149   -2.982209
    115          1           0        7.332554   -0.198783   -5.482358
    116          1           0        8.763241    0.857309   -5.801427
    117          1           0        7.273159    1.476811   -5.093387
    118          1           0       10.413373    1.174649   -3.876140
    119          1           0       10.322894   -0.576766   -3.674676
    120          1           0       10.051190   -0.322938   -1.128396
    121          1           0        9.092528    0.847342   -1.338755
    122          1           0       11.713788    1.877563   -2.353405
    123          1           0       11.940629    0.973815   -1.045272
    124          1           0        9.528041    2.605439   -0.344367
    125          1           0       10.494501    4.291535   -1.849713
    126          1           0       12.029133    4.110449   -0.856399
    127          1           0       10.584024    4.809651   -0.152279
    128          1           0       11.136147    3.445478    1.473598
    129          1           0       12.179610    2.052269    1.006828
    130          1           0        9.869526    1.020545    1.250805
    131          1           0        9.562239    2.389914    2.353562
    132          1           0       12.225512    1.306285    2.937695
    133          1           0       11.154880   -0.033961    2.746991
    134          1           0        9.575002    1.570697    4.468082
    135          1           0       12.022620    1.030791    6.070749
    136          1           0       10.936774    2.462650    6.084619
    137          1           0       12.259359    2.270116    4.868437
    138          1           0        9.359313   -0.716132    4.678079
    139          1           0       10.081265   -0.293898    6.207412
    140          1           0       11.223625   -0.871842    5.040093
 ---------------------------------------------------------------------

 SCF Done:  E(RPBE1PBE) =  -3005.32437646     A.U. after   15 cycles

 Excitation energies and oscillator strengths:

 Excited State   1:      Singlet-A      1.8642 eV  665.07 nm  f=0.3328  <S**2>=0.000
     245 -> 248       -0.19748
     246 -> 247        0.68488
 This state for optimization and/or second-order correction.
 Total Energy, E(TD-HF/TD-DFT) =  -3005.25586749
 Copying the excited state density for this state as the 1-particle RhoCI density.

 Excited State   2:      Singlet-A      2.2070 eV  561.78 nm  f=0.0732  <S**2>=0.000
     245 -> 247        0.63552
     246 -> 248        0.30240

 Excited State   3:      Singlet-A      3.0823 eV  402.24 nm  f=0.0082  <S**2>=0.000
     240 -> 247       -0.15565
     241 -> 247        0.43893
     241 -> 249       -0.15590
     243 -> 247        0.22542
     244 -> 247       -0.40124

 Excited State   4:      Singlet-A      3.2018 eV  387.23 nm  f=0.1643  <S**2>=0.000
     241 -> 247        0.11840
     243 -> 247        0.29861
     244 -> 247        0.42713
     245 -> 247        0.16116
     246 -> 248       -0.38570

 Excited State   5:      Singlet-A      3.2439 eV  382.21 nm  f=0.2997  <S**2>=0.000
     240 -> 247       -0.22592
     241 -> 247        0.17023
     243 -> 247        0.18252
     244 -> 247        0.29109
     245 -> 247       -0.20714
     246 -> 248        0.44515
     246 -> 249       -0.13917

 The electronic state is 1-A.
 Alpha  occ. eigenvalues --  -46.92373 -19.26626 -19.25173 -19.19671 -19.19190
 Alpha  occ. eigenvalues --  -19.19045 -19.18748 -14.41522 -14.41390 -14.39120
 Alpha  occ. eigenvalues --  -14.38943 -10.36790 -10.36083 -10.32100 -10.31985
 Alpha  occ. eigenvalues --  -10.29879 -10.29079 -10.28902 -10.28354 -10.28205
 Alpha  occ. eigenvalues --  -10.27841 -10.27532 -10.27424 -10.27396 -10.27200
 Alpha  occ. eigenvalues --  -10.26306 -10.26217 -10.26065 -10.25928 -10.25704
 Alpha  occ. eigenvalues --  -10.25602 -10.25586 -10.25304 -10.25151 -10.24873
 Alpha  occ. eigenvalues --  -10.24788 -10.24618 -10.24607 -10.24466 -10.24386
 Alpha  occ. eigenvalues --  -10.24296 -10.24258 -10.24243 -10.24237 -10.24038
 Alpha  occ. eigenvalues --  -10.23836 -10.23736 -10.23481 -10.23460 -10.23440
 Alpha  occ. eigenvalues --  -10.23401 -10.23359 -10.23191 -10.23053 -10.22933
 Alpha  occ. eigenvalues --  -10.22903 -10.22901 -10.22887 -10.22887 -10.22755
 Alpha  occ. eigenvalues --  -10.22190 -10.22104 -10.21969 -10.21646 -10.21507
 Alpha  occ. eigenvalues --  -10.21476  -3.14394  -1.87236  -1.86757  -1.86624
 Alpha  occ. eigenvalues --   -1.12976  -1.10220  -1.04226  -1.04157  -1.02729
 Alpha  occ. eigenvalues --   -1.01447  -0.98977  -0.98551  -0.97673  -0.95736
 Alpha  occ. eigenvalues --   -0.86516  -0.84850  -0.84536  -0.84146  -0.83645
 Alpha  occ. eigenvalues --   -0.82840  -0.82097  -0.81521  -0.81328  -0.80638
 Alpha  occ. eigenvalues --   -0.80390  -0.79709  -0.78675  -0.77580  -0.77319
 Alpha  occ. eigenvalues --   -0.76606  -0.76035  -0.75525  -0.74836  -0.74543
 Alpha  occ. eigenvalues --   -0.74198  -0.72563  -0.71931  -0.71381  -0.70631
 Alpha  occ. eigenvalues --   -0.70177  -0.69291  -0.69210  -0.69042  -0.68456
 Alpha  occ. eigenvalues --   -0.67727  -0.66954  -0.65741  -0.64500  -0.64262
 Alpha  occ. eigenvalues --   -0.63162  -0.62248  -0.61432  -0.61028  -0.60174
 Alpha  occ. eigenvalues --   -0.60031  -0.59029  -0.58861  -0.58811  -0.58516
 Alpha  occ. eigenvalues --   -0.58212  -0.57898  -0.57085  -0.56145  -0.55319
 Alpha  occ. eigenvalues --   -0.54378  -0.54298  -0.53501  -0.52978  -0.52307
 Alpha  occ. eigenvalues --   -0.51893  -0.51676  -0.51303  -0.50504  -0.50360
 Alpha  occ. eigenvalues --   -0.49872  -0.49454  -0.49366  -0.49067  -0.48591
 Alpha  occ. eigenvalues --   -0.48131  -0.47986  -0.47759  -0.47440  -0.47217
 Alpha  occ. eigenvalues --   -0.46851  -0.46800  -0.46676  -0.46543  -0.46492
 Alpha  occ. eigenvalues --   -0.46433  -0.46055  -0.45590  -0.45582  -0.45344
 Alpha  occ. eigenvalues --   -0.45123  -0.44763  -0.44334  -0.44101  -0.43872
 Alpha  occ. eigenvalues --   -0.43702  -0.43642  -0.43504  -0.43339  -0.43178
 Alpha  occ. eigenvalues --   -0.43130  -0.42931  -0.42391  -0.42271  -0.42145
 Alpha  occ. eigenvalues --   -0.41977  -0.41876  -0.41586  -0.41363  -0.41225
 Alpha  occ. eigenvalues --   -0.40708  -0.40432  -0.40349  -0.40243  -0.40136
 Alpha  occ. eigenvalues --   -0.39964  -0.39907  -0.39669  -0.39625  -0.39289
 Alpha  occ. eigenvalues --   -0.39273  -0.39114  -0.39057  -0.38752  -0.38529
 Alpha  occ. eigenvalues --   -0.38329  -0.38227  -0.37979  -0.37932  -0.37692
 Alpha  occ. eigenvalues --   -0.37489  -0.37424  -0.37279  -0.37030  -0.36727
 Alpha  occ. eigenvalues --   -0.36638  -0.36153  -0.36090  -0.35997  -0.35956
 Alpha  occ. eigenvalues --   -0.35810  -0.35773  -0.35602  -0.35401  -0.35280
 Alpha  occ. eigenvalues --   -0.34690  -0.34427  -0.34222  -0.33950  -0.33804
 Alpha  occ. eigenvalues --   -0.33731  -0.33381  -0.33167  -0.32586  -0.32465
 Alpha  occ. eigenvalues --   -0.32192  -0.31805  -0.31571  -0.31211  -0.31038
 Alpha  occ. eigenvalues --   -0.30592  -0.30331  -0.29825  -0.29542  -0.28832
 Alpha  occ. eigenvalues --   -0.28752  -0.28486  -0.28207  -0.26773  -0.26174
 Alpha  occ. eigenvalues --   -0.25761  -0.25755  -0.25615  -0.24974  -0.20361
 Alpha  occ. eigenvalues --   -0.18254
 Alpha virt. eigenvalues --   -0.10437  -0.05424  -0.03992  -0.02079  -0.01985
 Alpha virt. eigenvalues --   -0.00514   0.00470   0.00821   0.01847   0.03564
 Alpha virt. eigenvalues --    0.04121   0.04443   0.04791   0.05690   0.05834

 Mulliken charges:
               1
     1  Mg   0.973321
     2  C   -0.107870
     3  C   -0.042472
     4  C   -0.028247
     5  C   -0.077669
     6  N   -0.326293
     7  C    0.095157
     8  C   -0.140147
     9  C   -0.137574
    10  C   -0.023099
    11  C    0.005684
    12  C    0.015212
    13  C    0.057226
    14  C    0.201341
    15  O   -0.288579
    16  O   -0.329386
    17  N   -0.494914
    18  C    0.200686
    19  C   -0.180274
    20  C   -0.051211
    21  C    0.153697
    22  C    0.060864
    23  C    0.047255
    24  O   -0.244546
    25  C   -0.030241
    26  N   -0.377205
    27  C    0.022700
    28  C   -0.112912
    29  C   -0.067521
    30  C    0.080735
    31  C    0.008541
    32  C   -0.058897
    33  C   -0.073149
    34  N   -0.510362
    35  C    0.138528
    36  C   -0.167785
    37  C   -0.037343
    38  C    0.175886
    39  C    0.071791
    40  C    0.152595
    41  O   -0.221908
    42  C   -0.086666
    43  C    0.287722
    44  O   -0.268801
    45  O   -0.365036
    46  C    0.115959
    47  C    0.234210
    48  C   -0.118340
    49  C   -0.211384
    50  C   -0.005274
    51  C    0.014106
    52  C   -0.052302
    53  C   -0.033320
    54  C   -0.250305
    55  C    0.007655
    56  C    0.030020
    57  C   -0.069420
    58  C   -0.008832
    59  C   -0.186262
    60  C   -0.006405
    61  C   -0.030094
    62  C   -0.050795
    63  C   -0.011177
    64  C   -0.254307
    65  C   -0.015327
    66  C   -0.019363
    67  H   -0.003302
    68  H    0.026114
    69  H   -0.006091
    70  H    0.067850
    71  H    0.044707
    72  H    0.062064
    73  H    0.049910
    74  H    0.035892
    75  H    0.033056
    76  H    0.035508
    77  H    0.049860
    78  H    0.057113
    79  H    0.049179
    80  H    0.043388
    81  H    0.040946
    82  H    0.069270
    83  H    0.042931
    84  H    0.061262
    85  H    0.058911
    86  H    0.047292
    87  H    0.049775
    88  H    0.044602
    89  H    0.046507
    90  H    0.041292
    91  H    0.042349
    92  H    0.056373
    93  H    0.044291
    94  H    0.046893
    95  H    0.022119
    96  H    0.069320
    97  H    0.073215
    98  H    0.080548
    99  H    0.063552
   100  H    0.059197
   101  H    0.063862
   102  H    0.054521
   103  H    0.047991
   104  H    0.022661
   105  H    0.049035
   106  H    0.040955
   107  H    0.060266
   108  H    0.036838
   109  H    0.049717
   110  H    0.044249
   111  H    0.046057
   112  H    0.034564
   113  H    0.035537
   114  H    0.043331
   115  H    0.025982
   116  H    0.040031
   117  H    0.026312
   118  H    0.039697
   119  H    0.040389
   120  H    0.022375
   121  H    0.013850
   122  H    0.022286
   123  H    0.014377
   124  H    0.028062
   125  H    0.036888
   126  H    0.036514
   127  H    0.031355
   128  H    0.017907
   129  H    0.033913
   130  H    0.017132
   131  H    0.031729
   132  H    0.035346
   133  H    0.020069
   134  H    0.033395
   135  H    0.028326
   136  H    0.041266
   137  H    0.029947
   138  H    0.039125
   139  H    0.037056
   140  H    0.043323
 Sum of Mulliken charges =  -0.00000

 Dipole moment (field-independent basis, Debye):
    X=              4.3878    Y=              2.4786    Z=             -2.8415  Tot=              5.7854
 Quadrupole moment (field-independent basis, Debye-Ang):
   XX=           -362.5488   YY=           -438.5590   ZZ=           -401.6059
   XY=            -23.0758   XZ=              2.0384   YZ=              8.8701

 Normal termination of Gaussian 16 at Thu May  5 09:16:06 2022.
