 Gaussian 16, Revision A.03,
 Gaussian 16:  ES64L-G16RevA.03 25-Dec-2016

 --------------------------------
 #p wB97XD/Def2SVP td=(nstates=5)
 --------------------------------

 ---------------------------------------------------
 step_751_chromophore_9 TDDFT with wB97XD functional
 ---------------------------------------------------
 Symbolic Z-matrix:
 Charge =  0 Multiplicity = 1

                         Standard orientation:
 ---------------------------------------------------------------------
 Center     Atomic      Atomic             Coordinates (Angstroms)
 Number     Number       Type             X           Y           Z
 ---------------------------------------------------------------------
      1         12           0       -4.867238    0.866409   -0.118198
      2          6           0       -4.105917   -2.532510   -0.013379
      3          6           0       -1.459160    1.565908    0.079088
      4          6           0       -5.667285    4.236784    0.129344
      5          6           0       -8.184814    0.056668    0.294325
      6          7           0       -2.943837   -0.379261    0.074310
      7          6           0       -2.917006   -1.712464    0.129680
      8          6           0       -1.473309   -2.258893   -0.002706
      9          6           0       -0.620947   -0.969802    0.382819
     10          6           0       -1.714182    0.155803    0.154681
     11          6           0       -0.133575   -0.933817    1.851013
     12          6           0       -1.201726   -2.904042   -1.348602
     13          6           0       -0.075675   -3.866236   -1.511294
     14          6           0        1.061584   -3.873996   -0.466144
     15          8           0        1.177705   -4.818976    0.308778
     16          8           0        1.891343   -2.848077   -0.490594
     17          7           0       -3.734687    2.663261    0.022578
     18          6           0       -2.313652    2.702433   -0.035510
     19          6           0       -2.000569    4.070476   -0.321866
     20          6           0       -3.070808    4.870590   -0.257043
     21          6           0       -4.237647    3.949951   -0.025345
     22          6           0       -0.510073    4.467281   -0.605104
     23          6           0       -3.307299    6.353773   -0.407441
     24          8           0       -4.420521    6.853886   -0.247277
     25          6           0       -2.150273    7.291072   -0.626017
     26          7           0       -6.622039    2.055385    0.184580
     27          6           0       -6.737210    3.385409    0.374006
     28          6           0       -8.233949    3.828713    0.482043
     29          6           0       -8.945740    2.477094    0.551118
     30          6           0       -7.870447    1.507344    0.319822
     31          6           0       -8.522545    4.729438    1.762728
     32          6           0      -10.037168    2.343821   -0.555058
     33          6           0       -9.524648    2.222189   -2.021377
     34          7           0       -5.943074   -0.832382    0.177476
     35          6           0       -7.338991   -1.045622    0.235133
     36          6           0       -7.633630   -2.468169    0.351233
     37          6           0       -6.386987   -3.079787    0.153409
     38          6           0       -5.400701   -2.055302    0.111114
     39          6           0       -8.851165   -3.253023    0.565893
     40          6           0       -5.713851   -4.350294    0.014869
     41          8           0       -6.112195   -5.512098    0.043066
     42          6           0       -4.216913   -4.085745   -0.183965
     43          6           0       -3.342792   -4.720828    0.885772
     44          8           0       -3.216800   -4.258902    2.019704
     45          8           0       -2.630430   -5.804613    0.447746
     46          6           0       -1.700326   -6.441430    1.376056
     47          6           0        3.053248   -2.804681    0.392502
     48          6           0        4.253704   -2.171835   -0.205057
     49          6           0        5.274642   -2.812630   -0.891295
     50          6           0        5.160975   -4.260770   -1.434550
     51          6           0        6.611152   -2.091347   -1.075354
     52          6           0        6.476093   -1.174454   -2.382904
     53          6           0        7.805206   -1.125102   -3.236675
     54          6           0        8.345650    0.331261   -3.613287
     55          6           0        7.948529    0.622668   -5.115661
     56          6           0        9.868549    0.370507   -3.381901
     57          6           0       10.017576    0.523594   -1.815013
     58          6           0       11.131511    1.551707   -1.491333
     59          6           0       10.610496    2.708591   -0.422217
     60          6           0       10.939556    4.077531   -0.877161
     61          6           0       11.181929    2.489551    0.951584
     62          6           0       10.328496    1.744800    1.924215
     63          6           0       11.176618    1.022528    3.016846
     64          6           0       10.522035    1.035203    4.517393
     65          6           0       11.496948    1.765203    5.460675
     66          6           0       10.275151   -0.343218    5.135834
     67          1           0       -0.375915    1.659033    0.178336
     68          1           0       -6.113114    5.229382    0.035541
     69          1           0       -9.224081   -0.258139    0.418954
     70          1           0       -1.280077   -3.004507    0.768738
     71          1           0        0.267277   -0.701626   -0.189494
     72          1           0       -0.058371   -1.875538    2.393736
     73          1           0       -0.885554   -0.315609    2.340744
     74          1           0        0.806712   -0.391604    1.948027
     75          1           0       -1.113732   -2.014798   -1.973202
     76          1           0       -2.056351   -3.463493   -1.727841
     77          1           0        0.347222   -3.630614   -2.487737
     78          1           0       -0.569223   -4.831098   -1.621658
     79          1           0       -0.531052    4.991699   -1.560120
     80          1           0        0.265538    3.703456   -0.540802
     81          1           0       -0.168446    5.200654    0.125056
     82          1           0       -1.517443    7.339302    0.260261
     83          1           0       -2.621658    8.272276   -0.686742
     84          1           0       -1.629424    7.203726   -1.579858
     85          1           0       -8.407317    4.296231   -0.487565
     86          1           0       -9.433629    2.360928    1.518584
     87          1           0       -8.581389    5.771585    1.448749
     88          1           0       -7.672275    4.784070    2.442937
     89          1           0       -9.326830    4.403380    2.422221
     90          1           0      -10.689218    3.217114   -0.568997
     91          1           0      -10.653232    1.504918   -0.231528
     92          1           0       -8.460619    2.362705   -2.207313
     93          1           0      -10.072443    2.964701   -2.600437
     94          1           0       -9.719787    1.212067   -2.382990
     95          1           0       -9.720711   -2.703784    0.205216
     96          1           0       -9.118427   -3.424678    1.608760
     97          1           0       -8.745424   -4.136148   -0.064300
     98          1           0       -3.786421   -4.321774   -1.157368
     99          1           0       -0.793062   -5.835787    1.360145
    100          1           0       -1.417847   -7.421067    0.991802
    101          1           0       -2.044795   -6.440368    2.410085
    102          1           0        3.303766   -3.823569    0.689591
    103          1           0        2.796989   -2.328229    1.338960
    104          1           0        4.408272   -1.121942    0.043103
    105          1           0        5.331542   -4.425820   -2.498342
    106          1           0        4.165086   -4.703394   -1.413033
    107          1           0        5.801377   -4.935561   -0.867186
    108          1           0        7.431468   -2.784285   -1.264547
    109          1           0        6.829079   -1.533118   -0.164123
    110          1           0        6.158208   -0.153356   -2.168992
    111          1           0        5.747354   -1.738035   -2.964092
    112          1           0        7.509409   -1.706547   -4.109980
    113          1           0        8.656385   -1.615929   -2.764681
    114          1           0        7.804759    1.037149   -2.982209
    115          1           0        7.332554   -0.198783   -5.482358
    116          1           0        8.763241    0.857309   -5.801427
    117          1           0        7.273159    1.476811   -5.093387
    118          1           0       10.413373    1.174649   -3.876140
    119          1           0       10.322894   -0.576766   -3.674676
    120          1           0       10.051190   -0.322938   -1.128396
    121          1           0        9.092528    0.847342   -1.338755
    122          1           0       11.713788    1.877563   -2.353405
    123          1           0       11.940629    0.973815   -1.045272
    124          1           0        9.528041    2.605439   -0.344367
    125          1           0       10.494501    4.291535   -1.849713
    126          1           0       12.029133    4.110449   -0.856399
    127          1           0       10.584024    4.809651   -0.152279
    128          1           0       11.136147    3.445478    1.473598
    129          1           0       12.179610    2.052269    1.006828
    130          1           0        9.869526    1.020545    1.250805
    131          1           0        9.562239    2.389914    2.353562
    132          1           0       12.225512    1.306285    2.937695
    133          1           0       11.154880   -0.033961    2.746991
    134          1           0        9.575002    1.570697    4.468082
    135          1           0       12.022620    1.030791    6.070749
    136          1           0       10.936774    2.462650    6.084619
    137          1           0       12.259359    2.270116    4.868437
    138          1           0        9.359313   -0.716132    4.678079
    139          1           0       10.081265   -0.293898    6.207412
    140          1           0       11.223625   -0.871842    5.040093
 ---------------------------------------------------------------------

 SCF Done:  E(RwB97XD) =  -3007.83650180     A.U. after   19 cycles

 Excitation energies and oscillator strengths:

 Excited State   1:      Singlet-A      1.6688 eV  742.96 nm  f=0.3390  <S**2>=0.000
     245 -> 248       -0.21197
     246 -> 247        0.67570
     245 <- 248       -0.12180
 This state for optimization and/or second-order correction.
 Total Energy, E(TD-HF/TD-DFT) =  -3007.77517487
 Copying the excited state density for this state as the 1-particle RhoCI density.

 Excited State   2:      Singlet-A      2.1585 eV  574.41 nm  f=0.0647  <S**2>=0.000
     245 -> 247        0.61517
     246 -> 248        0.34053

 Excited State   3:      Singlet-A      3.3903 eV  365.70 nm  f=0.6980  <S**2>=0.000
     241 -> 247       -0.21416
     244 -> 247        0.10010
     245 -> 247       -0.30559
     246 -> 248        0.56997
     245 <- 247        0.11226

 Excited State   4:      Singlet-A      3.4882 eV  355.44 nm  f=0.1039  <S**2>=0.000
     239 -> 247        0.31343
     239 -> 249       -0.20822
     240 -> 247        0.23948
     240 -> 249       -0.20723
     241 -> 247        0.22862
     241 -> 249       -0.15757
     244 -> 247       -0.29165
     245 -> 247       -0.12295
     246 -> 248        0.20253

 Excited State   5:      Singlet-A      3.6296 eV  341.59 nm  f=0.0001  <S**2>=0.000
     239 -> 247        0.14992
     239 -> 249       -0.13890
     240 -> 247        0.29020
     240 -> 249       -0.10081
     244 -> 247        0.56964

 The electronic state is 1-A.
 Alpha  occ. eigenvalues --  -46.95290 -19.31213 -19.29821 -19.24326 -19.24165
 Alpha  occ. eigenvalues --  -19.23988 -19.23378 -14.46645 -14.46452 -14.43954
 Alpha  occ. eigenvalues --  -14.43939 -10.43596 -10.43009 -10.39233 -10.38655
 Alpha  occ. eigenvalues --  -10.36408 -10.35538 -10.35298 -10.34434 -10.34415
 Alpha  occ. eigenvalues --  -10.34314 -10.33981 -10.33671 -10.33521 -10.33392
 Alpha  occ. eigenvalues --  -10.32812 -10.32809 -10.32788 -10.32117 -10.31963
 Alpha  occ. eigenvalues --  -10.31893 -10.31880 -10.31535 -10.31523 -10.31324
 Alpha  occ. eigenvalues --  -10.31037 -10.31033 -10.30971 -10.30879 -10.30828
 Alpha  occ. eigenvalues --  -10.30645 -10.30585 -10.30573 -10.30480 -10.30401
 Alpha  occ. eigenvalues --  -10.30079 -10.29988 -10.29940 -10.29741 -10.29724
 Alpha  occ. eigenvalues --  -10.29699 -10.29693 -10.29661 -10.29513 -10.29355
 Alpha  occ. eigenvalues --  -10.29318 -10.29261 -10.29224 -10.29216 -10.29084
 Alpha  occ. eigenvalues --  -10.28544 -10.28521 -10.28371 -10.28075 -10.27914
 Alpha  occ. eigenvalues --  -10.27820  -3.21185  -1.94774  -1.94295  -1.94158
 Alpha  occ. eigenvalues --   -1.20352  -1.17707  -1.11989  -1.11477  -1.10068
 Alpha  occ. eigenvalues --   -1.08913  -1.06397  -1.05930  -1.05156  -1.02921
 Alpha  occ. eigenvalues --   -0.94298  -0.92522  -0.92178  -0.91807  -0.91227
 Alpha  occ. eigenvalues --   -0.90493  -0.89871  -0.89173  -0.88865  -0.88205
 Alpha  occ. eigenvalues --   -0.87927  -0.87332  -0.86290  -0.85217  -0.85005
 Alpha  occ. eigenvalues --   -0.84210  -0.83675  -0.83176  -0.82510  -0.82212
 Alpha  occ. eigenvalues --   -0.81815  -0.80282  -0.79492  -0.78973  -0.78293
 Alpha  occ. eigenvalues --   -0.77852  -0.76888  -0.76867  -0.76706  -0.76103
 Alpha  occ. eigenvalues --   -0.75313  -0.74563  -0.73259  -0.72094  -0.71846
 Alpha  occ. eigenvalues --   -0.70734  -0.69866  -0.69055  -0.68501  -0.67782
 Alpha  occ. eigenvalues --   -0.67503  -0.66547  -0.66345  -0.66230  -0.66189
 Alpha  occ. eigenvalues --   -0.65652  -0.65552  -0.64702  -0.63631  -0.62844
 Alpha  occ. eigenvalues --   -0.61916  -0.61755  -0.60849  -0.60448  -0.59908
 Alpha  occ. eigenvalues --   -0.59335  -0.59145  -0.58747  -0.57882  -0.57785
 Alpha  occ. eigenvalues --   -0.57222  -0.56841  -0.56741  -0.56520  -0.55985
 Alpha  occ. eigenvalues --   -0.55574  -0.55390  -0.55160  -0.54793  -0.54607
 Alpha  occ. eigenvalues --   -0.54250  -0.54133  -0.54028  -0.53992  -0.53827
 Alpha  occ. eigenvalues --   -0.53735  -0.53422  -0.53158  -0.52922  -0.52696
 Alpha  occ. eigenvalues --   -0.52427  -0.52070  -0.51780  -0.51424  -0.51156
 Alpha  occ. eigenvalues --   -0.51021  -0.50969  -0.50782  -0.50597  -0.50477
 Alpha  occ. eigenvalues --   -0.50435  -0.50260  -0.49621  -0.49519  -0.49409
 Alpha  occ. eigenvalues --   -0.49212  -0.49115  -0.48889  -0.48566  -0.48465
 Alpha  occ. eigenvalues --   -0.47917  -0.47606  -0.47540  -0.47459  -0.47373
 Alpha  occ. eigenvalues --   -0.47235  -0.47081  -0.46903  -0.46700  -0.46514
 Alpha  occ. eigenvalues --   -0.46411  -0.46338  -0.46201  -0.45925  -0.45758
 Alpha  occ. eigenvalues --   -0.45485  -0.45317  -0.45124  -0.45044  -0.44819
 Alpha  occ. eigenvalues --   -0.44579  -0.44569  -0.44396  -0.44157  -0.43816
 Alpha  occ. eigenvalues --   -0.43705  -0.43274  -0.43209  -0.43015  -0.42953
 Alpha  occ. eigenvalues --   -0.42860  -0.42831  -0.42606  -0.42485  -0.42323
 Alpha  occ. eigenvalues --   -0.41672  -0.41419  -0.41289  -0.40999  -0.40832
 Alpha  occ. eigenvalues --   -0.40783  -0.40349  -0.40208  -0.39605  -0.39401
 Alpha  occ. eigenvalues --   -0.39223  -0.38742  -0.38536  -0.38168  -0.37945
 Alpha  occ. eigenvalues --   -0.37506  -0.37474  -0.36819  -0.36287  -0.35866
 Alpha  occ. eigenvalues --   -0.35715  -0.35551  -0.35064  -0.33354  -0.33220
 Alpha  occ. eigenvalues --   -0.32660  -0.32624  -0.32422  -0.31485  -0.25340
 Alpha  occ. eigenvalues --   -0.22385
 Alpha virt. eigenvalues --   -0.06212  -0.00104   0.02207   0.04497   0.04670
 Alpha virt. eigenvalues --    0.05426   0.07228   0.07582   0.08665   0.10098
 Alpha virt. eigenvalues --    0.10398   0.11204   0.11574   0.12517   0.12585

 Mulliken charges:
               1
     1  Mg   0.962846
     2  C   -0.113433
     3  C   -0.049717
     4  C   -0.039549
     5  C   -0.100717
     6  N   -0.289506
     7  C    0.058050
     8  C   -0.101593
     9  C   -0.112435
    10  C   -0.043729
    11  C    0.012083
    12  C    0.023204
    13  C    0.073339
    14  C    0.184898
    15  O   -0.283443
    16  O   -0.324469
    17  N   -0.465080
    18  C    0.187429
    19  C   -0.165740
    20  C   -0.044349
    21  C    0.138950
    22  C    0.072314
    23  C    0.043922
    24  O   -0.240540
    25  C   -0.022477
    26  N   -0.345505
    27  C    0.004278
    28  C   -0.085254
    29  C   -0.045381
    30  C    0.074610
    31  C    0.017515
    32  C   -0.043334
    33  C   -0.058081
    34  N   -0.475444
    35  C    0.139026
    36  C   -0.164660
    37  C   -0.032774
    38  C    0.162562
    39  C    0.081576
    40  C    0.134302
    41  O   -0.209186
    42  C   -0.043026
    43  C    0.262385
    44  O   -0.263440
    45  O   -0.361871
    46  C    0.134495
    47  C    0.248307
    48  C   -0.131403
    49  C   -0.190967
    50  C    0.005784
    51  C    0.026729
    52  C   -0.033511
    53  C   -0.018718
    54  C   -0.217132
    55  C    0.018887
    56  C    0.047237
    57  C   -0.052317
    58  C   -0.000364
    59  C   -0.151448
    60  C    0.008541
    61  C   -0.016118
    62  C   -0.028758
    63  C    0.001958
    64  C   -0.227306
    65  C   -0.002757
    66  C   -0.004503
    67  H   -0.011233
    68  H    0.020884
    69  H   -0.013908
    70  H    0.046905
    71  H    0.035203
    72  H    0.057394
    73  H    0.043131
    74  H    0.030502
    75  H    0.025411
    76  H    0.023100
    77  H    0.045150
    78  H    0.052513
    79  H    0.041654
    80  H    0.039291
    81  H    0.033850
    82  H    0.064946
    83  H    0.040466
    84  H    0.057538
    85  H    0.048193
    86  H    0.039132
    87  H    0.044641
    88  H    0.038692
    89  H    0.041032
    90  H    0.033630
    91  H    0.034205
    92  H    0.047672
    93  H    0.040130
    94  H    0.040963
    95  H    0.016936
    96  H    0.066797
    97  H    0.069950
    98  H    0.073886
    99  H    0.054241
   100  H    0.056603
   101  H    0.060438
   102  H    0.048775
   103  H    0.044385
   104  H    0.020237
   105  H    0.044447
   106  H    0.034353
   107  H    0.055196
   108  H    0.028900
   109  H    0.043377
   110  H    0.036485
   111  H    0.034338
   112  H    0.025869
   113  H    0.022631
   114  H    0.029164
   115  H    0.018762
   116  H    0.035257
   117  H    0.020568
   118  H    0.031444
   119  H    0.031427
   120  H    0.014828
   121  H   -0.002740
   122  H    0.014931
   123  H    0.005628
   124  H    0.014735
   125  H    0.031643
   126  H    0.028577
   127  H    0.024707
   128  H    0.006634
   129  H    0.023840
   130  H    0.001917
   131  H    0.023970
   132  H    0.026169
   133  H    0.011013
   134  H    0.022795
   135  H    0.021444
   136  H    0.036262
   137  H    0.023105
   138  H    0.033729
   139  H    0.030550
   140  H    0.035517
 Sum of Mulliken charges =  -0.00000

 Dipole moment (field-independent basis, Debye):
    X=              4.1881    Y=              2.0958    Z=             -2.9086  Tot=              5.5130
 Quadrupole moment (field-independent basis, Debye-Ang):
   XX=           -361.0538   YY=           -437.5857   ZZ=           -401.0946
   XY=            -20.3665   XZ=              2.3163   YZ=              8.7275

 Normal termination of Gaussian 16 at Thu May  5 09:56:41 2022.
