 Gaussian 16, Revision A.03,
 Gaussian 16:  ES64L-G16RevA.03 25-Dec-2016

 --------------------
 #p ZINDO=(nstates=5)
 --------------------

 ----------------------------
 step_751_chromophore_9 ZINDO
 ----------------------------
 Symbolic Z-matrix:
 Charge =  0 Multiplicity = 1

                         Standard orientation:
 ---------------------------------------------------------------------
 Center     Atomic      Atomic             Coordinates (Angstroms)
 Number     Number       Type             X           Y           Z
 ---------------------------------------------------------------------
      1         12           0       -4.867238    0.866409   -0.118198
      2          6           0       -4.105917   -2.532510   -0.013379
      3          6           0       -1.459160    1.565908    0.079088
      4          6           0       -5.667285    4.236784    0.129344
      5          6           0       -8.184814    0.056668    0.294325
      6          7           0       -2.943837   -0.379261    0.074310
      7          6           0       -2.917006   -1.712464    0.129680
      8          6           0       -1.473309   -2.258893   -0.002706
      9          6           0       -0.620947   -0.969802    0.382819
     10          6           0       -1.714182    0.155803    0.154681
     11          6           0       -0.133575   -0.933817    1.851013
     12          6           0       -1.201726   -2.904042   -1.348602
     13          6           0       -0.075675   -3.866236   -1.511294
     14          6           0        1.061584   -3.873996   -0.466144
     15          8           0        1.177705   -4.818976    0.308778
     16          8           0        1.891343   -2.848077   -0.490594
     17          7           0       -3.734687    2.663261    0.022578
     18          6           0       -2.313652    2.702433   -0.035510
     19          6           0       -2.000569    4.070476   -0.321866
     20          6           0       -3.070808    4.870590   -0.257043
     21          6           0       -4.237647    3.949951   -0.025345
     22          6           0       -0.510073    4.467281   -0.605104
     23          6           0       -3.307299    6.353773   -0.407441
     24          8           0       -4.420521    6.853886   -0.247277
     25          6           0       -2.150273    7.291072   -0.626017
     26          7           0       -6.622039    2.055385    0.184580
     27          6           0       -6.737210    3.385409    0.374006
     28          6           0       -8.233949    3.828713    0.482043
     29          6           0       -8.945740    2.477094    0.551118
     30          6           0       -7.870447    1.507344    0.319822
     31          6           0       -8.522545    4.729438    1.762728
     32          6           0      -10.037168    2.343821   -0.555058
     33          6           0       -9.524648    2.222189   -2.021377
     34          7           0       -5.943074   -0.832382    0.177476
     35          6           0       -7.338991   -1.045622    0.235133
     36          6           0       -7.633630   -2.468169    0.351233
     37          6           0       -6.386987   -3.079787    0.153409
     38          6           0       -5.400701   -2.055302    0.111114
     39          6           0       -8.851165   -3.253023    0.565893
     40          6           0       -5.713851   -4.350294    0.014869
     41          8           0       -6.112195   -5.512098    0.043066
     42          6           0       -4.216913   -4.085745   -0.183965
     43          6           0       -3.342792   -4.720828    0.885772
     44          8           0       -3.216800   -4.258902    2.019704
     45          8           0       -2.630430   -5.804613    0.447746
     46          6           0       -1.700326   -6.441430    1.376056
     47          6           0        3.053248   -2.804681    0.392502
     48          6           0        4.253704   -2.171835   -0.205057
     49          6           0        5.274642   -2.812630   -0.891295
     50          6           0        5.160975   -4.260770   -1.434550
     51          6           0        6.611152   -2.091347   -1.075354
     52          6           0        6.476093   -1.174454   -2.382904
     53          6           0        7.805206   -1.125102   -3.236675
     54          6           0        8.345650    0.331261   -3.613287
     55          6           0        7.948529    0.622668   -5.115661
     56          6           0        9.868549    0.370507   -3.381901
     57          6           0       10.017576    0.523594   -1.815013
     58          6           0       11.131511    1.551707   -1.491333
     59          6           0       10.610496    2.708591   -0.422217
     60          6           0       10.939556    4.077531   -0.877161
     61          6           0       11.181929    2.489551    0.951584
     62          6           0       10.328496    1.744800    1.924215
     63          6           0       11.176618    1.022528    3.016846
     64          6           0       10.522035    1.035203    4.517393
     65          6           0       11.496948    1.765203    5.460675
     66          6           0       10.275151   -0.343218    5.135834
     67          1           0       -0.375915    1.659033    0.178336
     68          1           0       -6.113114    5.229382    0.035541
     69          1           0       -9.224081   -0.258139    0.418954
     70          1           0       -1.280077   -3.004507    0.768738
     71          1           0        0.267277   -0.701626   -0.189494
     72          1           0       -0.058371   -1.875538    2.393736
     73          1           0       -0.885554   -0.315609    2.340744
     74          1           0        0.806712   -0.391604    1.948027
     75          1           0       -1.113732   -2.014798   -1.973202
     76          1           0       -2.056351   -3.463493   -1.727841
     77          1           0        0.347222   -3.630614   -2.487737
     78          1           0       -0.569223   -4.831098   -1.621658
     79          1           0       -0.531052    4.991699   -1.560120
     80          1           0        0.265538    3.703456   -0.540802
     81          1           0       -0.168446    5.200654    0.125056
     82          1           0       -1.517443    7.339302    0.260261
     83          1           0       -2.621658    8.272276   -0.686742
     84          1           0       -1.629424    7.203726   -1.579858
     85          1           0       -8.407317    4.296231   -0.487565
     86          1           0       -9.433629    2.360928    1.518584
     87          1           0       -8.581389    5.771585    1.448749
     88          1           0       -7.672275    4.784070    2.442937
     89          1           0       -9.326830    4.403380    2.422221
     90          1           0      -10.689218    3.217114   -0.568997
     91          1           0      -10.653232    1.504918   -0.231528
     92          1           0       -8.460619    2.362705   -2.207313
     93          1           0      -10.072443    2.964701   -2.600437
     94          1           0       -9.719787    1.212067   -2.382990
     95          1           0       -9.720711   -2.703784    0.205216
     96          1           0       -9.118427   -3.424678    1.608760
     97          1           0       -8.745424   -4.136148   -0.064300
     98          1           0       -3.786421   -4.321774   -1.157368
     99          1           0       -0.793062   -5.835787    1.360145
    100          1           0       -1.417847   -7.421067    0.991802
    101          1           0       -2.044795   -6.440368    2.410085
    102          1           0        3.303766   -3.823569    0.689591
    103          1           0        2.796989   -2.328229    1.338960
    104          1           0        4.408272   -1.121942    0.043103
    105          1           0        5.331542   -4.425820   -2.498342
    106          1           0        4.165086   -4.703394   -1.413033
    107          1           0        5.801377   -4.935561   -0.867186
    108          1           0        7.431468   -2.784285   -1.264547
    109          1           0        6.829079   -1.533118   -0.164123
    110          1           0        6.158208   -0.153356   -2.168992
    111          1           0        5.747354   -1.738035   -2.964092
    112          1           0        7.509409   -1.706547   -4.109980
    113          1           0        8.656385   -1.615929   -2.764681
    114          1           0        7.804759    1.037149   -2.982209
    115          1           0        7.332554   -0.198783   -5.482358
    116          1           0        8.763241    0.857309   -5.801427
    117          1           0        7.273159    1.476811   -5.093387
    118          1           0       10.413373    1.174649   -3.876140
    119          1           0       10.322894   -0.576766   -3.674676
    120          1           0       10.051190   -0.322938   -1.128396
    121          1           0        9.092528    0.847342   -1.338755
    122          1           0       11.713788    1.877563   -2.353405
    123          1           0       11.940629    0.973815   -1.045272
    124          1           0        9.528041    2.605439   -0.344367
    125          1           0       10.494501    4.291535   -1.849713
    126          1           0       12.029133    4.110449   -0.856399
    127          1           0       10.584024    4.809651   -0.152279
    128          1           0       11.136147    3.445478    1.473598
    129          1           0       12.179610    2.052269    1.006828
    130          1           0        9.869526    1.020545    1.250805
    131          1           0        9.562239    2.389914    2.353562
    132          1           0       12.225512    1.306285    2.937695
    133          1           0       11.154880   -0.033961    2.746991
    134          1           0        9.575002    1.570697    4.468082
    135          1           0       12.022620    1.030791    6.070749
    136          1           0       10.936774    2.462650    6.084619
    137          1           0       12.259359    2.270116    4.868437
    138          1           0        9.359313   -0.716132    4.678079
    139          1           0       10.081265   -0.293898    6.207412
    140          1           0       11.223625   -0.871842    5.040093
 ---------------------------------------------------------------------

 SCF Done:  E(RZINDO/S) =  -474.095637258     A.U. after   20 cycles

 Excitation energies and oscillator strengths:

 Excited State   1:      Singlet-A      1.2643 eV  980.69 nm  f=0.5285  <S**2>=0.000
     175 ->178        -0.21077
     176 ->177         0.65796
 This state for optimization and/or second-order correction.
 Total Energy, E(CIS/TDA) =  -474.049176880
 Copying the excited state density for this state as the 1-particle RhoCI density.

 Excited State   2:      Singlet-A      1.8603 eV  666.48 nm  f=0.0032  <S**2>=0.000
     175 ->177         0.49562
     176 ->178         0.48431

 Excited State   3:      Singlet-A      2.8802 eV  430.48 nm  f=0.4478  <S**2>=0.000
     168 ->177        -0.11255
     168 ->179         0.13665
     175 ->177        -0.26210
     176 ->178         0.29833
     176 ->179         0.49120

 Excited State   4:      Singlet-A      2.9227 eV  424.21 nm  f=0.0063  <S**2>=0.000
     168 ->177         0.33165
     168 ->179        -0.37988
     168 ->180         0.17777
     168 ->186        -0.18883
     176 ->179         0.26080

 Excited State   5:      Singlet-A      2.9849 eV  415.38 nm  f=0.9285  <S**2>=0.000
     175 ->177         0.37888
     176 ->178        -0.37160
     176 ->179         0.35204
     176 ->180         0.20662

 The electronic state is 1-A.
 Alpha  occ. eigenvalues --   -1.84405  -1.81479  -1.78425  -1.74659  -1.71529
 Alpha  occ. eigenvalues --   -1.70554  -1.65485  -1.60046  -1.59328  -1.58105
 Alpha  occ. eigenvalues --   -1.53910  -1.51778  -1.48943  -1.48195  -1.46838
 Alpha  occ. eigenvalues --   -1.44577  -1.42275  -1.38609  -1.38247  -1.36656
 Alpha  occ. eigenvalues --   -1.35312  -1.34450  -1.33144  -1.30738  -1.29154
 Alpha  occ. eigenvalues --   -1.27456  -1.24005  -1.20938  -1.20351  -1.18110
 Alpha  occ. eigenvalues --   -1.17171  -1.15006  -1.14323  -1.13438  -1.13210
 Alpha  occ. eigenvalues --   -1.12967  -1.10502  -1.09944  -1.05395  -1.03643
 Alpha  occ. eigenvalues --   -1.01950  -1.01064  -0.97976  -0.97816  -0.97175
 Alpha  occ. eigenvalues --   -0.95864  -0.94566  -0.93317  -0.92578  -0.92457
 Alpha  occ. eigenvalues --   -0.91668  -0.89643  -0.88973  -0.87400  -0.87089
 Alpha  occ. eigenvalues --   -0.85565  -0.85111  -0.83112  -0.81564  -0.80500
 Alpha  occ. eigenvalues --   -0.80201  -0.79284  -0.77175  -0.77113  -0.76146
 Alpha  occ. eigenvalues --   -0.75919  -0.75618  -0.75075  -0.74675  -0.74449
 Alpha  occ. eigenvalues --   -0.73457  -0.72379  -0.71971  -0.71902  -0.71284
 Alpha  occ. eigenvalues --   -0.70870  -0.69874  -0.68936  -0.68509  -0.67728
 Alpha  occ. eigenvalues --   -0.67134  -0.66914  -0.66111  -0.65604  -0.65568
 Alpha  occ. eigenvalues --   -0.65086  -0.64656  -0.64430  -0.63979  -0.63645
 Alpha  occ. eigenvalues --   -0.63223  -0.62741  -0.62437  -0.61805  -0.61427
 Alpha  occ. eigenvalues --   -0.61342  -0.60931  -0.60383  -0.60186  -0.59635
 Alpha  occ. eigenvalues --   -0.59471  -0.59170  -0.58791  -0.58529  -0.58262
 Alpha  occ. eigenvalues --   -0.58175  -0.57427  -0.57212  -0.56774  -0.56639
 Alpha  occ. eigenvalues --   -0.56198  -0.55473  -0.54781  -0.54769  -0.54159
 Alpha  occ. eigenvalues --   -0.54023  -0.53802  -0.53175  -0.52931  -0.52291
 Alpha  occ. eigenvalues --   -0.52142  -0.52112  -0.51853  -0.51558  -0.51201
 Alpha  occ. eigenvalues --   -0.50980  -0.50463  -0.50234  -0.49989  -0.49962
 Alpha  occ. eigenvalues --   -0.49739  -0.49559  -0.49376  -0.49191  -0.48859
 Alpha  occ. eigenvalues --   -0.48430  -0.47976  -0.47889  -0.47842  -0.47388
 Alpha  occ. eigenvalues --   -0.47337  -0.47220  -0.46910  -0.46654  -0.46452
 Alpha  occ. eigenvalues --   -0.46209  -0.46069  -0.45730  -0.45614  -0.45518
 Alpha  occ. eigenvalues --   -0.44879  -0.44747  -0.44550  -0.44213  -0.44149
 Alpha  occ. eigenvalues --   -0.44056  -0.43651  -0.43057  -0.41948  -0.41886
 Alpha  occ. eigenvalues --   -0.41626  -0.40885  -0.40851  -0.38453  -0.38267
 Alpha  occ. eigenvalues --   -0.38117  -0.37246  -0.35735  -0.34661  -0.34484
 Alpha  occ. eigenvalues --   -0.33657  -0.32966  -0.32053  -0.31474  -0.26115
 Alpha  occ. eigenvalues --   -0.21184
 Alpha virt. eigenvalues --   -0.07684  -0.02446  -0.00633   0.01526   0.02003
 Alpha virt. eigenvalues --    0.02083   0.02590   0.03053   0.03431   0.04737
 Alpha virt. eigenvalues --    0.06587   0.06809   0.07804   0.07968   0.08234

 Mulliken charges:
               1
     1  Mg   0.428973
     2  C   -0.063289
     3  C   -0.067476
     4  C   -0.062916
     5  C   -0.090342
     6  N   -0.254626
     7  C    0.138394
     8  C    0.011821
     9  C    0.001449
    10  C    0.090344
    11  C   -0.052994
    12  C   -0.013657
    13  C    0.010368
    14  C    0.476076
    15  O   -0.537918
    16  O   -0.255600
    17  N   -0.324782
    18  C    0.066507
    19  C    0.023220
    20  C   -0.041375
    21  C    0.119735
    22  C   -0.059778
    23  C    0.329878
    24  O   -0.529027
    25  C   -0.036613
    26  N   -0.260808
    27  C    0.105999
    28  C    0.001516
    29  C    0.014102
    30  C    0.161175
    31  C   -0.057764
    32  C   -0.028758
    33  C   -0.055361
    34  N   -0.338025
    35  C    0.112796
    36  C    0.054813
    37  C   -0.050300
    38  C    0.130359
    39  C   -0.030960
    40  C    0.345168
    41  O   -0.517760
    42  C    0.054938
    43  C    0.488850
    44  O   -0.531440
    45  O   -0.268648
    46  C    0.073738
    47  C    0.114033
    48  C   -0.104322
    49  C    0.012466
    50  C   -0.045816
    51  C   -0.022503
    52  C   -0.039517
    53  C   -0.049817
    54  C   -0.014541
    55  C   -0.069043
    56  C   -0.024557
    57  C   -0.054468
    58  C   -0.055150
    59  C   -0.004755
    60  C   -0.050131
    61  C   -0.035544
    62  C   -0.038648
    63  C   -0.047004
    64  C   -0.020433
    65  C   -0.059453
    66  C   -0.054671
    67  H    0.022414
    68  H    0.044835
    69  H    0.022557
    70  H    0.040643
    71  H    0.031286
    72  H    0.033045
    73  H    0.022100
    74  H    0.016066
    75  H    0.018254
    76  H    0.021895
    77  H    0.029898
    78  H    0.042730
    79  H    0.024972
    80  H    0.029454
    81  H    0.017712
    82  H    0.042851
    83  H    0.025203
    84  H    0.039443
    85  H    0.043795
    86  H    0.035711
    87  H    0.023980
    88  H    0.021131
    89  H    0.027798
    90  H    0.015328
    91  H    0.018021
    92  H    0.028988
    93  H    0.019257
    94  H    0.017722
    95  H    0.013021
    96  H    0.047415
    97  H    0.042615
    98  H    0.059370
    99  H    0.042295
   100  H    0.037833
   101  H    0.053995
   102  H    0.047174
   103  H    0.039921
   104  H    0.025824
   105  H    0.028610
   106  H    0.021219
   107  H    0.029858
   108  H    0.025279
   109  H    0.027681
   110  H    0.031930
   111  H    0.024780
   112  H    0.020172
   113  H    0.022255
   114  H    0.030070
   115  H    0.019584
   116  H    0.026040
   117  H    0.010036
   118  H    0.028241
   119  H    0.022933
   120  H    0.028224
   121  H    0.012808
   122  H    0.028456
   123  H    0.006518
   124  H    0.020206
   125  H    0.015949
   126  H    0.019875
   127  H    0.014290
   128  H    0.009536
   129  H    0.028122
   130  H    0.013314
   131  H    0.023313
   132  H    0.032330
   133  H    0.008056
   134  H    0.021717
   135  H    0.018993
   136  H    0.019466
   137  H    0.015938
   138  H    0.019184
   139  H    0.014050
   140  H    0.028285
 Sum of Mulliken charges =   0.00000

 Dipole moment (field-independent basis, Debye):
    X=              3.8456    Y=              1.6227    Z=             -4.4302  Tot=              6.0868
 N-N= 4.388747047124D+03 E-N= 0.000000000000D+00  KE=-9.451967182340D+03
 Leave Link  601 at Thu May  5 10:13:27 2022, MaxMem=  6710886400 cpu:               1.5 elap:               0.1
 (Enter /sw/apps/gaussian-16.0/g16/l9999.exe)
 1\1\GINC-BP1-COMPUTE211\SP\RZINDO CIS\STO-3G\C55H74Mg1N4O6\OF15641\05-
 May-2022\0\\#p ZINDO=(nstates=5)\\step_751_chromophore_9 ZINDO\\0,1\Mg
 ,0,35.367,1.414,29.888\C,0,32.885,2.352,32.147\C,0,37.725,1.797,32.425
 \C,0,37.855,0.82,27.539\C,0,33.048,1.656,27.359\N,0,35.317,2.075,32.09
 \C,0,34.207,2.429,32.741\C,0,34.46,2.57,34.263\C,0,36.043,2.743,34.296
 \C,0,36.409,2.159,32.868\C,0,36.53,4.208,34.401\C,0,33.86,1.437,35.074
 \C,0,33.594,1.609,36.53\C,0,34.315,2.74,37.296\O,0,33.682,3.714,37.693

 Normal termination of Gaussian 16 at Thu May  5 10:13:27 2022.
