 Gaussian 16, Revision A.03,
 Gaussian 16:  ES64L-G16RevA.03 25-Dec-2016

 ------------------------------
 #p blyp/Def2SVP td=(nstates=5)
 ------------------------------

 --------------------------------------------------
 step_1701_chromophore_2 TDDFT with blyp functional
 --------------------------------------------------
 Symbolic Z-matrix:
 Charge =  0 Multiplicity = 1

                         Standard orientation:
 ---------------------------------------------------------------------
 Center     Atomic      Atomic             Coordinates (Angstroms)
 Number     Number       Type             X           Y           Z
 ---------------------------------------------------------------------
      1         12           0        4.077678    1.211014   -0.431122
      2          6           0        4.417821   -2.203653   -0.975590
      3          6           0        1.446263    1.307908   -2.570305
      4          6           0        3.275285    4.378313    0.724410
      5          6           0        6.308873    0.943628    2.253373
      6          7           0        3.142714   -0.299682   -1.572240
      7          6           0        3.389486   -1.671435   -1.724338
      8          6           0        2.506423   -2.376401   -2.708865
      9          6           0        1.944701   -1.067012   -3.475473
     10          6           0        2.169141    0.093810   -2.500859
     11          6           0        2.576739   -0.711665   -4.854632
     12          6           0        1.447206   -3.315866   -2.090145
     13          6           0        0.983935   -3.110586   -0.630133
     14          6           0       -0.329282   -2.379245   -0.365633
     15          8           0       -0.500302   -1.169784   -0.187686
     16          8           0       -1.382728   -3.255727   -0.225182
     17          7           0        2.548112    2.658058   -0.938829
     18          6           0        1.656982    2.537546   -1.924696
     19          6           0        0.954649    3.746342   -2.104118
     20          6           0        1.482585    4.744975   -1.202237
     21          6           0        2.496080    3.944376   -0.377117
     22          6           0       -0.032868    3.988828   -3.165928
     23          6           0        1.142147    6.227756   -1.095276
     24          8           0        0.298164    6.742163   -1.820630
     25          6           0        1.700659    7.187699   -0.152356
     26          7           0        4.701450    2.497155    1.221735
     27          6           0        4.211024    3.722152    1.463655
     28          6           0        4.863639    4.335531    2.778471
     29          6           0        5.696698    3.111650    3.348138
     30          6           0        5.559045    2.091262    2.200364
     31          6           0        5.823614    5.599752    2.542245
     32          6           0        5.191196    2.526759    4.766821
     33          6           0        6.310860    2.556801    5.774228
     34          7           0        5.352390   -0.177329    0.363572
     35          6           0        6.238189   -0.143344    1.396060
     36          6           0        7.054797   -1.401882    1.526003
     37          6           0        6.365034   -2.245156    0.630965
     38          6           0        5.336756   -1.474036   -0.075742
     39          6           0        8.173243   -1.685362    2.451713
     40          6           0        6.211404   -3.662710    0.148275
     41          8           0        6.806881   -4.700629    0.376150
     42          6           0        4.987071   -3.660475   -0.905401
     43          6           0        5.406000   -4.179292   -2.235409
     44          8           0        4.665820   -4.839003   -2.981234
     45          8           0        6.620592   -3.715277   -2.664498
     46          6           0        7.018872   -3.943313   -4.021030
     47          6           0       -2.763778   -2.722540   -0.189450
     48          6           0       -3.501927   -3.478457    0.896881
     49          6           0       -3.782022   -3.206443    2.193853
     50          6           0       -3.397697   -1.983844    2.917570
     51          6           0       -4.668702   -4.148784    2.982537
     52          6           0       -6.190551   -3.763646    3.286775
     53          6           0       -7.129073   -4.647271    2.501608
     54          6           0       -8.476678   -3.952012    2.121050
     55          6           0       -9.464944   -5.191613    1.788684
     56          6           0       -8.295104   -3.018577    0.940473
     57          6           0       -9.240332   -1.777662    0.920789
     58          6           0       -8.415322   -0.478361    1.241302
     59          6           0       -7.936044    0.274451   -0.035452
     60          6           0       -6.377973    0.137215   -0.043782
     61          6           0       -8.387711    1.784923    0.021126
     62          6           0       -9.531896    2.112323   -0.943125
     63          6           0      -10.429099    3.381683   -0.608070
     64          6           0      -11.772293    3.505774   -1.406065
     65          6           0      -11.498493    3.622531   -2.885745
     66          6           0      -12.630126    4.661537   -0.821219
     67          1           0        0.644234    1.216409   -3.306212
     68          1           0        3.320631    5.433227    1.001602
     69          1           0        7.055292    0.966052    3.050682
     70          1           0        3.147874   -2.984514   -3.346232
     71          1           0        0.909221   -1.286500   -3.736556
     72          1           0        1.872743   -0.669731   -5.686327
     73          1           0        3.197898   -1.555273   -5.159213
     74          1           0        3.076009    0.254352   -4.922886
     75          1           0        1.756662   -4.360331   -2.052961
     76          1           0        0.544550   -3.389795   -2.697574
     77          1           0        1.681059   -2.397824   -0.188336
     78          1           0        1.125473   -4.063546   -0.120211
     79          1           0       -0.516056    3.035182   -3.381382
     80          1           0        0.449888    4.225959   -4.114015
     81          1           0       -0.868835    4.656075   -2.958797
     82          1           0        2.779220    7.345932   -0.181172
     83          1           0        1.458239    6.717185    0.800260
     84          1           0        1.230927    8.168481   -0.221003
     85          1           0        4.074848    4.534119    3.503532
     86          1           0        6.761130    3.337739    3.412778
     87          1           0        6.610420    5.503199    3.291111
     88          1           0        5.342873    6.571444    2.649308
     89          1           0        6.270521    5.578111    1.548943
     90          1           0        4.686171    1.565699    4.664452
     91          1           0        4.401373    3.187833    5.124547
     92          1           0        6.016721    2.035548    6.685039
     93          1           0        6.690857    3.570518    5.907160
     94          1           0        7.145428    1.951721    5.418362
     95          1           0        8.654850   -2.661006    2.400905
     96          1           0        7.734624   -1.524746    3.436571
     97          1           0        8.902359   -0.882455    2.346796
     98          1           0        4.205437   -4.390589   -0.695069
     99          1           0        7.954750   -3.389551   -4.096251
    100          1           0        6.336631   -3.401618   -4.675957
    101          1           0        7.080445   -5.013023   -4.223259
    102          1           0       -3.343977   -3.071137   -1.043532
    103          1           0       -2.800873   -1.684319    0.138642
    104          1           0       -4.043688   -4.315358    0.455830
    105          1           0       -2.519232   -1.456767    2.546557
    106          1           0       -3.227569   -2.298960    3.947673
    107          1           0       -4.233594   -1.285124    2.878045
    108          1           0       -4.163914   -4.439930    3.903639
    109          1           0       -4.655500   -5.124972    2.498705
    110          1           0       -6.270508   -2.679462    3.199575
    111          1           0       -6.284647   -3.955864    4.356205
    112          1           0       -7.106723   -5.603479    3.026557
    113          1           0       -6.634129   -4.788626    1.541093
    114          1           0       -8.872806   -3.457309    3.007720
    115          1           0       -9.778108   -5.176056    0.744538
    116          1           0      -10.404935   -5.028710    2.315555
    117          1           0       -9.026248   -6.167087    1.996427
    118          1           0       -8.681296   -3.504856    0.044262
    119          1           0       -7.238237   -2.786567    0.815155
    120          1           0       -9.933359   -1.718682    1.759607
    121          1           0       -9.892349   -1.678283    0.052280
    122          1           0       -7.615566   -0.613582    1.969601
    123          1           0       -9.093303    0.184605    1.778063
    124          1           0       -8.314509   -0.262938   -0.905241
    125          1           0       -5.873687    1.021663    0.344230
    126          1           0       -5.977825   -0.112939   -1.026446
    127          1           0       -6.035134   -0.660084    0.615494
    128          1           0       -7.499997    2.411375    0.111577
    129          1           0       -8.871173    1.900055    0.991107
    130          1           0      -10.158897    1.223090   -1.010539
    131          1           0       -9.030207    2.201029   -1.906889
    132          1           0       -9.793813    4.267404   -0.629432
    133          1           0      -10.724178    3.174803    0.420474
    134          1           0      -12.394152    2.630472   -1.222309
    135          1           0      -11.800368    2.676871   -3.335779
    136          1           0      -10.451837    3.851459   -3.086138
    137          1           0      -12.181242    4.315292   -3.377213
    138          1           0      -13.637548    4.289068   -0.636401
    139          1           0      -12.734143    5.457091   -1.558222
    140          1           0      -12.214418    5.059717    0.104257
 ---------------------------------------------------------------------

 SCF Done:  E(RB-LYP) =  -3007.37839676     A.U. after   21 cycles

 Excitation energies and oscillator strengths:

 Excited State   1:      Singlet-A      1.6147 eV  767.83 nm  f=0.0003  <S**2>=0.000
     244 -> 247       -0.20356
     245 -> 247        0.67650
 This state for optimization and/or second-order correction.
 Total Energy, E(TD-HF/TD-DFT) =  -3007.31905652
 Copying the excited state density for this state as the 1-particle RhoCI density.

 Excited State   2:      Singlet-A      1.7888 eV  693.12 nm  f=0.2908  <S**2>=0.000
     244 -> 248        0.17675
     246 -> 247        0.69010
     246 <- 247       -0.15521

 Excited State   3:      Singlet-A      1.9813 eV  625.77 nm  f=0.0441  <S**2>=0.000
     243 -> 247        0.48151
     244 -> 247       -0.46141
     245 -> 247       -0.13968
     246 -> 248        0.15675

 Excited State   4:      Singlet-A      2.0999 eV  590.43 nm  f=0.0376  <S**2>=0.000
     243 -> 247        0.51007
     244 -> 247        0.40524
     245 -> 247        0.12243
     246 -> 248       -0.22133

 Excited State   5:      Singlet-A      2.2666 eV  547.02 nm  f=0.0004  <S**2>=0.000
     241 -> 247        0.70676

 The electronic state is 1-A.
 Alpha  occ. eigenvalues --  -46.27232 -18.81898 -18.80904 -18.76676 -18.76284
 Alpha  occ. eigenvalues --  -18.76195 -18.74303 -14.03415 -14.03147 -14.01527
 Alpha  occ. eigenvalues --  -14.00964 -10.04093 -10.03691 -10.00482  -9.99146
 Alpha  occ. eigenvalues --   -9.97872  -9.97270  -9.96906  -9.96774  -9.96529
 Alpha  occ. eigenvalues --   -9.96198  -9.95991  -9.95912  -9.95823  -9.94977
 Alpha  occ. eigenvalues --   -9.94619  -9.94542  -9.94513  -9.94340  -9.94322
 Alpha  occ. eigenvalues --   -9.94298  -9.93892  -9.93413  -9.93197  -9.93183
 Alpha  occ. eigenvalues --   -9.93156  -9.93130  -9.93098  -9.93004  -9.92853
 Alpha  occ. eigenvalues --   -9.92740  -9.92544  -9.92454  -9.92397  -9.92336
 Alpha  occ. eigenvalues --   -9.92335  -9.92314  -9.91749  -9.91689  -9.91656
 Alpha  occ. eigenvalues --   -9.91584  -9.91521  -9.91436  -9.91314  -9.91295
 Alpha  occ. eigenvalues --   -9.91195  -9.91132  -9.91113  -9.90984  -9.90901
 Alpha  occ. eigenvalues --   -9.90805  -9.90628  -9.90530  -9.90441  -9.90362
 Alpha  occ. eigenvalues --   -9.90302  -2.91848  -1.72269  -1.71692  -1.71599
 Alpha  occ. eigenvalues --   -0.97931  -0.96388  -0.91716  -0.90845  -0.89348
 Alpha  occ. eigenvalues --   -0.88256  -0.86439  -0.85542  -0.85146  -0.84254
 Alpha  occ. eigenvalues --   -0.74400  -0.73441  -0.72536  -0.72424  -0.72226
 Alpha  occ. eigenvalues --   -0.71612  -0.71340  -0.70776  -0.70588  -0.70390
 Alpha  occ. eigenvalues --   -0.69301  -0.68908  -0.68002  -0.67608  -0.67306
 Alpha  occ. eigenvalues --   -0.66307  -0.65994  -0.65353  -0.65284  -0.64814
 Alpha  occ. eigenvalues --   -0.63577  -0.62814  -0.62034  -0.61639  -0.60734
 Alpha  occ. eigenvalues --   -0.60029  -0.60019  -0.59721  -0.59187  -0.58588
 Alpha  occ. eigenvalues --   -0.58141  -0.57464  -0.56557  -0.55843  -0.54513
 Alpha  occ. eigenvalues --   -0.54033  -0.53615  -0.52865  -0.52095  -0.51938
 Alpha  occ. eigenvalues --   -0.51082  -0.50835  -0.50568  -0.50461  -0.49947
 Alpha  occ. eigenvalues --   -0.49126  -0.49076  -0.48862  -0.48216  -0.46148
 Alpha  occ. eigenvalues --   -0.45813  -0.45459  -0.45120  -0.45101  -0.44290
 Alpha  occ. eigenvalues --   -0.43827  -0.43528  -0.42959  -0.42821  -0.42537
 Alpha  occ. eigenvalues --   -0.41971  -0.41859  -0.41434  -0.41408  -0.40844
 Alpha  occ. eigenvalues --   -0.40553  -0.40325  -0.40124  -0.39932  -0.39673
 Alpha  occ. eigenvalues --   -0.39583  -0.39148  -0.39100  -0.38909  -0.38841
 Alpha  occ. eigenvalues --   -0.38641  -0.38505  -0.38441  -0.38250  -0.38163
 Alpha  occ. eigenvalues --   -0.38072  -0.37728  -0.37289  -0.37207  -0.37194
 Alpha  occ. eigenvalues --   -0.37076  -0.36660  -0.36551  -0.36388  -0.36176
 Alpha  occ. eigenvalues --   -0.36024  -0.35970  -0.35728  -0.35704  -0.35532
 Alpha  occ. eigenvalues --   -0.35369  -0.35077  -0.34930  -0.34629  -0.34478
 Alpha  occ. eigenvalues --   -0.34371  -0.34273  -0.34098  -0.33935  -0.33841
 Alpha  occ. eigenvalues --   -0.33795  -0.33642  -0.33555  -0.33300  -0.33199
 Alpha  occ. eigenvalues --   -0.32956  -0.32733  -0.32665  -0.32439  -0.32369
 Alpha  occ. eigenvalues --   -0.31975  -0.31465  -0.31397  -0.31297  -0.31166
 Alpha  occ. eigenvalues --   -0.31089  -0.30547  -0.30407  -0.30300  -0.30258
 Alpha  occ. eigenvalues --   -0.30086  -0.29915  -0.29885  -0.29638  -0.29466
 Alpha  occ. eigenvalues --   -0.29288  -0.29223  -0.28965  -0.28954  -0.28830
 Alpha  occ. eigenvalues --   -0.28649  -0.28616  -0.28249  -0.28218  -0.27730
 Alpha  occ. eigenvalues --   -0.27540  -0.27414  -0.26582  -0.26513  -0.26504
 Alpha  occ. eigenvalues --   -0.26306  -0.25933  -0.25912  -0.25223  -0.25137
 Alpha  occ. eigenvalues --   -0.24990  -0.24658  -0.23886  -0.23775  -0.23499
 Alpha  occ. eigenvalues --   -0.23024  -0.22506  -0.21766  -0.21528  -0.21053
 Alpha  occ. eigenvalues --   -0.19929  -0.19872  -0.18988  -0.17502  -0.17461
 Alpha  occ. eigenvalues --   -0.15761
 Alpha virt. eigenvalues --   -0.11601  -0.06917  -0.06087  -0.04554  -0.03420
 Alpha virt. eigenvalues --   -0.02946  -0.02541  -0.02451  -0.01796   0.00334
 Alpha virt. eigenvalues --    0.01637   0.01796   0.02050   0.02292   0.02824

 Mulliken charges:
               1
     1  Mg   0.696585
     2  C    0.044314
     3  C   -0.044491
     4  C   -0.032882
     5  C   -0.102230
     6  N   -0.283833
     7  C   -0.098000
     8  C    0.112361
     9  C   -0.009229
    10  C    0.065052
    11  C    0.114362
    12  C    0.101260
    13  C    0.113577
    14  C    0.080237
    15  O   -0.201419
    16  O   -0.284440
    17  N   -0.261978
    18  C    0.163556
    19  C   -0.132451
    20  C    0.044865
    21  C    0.120750
    22  C    0.180106
    23  C   -0.087663
    24  O   -0.175632
    25  C    0.149258
    26  N   -0.188428
    27  C   -0.027704
    28  C    0.032302
    29  C   -0.025142
    30  C    0.016529
    31  C    0.103511
    32  C    0.111480
    33  C    0.068260
    34  N   -0.262294
    35  C    0.136763
    36  C   -0.189928
    37  C    0.042759
    38  C    0.042169
    39  C    0.199809
    40  C    0.023439
    41  O   -0.116395
    42  C    0.064428
    43  C    0.088742
    44  O   -0.214332
    45  O   -0.262830
    46  C    0.231756
    47  C    0.368892
    48  C   -0.154804
    49  C   -0.127285
    50  C    0.147573
    51  C    0.085989
    52  C    0.095108
    53  C    0.075586
    54  C   -0.065527
    55  C    0.096824
    56  C    0.143200
    57  C    0.055885
    58  C    0.073227
    59  C   -0.077656
    60  C    0.084598
    61  C    0.147370
    62  C    0.044616
    63  C    0.079900
    64  C   -0.093749
    65  C    0.136139
    66  C    0.114034
    67  H   -0.061502
    68  H   -0.075860
    69  H   -0.070934
    70  H   -0.013257
    71  H   -0.030801
    72  H   -0.016920
    73  H   -0.012593
    74  H    0.002438
    75  H   -0.010343
    76  H   -0.022025
    77  H    0.012824
    78  H   -0.001521
    79  H   -0.032793
    80  H    0.000792
    81  H    0.007822
    82  H    0.009571
    83  H    0.003045
    84  H   -0.007102
    85  H   -0.020766
    86  H   -0.024443
    87  H   -0.005260
    88  H    0.001548
    89  H   -0.001675
    90  H   -0.012177
    91  H   -0.028210
    92  H   -0.009132
    93  H   -0.000283
    94  H   -0.018624
    95  H    0.016982
    96  H    0.000963
    97  H   -0.005223
    98  H   -0.015816
    99  H    0.009135
   100  H    0.001719
   101  H    0.027700
   102  H   -0.008596
   103  H    0.006037
   104  H   -0.045261
   105  H    0.006845
   106  H   -0.017159
   107  H    0.008941
   108  H   -0.035969
   109  H   -0.043455
   110  H   -0.032022
   111  H   -0.037049
   112  H   -0.021123
   113  H   -0.026359
   114  H   -0.030930
   115  H   -0.027781
   116  H   -0.017898
   117  H   -0.007770
   118  H   -0.036437
   119  H   -0.012227
   120  H   -0.035605
   121  H   -0.026680
   122  H   -0.034551
   123  H   -0.051022
   124  H   -0.033713
   125  H   -0.019776
   126  H   -0.017850
   127  H   -0.015941
   128  H   -0.036260
   129  H   -0.054944
   130  H   -0.033523
   131  H   -0.027069
   132  H   -0.018649
   133  H   -0.034793
   134  H   -0.039979
   135  H   -0.024173
   136  H   -0.001800
   137  H   -0.029448
   138  H   -0.019984
   139  H   -0.023543
   140  H   -0.016614
 Sum of Mulliken charges =  -0.00000

 Dipole moment (field-independent basis, Debye):
    X=              1.1467    Y=              1.4566    Z=              1.5576  Tot=              2.4213
 Quadrupole moment (field-independent basis, Debye-Ang):
   XX=           -373.5315   YY=           -441.3705   ZZ=           -379.1008
   XY=             43.7179   XZ=              0.9092   YZ=             18.2968

 Normal termination of Gaussian 16 at Wed May  4 12:41:20 2022.
