 Gaussian 16, Revision A.03,
 Gaussian 16:  ES64L-G16RevA.03 25-Dec-2016

 -----------------------------------
 #p cam-b3lyp/Def2SVP td=(nstates=5)
 -----------------------------------

 -------------------------------------------------------
 step_1701_chromophore_2 TDDFT with cam-b3lyp functional
 -------------------------------------------------------
 Symbolic Z-matrix:
 Charge =  0 Multiplicity = 1

                         Standard orientation:
 ---------------------------------------------------------------------
 Center     Atomic      Atomic             Coordinates (Angstroms)
 Number     Number       Type             X           Y           Z
 ---------------------------------------------------------------------
      1         12           0        4.077678    1.211014   -0.431122
      2          6           0        4.417821   -2.203653   -0.975590
      3          6           0        1.446263    1.307908   -2.570305
      4          6           0        3.275285    4.378313    0.724410
      5          6           0        6.308873    0.943628    2.253373
      6          7           0        3.142714   -0.299682   -1.572240
      7          6           0        3.389486   -1.671435   -1.724338
      8          6           0        2.506423   -2.376401   -2.708865
      9          6           0        1.944701   -1.067012   -3.475473
     10          6           0        2.169141    0.093810   -2.500859
     11          6           0        2.576739   -0.711665   -4.854632
     12          6           0        1.447206   -3.315866   -2.090145
     13          6           0        0.983935   -3.110586   -0.630133
     14          6           0       -0.329282   -2.379245   -0.365633
     15          8           0       -0.500302   -1.169784   -0.187686
     16          8           0       -1.382728   -3.255727   -0.225182
     17          7           0        2.548112    2.658058   -0.938829
     18          6           0        1.656982    2.537546   -1.924696
     19          6           0        0.954649    3.746342   -2.104118
     20          6           0        1.482585    4.744975   -1.202237
     21          6           0        2.496080    3.944376   -0.377117
     22          6           0       -0.032868    3.988828   -3.165928
     23          6           0        1.142147    6.227756   -1.095276
     24          8           0        0.298164    6.742163   -1.820630
     25          6           0        1.700659    7.187699   -0.152356
     26          7           0        4.701450    2.497155    1.221735
     27          6           0        4.211024    3.722152    1.463655
     28          6           0        4.863639    4.335531    2.778471
     29          6           0        5.696698    3.111650    3.348138
     30          6           0        5.559045    2.091262    2.200364
     31          6           0        5.823614    5.599752    2.542245
     32          6           0        5.191196    2.526759    4.766821
     33          6           0        6.310860    2.556801    5.774228
     34          7           0        5.352390   -0.177329    0.363572
     35          6           0        6.238189   -0.143344    1.396060
     36          6           0        7.054797   -1.401882    1.526003
     37          6           0        6.365034   -2.245156    0.630965
     38          6           0        5.336756   -1.474036   -0.075742
     39          6           0        8.173243   -1.685362    2.451713
     40          6           0        6.211404   -3.662710    0.148275
     41          8           0        6.806881   -4.700629    0.376150
     42          6           0        4.987071   -3.660475   -0.905401
     43          6           0        5.406000   -4.179292   -2.235409
     44          8           0        4.665820   -4.839003   -2.981234
     45          8           0        6.620592   -3.715277   -2.664498
     46          6           0        7.018872   -3.943313   -4.021030
     47          6           0       -2.763778   -2.722540   -0.189450
     48          6           0       -3.501927   -3.478457    0.896881
     49          6           0       -3.782022   -3.206443    2.193853
     50          6           0       -3.397697   -1.983844    2.917570
     51          6           0       -4.668702   -4.148784    2.982537
     52          6           0       -6.190551   -3.763646    3.286775
     53          6           0       -7.129073   -4.647271    2.501608
     54          6           0       -8.476678   -3.952012    2.121050
     55          6           0       -9.464944   -5.191613    1.788684
     56          6           0       -8.295104   -3.018577    0.940473
     57          6           0       -9.240332   -1.777662    0.920789
     58          6           0       -8.415322   -0.478361    1.241302
     59          6           0       -7.936044    0.274451   -0.035452
     60          6           0       -6.377973    0.137215   -0.043782
     61          6           0       -8.387711    1.784923    0.021126
     62          6           0       -9.531896    2.112323   -0.943125
     63          6           0      -10.429099    3.381683   -0.608070
     64          6           0      -11.772293    3.505774   -1.406065
     65          6           0      -11.498493    3.622531   -2.885745
     66          6           0      -12.630126    4.661537   -0.821219
     67          1           0        0.644234    1.216409   -3.306212
     68          1           0        3.320631    5.433227    1.001602
     69          1           0        7.055292    0.966052    3.050682
     70          1           0        3.147874   -2.984514   -3.346232
     71          1           0        0.909221   -1.286500   -3.736556
     72          1           0        1.872743   -0.669731   -5.686327
     73          1           0        3.197898   -1.555273   -5.159213
     74          1           0        3.076009    0.254352   -4.922886
     75          1           0        1.756662   -4.360331   -2.052961
     76          1           0        0.544550   -3.389795   -2.697574
     77          1           0        1.681059   -2.397824   -0.188336
     78          1           0        1.125473   -4.063546   -0.120211
     79          1           0       -0.516056    3.035182   -3.381382
     80          1           0        0.449888    4.225959   -4.114015
     81          1           0       -0.868835    4.656075   -2.958797
     82          1           0        2.779220    7.345932   -0.181172
     83          1           0        1.458239    6.717185    0.800260
     84          1           0        1.230927    8.168481   -0.221003
     85          1           0        4.074848    4.534119    3.503532
     86          1           0        6.761130    3.337739    3.412778
     87          1           0        6.610420    5.503199    3.291111
     88          1           0        5.342873    6.571444    2.649308
     89          1           0        6.270521    5.578111    1.548943
     90          1           0        4.686171    1.565699    4.664452
     91          1           0        4.401373    3.187833    5.124547
     92          1           0        6.016721    2.035548    6.685039
     93          1           0        6.690857    3.570518    5.907160
     94          1           0        7.145428    1.951721    5.418362
     95          1           0        8.654850   -2.661006    2.400905
     96          1           0        7.734624   -1.524746    3.436571
     97          1           0        8.902359   -0.882455    2.346796
     98          1           0        4.205437   -4.390589   -0.695069
     99          1           0        7.954750   -3.389551   -4.096251
    100          1           0        6.336631   -3.401618   -4.675957
    101          1           0        7.080445   -5.013023   -4.223259
    102          1           0       -3.343977   -3.071137   -1.043532
    103          1           0       -2.800873   -1.684319    0.138642
    104          1           0       -4.043688   -4.315358    0.455830
    105          1           0       -2.519232   -1.456767    2.546557
    106          1           0       -3.227569   -2.298960    3.947673
    107          1           0       -4.233594   -1.285124    2.878045
    108          1           0       -4.163914   -4.439930    3.903639
    109          1           0       -4.655500   -5.124972    2.498705
    110          1           0       -6.270508   -2.679462    3.199575
    111          1           0       -6.284647   -3.955864    4.356205
    112          1           0       -7.106723   -5.603479    3.026557
    113          1           0       -6.634129   -4.788626    1.541093
    114          1           0       -8.872806   -3.457309    3.007720
    115          1           0       -9.778108   -5.176056    0.744538
    116          1           0      -10.404935   -5.028710    2.315555
    117          1           0       -9.026248   -6.167087    1.996427
    118          1           0       -8.681296   -3.504856    0.044262
    119          1           0       -7.238237   -2.786567    0.815155
    120          1           0       -9.933359   -1.718682    1.759607
    121          1           0       -9.892349   -1.678283    0.052280
    122          1           0       -7.615566   -0.613582    1.969601
    123          1           0       -9.093303    0.184605    1.778063
    124          1           0       -8.314509   -0.262938   -0.905241
    125          1           0       -5.873687    1.021663    0.344230
    126          1           0       -5.977825   -0.112939   -1.026446
    127          1           0       -6.035134   -0.660084    0.615494
    128          1           0       -7.499997    2.411375    0.111577
    129          1           0       -8.871173    1.900055    0.991107
    130          1           0      -10.158897    1.223090   -1.010539
    131          1           0       -9.030207    2.201029   -1.906889
    132          1           0       -9.793813    4.267404   -0.629432
    133          1           0      -10.724178    3.174803    0.420474
    134          1           0      -12.394152    2.630472   -1.222309
    135          1           0      -11.800368    2.676871   -3.335779
    136          1           0      -10.451837    3.851459   -3.086138
    137          1           0      -12.181242    4.315292   -3.377213
    138          1           0      -13.637548    4.289068   -0.636401
    139          1           0      -12.734143    5.457091   -1.558222
    140          1           0      -12.214418    5.059717    0.104257
 ---------------------------------------------------------------------

 SCF Done:  E(RCAM-B3LYP) =  -3007.16120935     A.U. after   19 cycles

 Excitation energies and oscillator strengths:

 Excited State   1:      Singlet-A      1.6712 eV  741.89 nm  f=0.3770  <S**2>=0.000
     245 -> 248        0.17259
     246 -> 247        0.68825
     245 <- 248        0.10773
 This state for optimization and/or second-order correction.
 Total Energy, E(TD-HF/TD-DFT) =  -3007.09979379
 Copying the excited state density for this state as the 1-particle RhoCI density.

 Excited State   2:      Singlet-A      2.2583 eV  549.01 nm  f=0.0873  <S**2>=0.000
     245 -> 247        0.62539
     246 -> 248       -0.31773

 Excited State   3:      Singlet-A      3.2567 eV  380.70 nm  f=0.0051  <S**2>=0.000
     244 -> 247        0.67218
     246 -> 248       -0.17245

 Excited State   4:      Singlet-A      3.4149 eV  363.07 nm  f=0.0010  <S**2>=0.000
     242 -> 247        0.55528
     242 -> 248       -0.16401
     242 -> 249        0.24830
     242 -> 250       -0.13144
     242 -> 251        0.24495

 Excited State   5:      Singlet-A      3.5115 eV  353.08 nm  f=0.6666  <S**2>=0.000
     240 -> 247       -0.13135
     241 -> 247       -0.15150
     244 -> 247        0.14740
     245 -> 247        0.30678
     246 -> 248        0.58043
     245 <- 247       -0.10801

 The electronic state is 1-A.
 Alpha  occ. eigenvalues --  -46.88787 -19.24777 -19.23692 -19.19789 -19.19559
 Alpha  occ. eigenvalues --  -19.19100 -19.17558 -14.42264 -14.42051 -14.39998
 Alpha  occ. eigenvalues --  -14.39512 -10.39568 -10.38974 -10.35950 -10.34316
 Alpha  occ. eigenvalues --  -10.31737 -10.31530 -10.31361 -10.31224 -10.31215
 Alpha  occ. eigenvalues --  -10.30718 -10.30253 -10.30196 -10.30063 -10.29357
 Alpha  occ. eigenvalues --  -10.29029 -10.28798 -10.28771 -10.28709 -10.28364
 Alpha  occ. eigenvalues --  -10.28350 -10.27879 -10.27755 -10.27582 -10.27316
 Alpha  occ. eigenvalues --  -10.27046 -10.26969 -10.26909 -10.26868 -10.26862
 Alpha  occ. eigenvalues --  -10.26829 -10.26724 -10.26608 -10.26397 -10.26144
 Alpha  occ. eigenvalues --  -10.26042 -10.25935 -10.25456 -10.25436 -10.25391
 Alpha  occ. eigenvalues --  -10.25358 -10.25235 -10.25146 -10.25024 -10.24959
 Alpha  occ. eigenvalues --  -10.24828 -10.24801 -10.24792 -10.24792 -10.24755
 Alpha  occ. eigenvalues --  -10.24412 -10.24312 -10.24213 -10.24028 -10.23967
 Alpha  occ. eigenvalues --  -10.23846  -3.17305  -1.92205  -1.91726  -1.91644
 Alpha  occ. eigenvalues --   -1.16423  -1.14758  -1.10194  -1.09303  -1.07294
 Alpha  occ. eigenvalues --   -1.05999  -1.04133  -1.03115  -1.02815  -1.01776
 Alpha  occ. eigenvalues --   -0.91468  -0.90290  -0.89282  -0.89167  -0.88954
 Alpha  occ. eigenvalues --   -0.88283  -0.87967  -0.87364  -0.87152  -0.86887
 Alpha  occ. eigenvalues --   -0.85936  -0.85307  -0.84227  -0.83771  -0.83478
 Alpha  occ. eigenvalues --   -0.82400  -0.82176  -0.81289  -0.81065  -0.80695
 Alpha  occ. eigenvalues --   -0.79344  -0.78454  -0.77527  -0.77242  -0.76224
 Alpha  occ. eigenvalues --   -0.75391  -0.75324  -0.75037  -0.74469  -0.73797
 Alpha  occ. eigenvalues --   -0.73206  -0.72441  -0.71437  -0.70675  -0.69054
 Alpha  occ. eigenvalues --   -0.68699  -0.68158  -0.67427  -0.66408  -0.66035
 Alpha  occ. eigenvalues --   -0.65307  -0.64948  -0.64665  -0.64309  -0.64000
 Alpha  occ. eigenvalues --   -0.63043  -0.62740  -0.62514  -0.62062  -0.59796
 Alpha  occ. eigenvalues --   -0.59450  -0.58962  -0.58569  -0.58404  -0.57837
 Alpha  occ. eigenvalues --   -0.57088  -0.56940  -0.56144  -0.55940  -0.55652
 Alpha  occ. eigenvalues --   -0.55248  -0.54996  -0.54421  -0.54207  -0.53474
 Alpha  occ. eigenvalues --   -0.53294  -0.53048  -0.52788  -0.52745  -0.52519
 Alpha  occ. eigenvalues --   -0.52252  -0.52162  -0.51869  -0.51703  -0.51635
 Alpha  occ. eigenvalues --   -0.51263  -0.51031  -0.50792  -0.50628  -0.50566
 Alpha  occ. eigenvalues --   -0.50334  -0.50176  -0.49866  -0.49710  -0.49319
 Alpha  occ. eigenvalues --   -0.49251  -0.49006  -0.48972  -0.48654  -0.48584
 Alpha  occ. eigenvalues --   -0.48180  -0.48062  -0.47974  -0.47753  -0.47491
 Alpha  occ. eigenvalues --   -0.47382  -0.47170  -0.46874  -0.46654  -0.46522
 Alpha  occ. eigenvalues --   -0.46267  -0.46144  -0.46041  -0.45831  -0.45740
 Alpha  occ. eigenvalues --   -0.45509  -0.45489  -0.45403  -0.45115  -0.44848
 Alpha  occ. eigenvalues --   -0.44777  -0.44619  -0.44233  -0.43940  -0.43890
 Alpha  occ. eigenvalues --   -0.43723  -0.43133  -0.42818  -0.42718  -0.42570
 Alpha  occ. eigenvalues --   -0.42515  -0.42185  -0.41850  -0.41658  -0.41566
 Alpha  occ. eigenvalues --   -0.41512  -0.41282  -0.41174  -0.41015  -0.40865
 Alpha  occ. eigenvalues --   -0.40806  -0.40683  -0.40203  -0.40167  -0.39954
 Alpha  occ. eigenvalues --   -0.39659  -0.39616  -0.39222  -0.39204  -0.38793
 Alpha  occ. eigenvalues --   -0.38612  -0.38324  -0.37594  -0.37422  -0.37275
 Alpha  occ. eigenvalues --   -0.37253  -0.36874  -0.36581  -0.36320  -0.35785
 Alpha  occ. eigenvalues --   -0.35667  -0.35245  -0.35053  -0.34758  -0.34429
 Alpha  occ. eigenvalues --   -0.33566  -0.33387  -0.32952  -0.31529  -0.30818
 Alpha  occ. eigenvalues --   -0.30369  -0.29990  -0.29551  -0.29261  -0.24403
 Alpha  occ. eigenvalues --   -0.20965
 Alpha virt. eigenvalues --   -0.08720  -0.01820   0.00502   0.02210   0.02504
 Alpha virt. eigenvalues --    0.04376   0.04669   0.05100   0.05405   0.06801
 Alpha virt. eigenvalues --    0.08050   0.08302   0.08495   0.08753   0.09030

 Mulliken charges:
               1
     1  Mg   0.829656
     2  C    0.014960
     3  C   -0.055942
     4  C   -0.053354
     5  C   -0.103968
     6  N   -0.353891
     7  C   -0.069524
     8  C    0.064155
     9  C   -0.065469
    10  C    0.078114
    11  C    0.059035
    12  C    0.047551
    13  C    0.043767
    14  C    0.162537
    15  O   -0.242624
    16  O   -0.349129
    17  N   -0.347875
    18  C    0.170320
    19  C   -0.136449
    20  C   -0.022811
    21  C    0.151977
    22  C    0.122766
    23  C   -0.010245
    24  O   -0.215184
    25  C    0.064825
    26  N   -0.261029
    27  C   -0.007326
    28  C   -0.018873
    29  C   -0.080004
    30  C    0.034365
    31  C    0.047605
    32  C    0.056102
    33  C    0.006680
    34  N   -0.350406
    35  C    0.137241
    36  C   -0.178429
    37  C   -0.035665
    38  C    0.079899
    39  C    0.140715
    40  C    0.123901
    41  O   -0.154826
    42  C   -0.008149
    43  C    0.182736
    44  O   -0.255516
    45  O   -0.325355
    46  C    0.191155
    47  C    0.337220
    48  C   -0.172414
    49  C   -0.148284
    50  C    0.084619
    51  C    0.029334
    52  C    0.040461
    53  C    0.022911
    54  C   -0.120896
    55  C    0.043246
    56  C    0.087922
    57  C    0.004045
    58  C    0.023885
    59  C   -0.137859
    60  C    0.038304
    61  C    0.094049
    62  C   -0.002762
    63  C    0.023694
    64  C   -0.149894
    65  C    0.069594
    66  C    0.054230
    67  H   -0.025948
    68  H   -0.041084
    69  H   -0.035798
    70  H    0.023853
    71  H    0.004917
    72  H    0.008434
    73  H    0.011044
    74  H    0.027953
    75  H    0.021942
    76  H    0.009479
    77  H    0.044387
    78  H    0.033392
    79  H   -0.006697
    80  H    0.028720
    81  H    0.038817
    82  H    0.036777
    83  H    0.028599
    84  H    0.029817
    85  H    0.013662
    86  H    0.009887
    87  H    0.017766
    88  H    0.024084
    89  H    0.022931
    90  H    0.018235
    91  H   -0.000322
    92  H    0.016862
    93  H    0.021266
    94  H    0.001499
    95  H    0.045125
    96  H    0.025781
    97  H    0.020457
    98  H    0.024845
    99  H    0.033362
   100  H    0.023045
   101  H    0.050340
   102  H    0.018171
   103  H    0.036960
   104  H   -0.015217
   105  H    0.032480
   106  H    0.008221
   107  H    0.030013
   108  H   -0.004965
   109  H   -0.011157
   110  H   -0.008470
   111  H   -0.006161
   112  H    0.007922
   113  H   -0.000716
   114  H   -0.000111
   115  H   -0.004519
   116  H    0.005813
   117  H    0.015608
   118  H   -0.006615
   119  H    0.010714
   120  H   -0.006832
   121  H    0.001030
   122  H   -0.007515
   123  H   -0.020709
   124  H   -0.001807
   125  H    0.003712
   126  H    0.005898
   127  H   -0.001010
   128  H   -0.006889
   129  H   -0.026922
   130  H   -0.008212
   131  H   -0.001490
   132  H    0.008633
   133  H   -0.007379
   134  H   -0.007488
   135  H    0.000631
   136  H    0.021544
   137  H   -0.003315
   138  H    0.004281
   139  H    0.000654
   140  H    0.008364
 Sum of Mulliken charges =  -0.00000

 Dipole moment (field-independent basis, Debye):
    X=              1.1022    Y=              1.8403    Z=              1.5199  Tot=              2.6290
 Quadrupole moment (field-independent basis, Debye-Ang):
   XX=           -373.8714   YY=           -438.3283   ZZ=           -377.1198
   XY=             45.3870   XZ=              1.5285   YZ=             19.4006

 Normal termination of Gaussian 16 at Wed May  4 11:42:46 2022.
