 Gaussian 16, Revision A.03,
 Gaussian 16:  ES64L-G16RevA.03 25-Dec-2016

 ---------------------------------
 #p PBE1PBE/Def2SVP td=(nstates=5)
 ---------------------------------

 -----------------------------------------------------
 step_1701_chromophore_2 TDDFT with PBE1PBE functional
 -----------------------------------------------------
 Symbolic Z-matrix:
 Charge =  0 Multiplicity = 1

                         Standard orientation:
 ---------------------------------------------------------------------
 Center     Atomic      Atomic             Coordinates (Angstroms)
 Number     Number       Type             X           Y           Z
 ---------------------------------------------------------------------
      1         12           0        4.077678    1.211014   -0.431122
      2          6           0        4.417821   -2.203653   -0.975590
      3          6           0        1.446263    1.307908   -2.570305
      4          6           0        3.275285    4.378313    0.724410
      5          6           0        6.308873    0.943628    2.253373
      6          7           0        3.142714   -0.299682   -1.572240
      7          6           0        3.389486   -1.671435   -1.724338
      8          6           0        2.506423   -2.376401   -2.708865
      9          6           0        1.944701   -1.067012   -3.475473
     10          6           0        2.169141    0.093810   -2.500859
     11          6           0        2.576739   -0.711665   -4.854632
     12          6           0        1.447206   -3.315866   -2.090145
     13          6           0        0.983935   -3.110586   -0.630133
     14          6           0       -0.329282   -2.379245   -0.365633
     15          8           0       -0.500302   -1.169784   -0.187686
     16          8           0       -1.382728   -3.255727   -0.225182
     17          7           0        2.548112    2.658058   -0.938829
     18          6           0        1.656982    2.537546   -1.924696
     19          6           0        0.954649    3.746342   -2.104118
     20          6           0        1.482585    4.744975   -1.202237
     21          6           0        2.496080    3.944376   -0.377117
     22          6           0       -0.032868    3.988828   -3.165928
     23          6           0        1.142147    6.227756   -1.095276
     24          8           0        0.298164    6.742163   -1.820630
     25          6           0        1.700659    7.187699   -0.152356
     26          7           0        4.701450    2.497155    1.221735
     27          6           0        4.211024    3.722152    1.463655
     28          6           0        4.863639    4.335531    2.778471
     29          6           0        5.696698    3.111650    3.348138
     30          6           0        5.559045    2.091262    2.200364
     31          6           0        5.823614    5.599752    2.542245
     32          6           0        5.191196    2.526759    4.766821
     33          6           0        6.310860    2.556801    5.774228
     34          7           0        5.352390   -0.177329    0.363572
     35          6           0        6.238189   -0.143344    1.396060
     36          6           0        7.054797   -1.401882    1.526003
     37          6           0        6.365034   -2.245156    0.630965
     38          6           0        5.336756   -1.474036   -0.075742
     39          6           0        8.173243   -1.685362    2.451713
     40          6           0        6.211404   -3.662710    0.148275
     41          8           0        6.806881   -4.700629    0.376150
     42          6           0        4.987071   -3.660475   -0.905401
     43          6           0        5.406000   -4.179292   -2.235409
     44          8           0        4.665820   -4.839003   -2.981234
     45          8           0        6.620592   -3.715277   -2.664498
     46          6           0        7.018872   -3.943313   -4.021030
     47          6           0       -2.763778   -2.722540   -0.189450
     48          6           0       -3.501927   -3.478457    0.896881
     49          6           0       -3.782022   -3.206443    2.193853
     50          6           0       -3.397697   -1.983844    2.917570
     51          6           0       -4.668702   -4.148784    2.982537
     52          6           0       -6.190551   -3.763646    3.286775
     53          6           0       -7.129073   -4.647271    2.501608
     54          6           0       -8.476678   -3.952012    2.121050
     55          6           0       -9.464944   -5.191613    1.788684
     56          6           0       -8.295104   -3.018577    0.940473
     57          6           0       -9.240332   -1.777662    0.920789
     58          6           0       -8.415322   -0.478361    1.241302
     59          6           0       -7.936044    0.274451   -0.035452
     60          6           0       -6.377973    0.137215   -0.043782
     61          6           0       -8.387711    1.784923    0.021126
     62          6           0       -9.531896    2.112323   -0.943125
     63          6           0      -10.429099    3.381683   -0.608070
     64          6           0      -11.772293    3.505774   -1.406065
     65          6           0      -11.498493    3.622531   -2.885745
     66          6           0      -12.630126    4.661537   -0.821219
     67          1           0        0.644234    1.216409   -3.306212
     68          1           0        3.320631    5.433227    1.001602
     69          1           0        7.055292    0.966052    3.050682
     70          1           0        3.147874   -2.984514   -3.346232
     71          1           0        0.909221   -1.286500   -3.736556
     72          1           0        1.872743   -0.669731   -5.686327
     73          1           0        3.197898   -1.555273   -5.159213
     74          1           0        3.076009    0.254352   -4.922886
     75          1           0        1.756662   -4.360331   -2.052961
     76          1           0        0.544550   -3.389795   -2.697574
     77          1           0        1.681059   -2.397824   -0.188336
     78          1           0        1.125473   -4.063546   -0.120211
     79          1           0       -0.516056    3.035182   -3.381382
     80          1           0        0.449888    4.225959   -4.114015
     81          1           0       -0.868835    4.656075   -2.958797
     82          1           0        2.779220    7.345932   -0.181172
     83          1           0        1.458239    6.717185    0.800260
     84          1           0        1.230927    8.168481   -0.221003
     85          1           0        4.074848    4.534119    3.503532
     86          1           0        6.761130    3.337739    3.412778
     87          1           0        6.610420    5.503199    3.291111
     88          1           0        5.342873    6.571444    2.649308
     89          1           0        6.270521    5.578111    1.548943
     90          1           0        4.686171    1.565699    4.664452
     91          1           0        4.401373    3.187833    5.124547
     92          1           0        6.016721    2.035548    6.685039
     93          1           0        6.690857    3.570518    5.907160
     94          1           0        7.145428    1.951721    5.418362
     95          1           0        8.654850   -2.661006    2.400905
     96          1           0        7.734624   -1.524746    3.436571
     97          1           0        8.902359   -0.882455    2.346796
     98          1           0        4.205437   -4.390589   -0.695069
     99          1           0        7.954750   -3.389551   -4.096251
    100          1           0        6.336631   -3.401618   -4.675957
    101          1           0        7.080445   -5.013023   -4.223259
    102          1           0       -3.343977   -3.071137   -1.043532
    103          1           0       -2.800873   -1.684319    0.138642
    104          1           0       -4.043688   -4.315358    0.455830
    105          1           0       -2.519232   -1.456767    2.546557
    106          1           0       -3.227569   -2.298960    3.947673
    107          1           0       -4.233594   -1.285124    2.878045
    108          1           0       -4.163914   -4.439930    3.903639
    109          1           0       -4.655500   -5.124972    2.498705
    110          1           0       -6.270508   -2.679462    3.199575
    111          1           0       -6.284647   -3.955864    4.356205
    112          1           0       -7.106723   -5.603479    3.026557
    113          1           0       -6.634129   -4.788626    1.541093
    114          1           0       -8.872806   -3.457309    3.007720
    115          1           0       -9.778108   -5.176056    0.744538
    116          1           0      -10.404935   -5.028710    2.315555
    117          1           0       -9.026248   -6.167087    1.996427
    118          1           0       -8.681296   -3.504856    0.044262
    119          1           0       -7.238237   -2.786567    0.815155
    120          1           0       -9.933359   -1.718682    1.759607
    121          1           0       -9.892349   -1.678283    0.052280
    122          1           0       -7.615566   -0.613582    1.969601
    123          1           0       -9.093303    0.184605    1.778063
    124          1           0       -8.314509   -0.262938   -0.905241
    125          1           0       -5.873687    1.021663    0.344230
    126          1           0       -5.977825   -0.112939   -1.026446
    127          1           0       -6.035134   -0.660084    0.615494
    128          1           0       -7.499997    2.411375    0.111577
    129          1           0       -8.871173    1.900055    0.991107
    130          1           0      -10.158897    1.223090   -1.010539
    131          1           0       -9.030207    2.201029   -1.906889
    132          1           0       -9.793813    4.267404   -0.629432
    133          1           0      -10.724178    3.174803    0.420474
    134          1           0      -12.394152    2.630472   -1.222309
    135          1           0      -11.800368    2.676871   -3.335779
    136          1           0      -10.451837    3.851459   -3.086138
    137          1           0      -12.181242    4.315292   -3.377213
    138          1           0      -13.637548    4.289068   -0.636401
    139          1           0      -12.734143    5.457091   -1.558222
    140          1           0      -12.214418    5.059717    0.104257
 ---------------------------------------------------------------------

 SCF Done:  E(RPBE1PBE) =  -3005.34993251     A.U. after   16 cycles

 Excitation energies and oscillator strengths:

 Excited State   1:      Singlet-A      1.8314 eV  676.98 nm  f=0.3640  <S**2>=0.000
     245 -> 248        0.16679
     246 -> 247        0.69569
     246 <- 247       -0.11370
 This state for optimization and/or second-order correction.
 Total Energy, E(TD-HF/TD-DFT) =  -3005.28262909
 Copying the excited state density for this state as the 1-particle RhoCI density.

 Excited State   2:      Singlet-A      2.2661 eV  547.11 nm  f=0.0900  <S**2>=0.000
     245 -> 247        0.63947
     246 -> 248       -0.28889

 Excited State   3:      Singlet-A      2.8152 eV  440.42 nm  f=0.0002  <S**2>=0.000
     244 -> 247        0.67227
     244 -> 249        0.11700
     244 -> 250       -0.11816

 Excited State   4:      Singlet-A      2.9298 eV  423.18 nm  f=0.0032  <S**2>=0.000
     243 -> 247        0.68683

 Excited State   5:      Singlet-A      3.1122 eV  398.38 nm  f=0.0049  <S**2>=0.000
     240 -> 247        0.10404
     241 -> 247        0.65560
     241 -> 249       -0.16667
     246 -> 248       -0.10454

 The electronic state is 1-A.
 Alpha  occ. eigenvalues --  -46.92183 -19.25388 -19.24369 -19.20060 -19.19801
 Alpha  occ. eigenvalues --  -19.19340 -19.17705 -14.41872 -14.41500 -14.39678
 Alpha  occ. eigenvalues --  -14.39094 -10.36594 -10.35974 -10.33146 -10.31378
 Alpha  occ. eigenvalues --  -10.29208 -10.29023 -10.28922 -10.28839 -10.28726
 Alpha  occ. eigenvalues --  -10.28358 -10.28066 -10.28042 -10.27901 -10.26874
 Alpha  occ. eigenvalues --  -10.26782 -10.26711 -10.26537 -10.26422 -10.26205
 Alpha  occ. eigenvalues --  -10.26172 -10.25779 -10.25290 -10.25239 -10.24956
 Alpha  occ. eigenvalues --  -10.24572 -10.24538 -10.24526 -10.24454 -10.24448
 Alpha  occ. eigenvalues --  -10.24436 -10.24331 -10.24261 -10.23990 -10.23760
 Alpha  occ. eigenvalues --  -10.23623 -10.23375 -10.23105 -10.23076 -10.22923
 Alpha  occ. eigenvalues --  -10.22829 -10.22699 -10.22578 -10.22529 -10.22502
 Alpha  occ. eigenvalues --  -10.22408 -10.22340 -10.22315 -10.22306 -10.22154
 Alpha  occ. eigenvalues --  -10.21871 -10.21842 -10.21811 -10.21410 -10.21359
 Alpha  occ. eigenvalues --  -10.21196  -3.14281  -1.87121  -1.86622  -1.86542
 Alpha  occ. eigenvalues --   -1.11184  -1.09530  -1.04970  -1.03970  -1.02113
 Alpha  occ. eigenvalues --   -1.00825  -0.98761  -0.97787  -0.97394  -0.96391
 Alpha  occ. eigenvalues --   -0.85794  -0.84399  -0.83497  -0.83379  -0.83146
 Alpha  occ. eigenvalues --   -0.82378  -0.82234  -0.81706  -0.81255  -0.81222
 Alpha  occ. eigenvalues --   -0.80169  -0.79549  -0.78448  -0.78017  -0.77693
 Alpha  occ. eigenvalues --   -0.76605  -0.76319  -0.75515  -0.75402  -0.74972
 Alpha  occ. eigenvalues --   -0.73476  -0.72754  -0.71873  -0.71515  -0.70519
 Alpha  occ. eigenvalues --   -0.69521  -0.69463  -0.69339  -0.68573  -0.67960
 Alpha  occ. eigenvalues --   -0.67609  -0.66794  -0.65864  -0.64974  -0.63406
 Alpha  occ. eigenvalues --   -0.63134  -0.62409  -0.61851  -0.60673  -0.60462
 Alpha  occ. eigenvalues --   -0.59537  -0.59398  -0.59214  -0.58898  -0.58108
 Alpha  occ. eigenvalues --   -0.57266  -0.57191  -0.57038  -0.56250  -0.54312
 Alpha  occ. eigenvalues --   -0.53929  -0.53407  -0.53145  -0.52998  -0.52434
 Alpha  occ. eigenvalues --   -0.51487  -0.51354  -0.50660  -0.50500  -0.50144
 Alpha  occ. eigenvalues --   -0.49839  -0.49400  -0.48908  -0.48489  -0.47942
 Alpha  occ. eigenvalues --   -0.47854  -0.47665  -0.47330  -0.47246  -0.47016
 Alpha  occ. eigenvalues --   -0.46828  -0.46721  -0.46381  -0.46251  -0.46081
 Alpha  occ. eigenvalues --   -0.45735  -0.45622  -0.45309  -0.45208  -0.45086
 Alpha  occ. eigenvalues --   -0.44860  -0.44770  -0.44505  -0.44227  -0.43943
 Alpha  occ. eigenvalues --   -0.43780  -0.43670  -0.43560  -0.43156  -0.43120
 Alpha  occ. eigenvalues --   -0.42822  -0.42705  -0.42563  -0.42389  -0.42115
 Alpha  occ. eigenvalues --   -0.42036  -0.41880  -0.41546  -0.41306  -0.41197
 Alpha  occ. eigenvalues --   -0.40983  -0.40774  -0.40724  -0.40492  -0.40431
 Alpha  occ. eigenvalues --   -0.40240  -0.40137  -0.40029  -0.39869  -0.39612
 Alpha  occ. eigenvalues --   -0.39583  -0.39383  -0.38884  -0.38711  -0.38612
 Alpha  occ. eigenvalues --   -0.38494  -0.37855  -0.37626  -0.37458  -0.37425
 Alpha  occ. eigenvalues --   -0.37244  -0.36978  -0.36662  -0.36413  -0.36326
 Alpha  occ. eigenvalues --   -0.36276  -0.36143  -0.36056  -0.35859  -0.35678
 Alpha  occ. eigenvalues --   -0.35596  -0.35480  -0.35089  -0.34912  -0.34687
 Alpha  occ. eigenvalues --   -0.34615  -0.34404  -0.34225  -0.33981  -0.33622
 Alpha  occ. eigenvalues --   -0.33476  -0.33095  -0.32615  -0.32279  -0.32221
 Alpha  occ. eigenvalues --   -0.32026  -0.31941  -0.31417  -0.31303  -0.30678
 Alpha  occ. eigenvalues --   -0.30629  -0.30095  -0.30008  -0.29831  -0.29342
 Alpha  occ. eigenvalues --   -0.28600  -0.28327  -0.28307  -0.27108  -0.26074
 Alpha  occ. eigenvalues --   -0.25781  -0.24894  -0.24821  -0.24587  -0.21268
 Alpha  occ. eigenvalues --   -0.18650
 Alpha virt. eigenvalues --   -0.11189  -0.05301  -0.03772  -0.01977  -0.00562
 Alpha virt. eigenvalues --   -0.00170   0.00299   0.00615   0.00998   0.03207
 Alpha virt. eigenvalues --    0.04445   0.04795   0.04864   0.05082   0.05661

 Mulliken charges:
               1
     1  Mg   0.976334
     2  C   -0.000460
     3  C   -0.041677
     4  C   -0.055982
     5  C   -0.089301
     6  N   -0.453326
     7  C   -0.023944
     8  C    0.001316
     9  C   -0.145572
    10  C    0.105830
    11  C    0.006564
    12  C    0.002860
    13  C   -0.035768
    14  C    0.230658
    15  O   -0.276114
    16  O   -0.378128
    17  N   -0.460644
    18  C    0.191331
    19  C   -0.165439
    20  C   -0.068965
    21  C    0.185155
    22  C    0.067723
    23  C    0.036207
    24  O   -0.249962
    25  C   -0.009381
    26  N   -0.369552
    27  C    0.035284
    28  C   -0.093490
    29  C   -0.152600
    30  C    0.074981
    31  C   -0.012666
    32  C   -0.000939
    33  C   -0.071352
    34  N   -0.473643
    35  C    0.150812
    36  C   -0.188416
    37  C   -0.088830
    38  C    0.141987
    39  C    0.082632
    40  C    0.219584
    41  O   -0.200425
    42  C   -0.109006
    43  C    0.273359
    44  O   -0.291182
    45  O   -0.357083
    46  C    0.136812
    47  C    0.290404
    48  C   -0.181933
    49  C   -0.190961
    50  C    0.022521
    51  C   -0.029504
    52  C   -0.022881
    53  C   -0.039833
    54  C   -0.204986
    55  C   -0.012643
    56  C    0.030576
    57  C   -0.058072
    58  C   -0.031029
    59  C   -0.222322
    60  C   -0.020730
    61  C    0.042280
    62  C   -0.064192
    63  C   -0.039506
    64  C   -0.239904
    65  C    0.008509
    66  C   -0.005332
    67  H    0.005647
    68  H   -0.006652
    69  H   -0.003625
    70  H    0.064206
    71  H    0.040631
    72  H    0.035637
    73  H    0.038625
    74  H    0.054909
    75  H    0.053000
    76  H    0.041838
    77  H    0.082465
    78  H    0.064216
    79  H    0.021466
    80  H    0.056717
    81  H    0.065001
    82  H    0.062021
    83  H    0.055391
    84  H    0.057366
    85  H    0.050008
    86  H    0.046202
    87  H    0.045443
    88  H    0.050892
    89  H    0.050604
    90  H    0.049901
    91  H    0.033225
    92  H    0.045664
    93  H    0.049691
    94  H    0.030527
    95  H    0.071978
    96  H    0.054085
    97  H    0.048809
    98  H    0.062838
    99  H    0.055461
   100  H    0.045100
   101  H    0.071400
   102  H    0.044813
   103  H    0.063605
   104  H    0.013801
   105  H    0.059637
   106  H    0.035824
   107  H    0.057785
   108  H    0.027835
   109  H    0.020834
   110  H    0.026385
   111  H    0.027831
   112  H    0.039532
   113  H    0.034596
   114  H    0.036726
   115  H    0.022454
   116  H    0.033449
   117  H    0.041654
   118  H    0.026466
   119  H    0.045129
   120  H    0.025615
   121  H    0.031611
   122  H    0.026374
   123  H    0.012178
   124  H    0.034639
   125  H    0.030665
   126  H    0.033611
   127  H    0.028543
   128  H    0.023994
   129  H    0.006334
   130  H    0.025166
   131  H    0.032185
   132  H    0.040889
   133  H    0.026798
   134  H    0.029981
   135  H    0.028563
   136  H    0.048474
   137  H    0.024372
   138  H    0.031783
   139  H    0.027914
   140  H    0.035222
 Sum of Mulliken charges =  -0.00000

 Dipole moment (field-independent basis, Debye):
    X=              1.1709    Y=              1.7427    Z=              1.6169  Tot=              2.6499
 Quadrupole moment (field-independent basis, Debye-Ang):
   XX=           -369.1817   YY=           -435.8622   ZZ=           -372.8564
   XY=             46.0309   XZ=              2.7243   YZ=             20.1739

 Normal termination of Gaussian 16 at Wed May  4 12:00:04 2022.
