 Gaussian 16, Revision A.03,
 Gaussian 16:  ES64L-G16RevA.03 25-Dec-2016

 --------------------------------
 #p wB97XD/Def2SVP td=(nstates=5)
 --------------------------------

 ----------------------------------------------------
 step_1701_chromophore_2 TDDFT with wB97XD functional
 ----------------------------------------------------
 Symbolic Z-matrix:
 Charge =  0 Multiplicity = 1

                         Standard orientation:
 ---------------------------------------------------------------------
 Center     Atomic      Atomic             Coordinates (Angstroms)
 Number     Number       Type             X           Y           Z
 ---------------------------------------------------------------------
      1         12           0        4.077678    1.211014   -0.431122
      2          6           0        4.417821   -2.203653   -0.975590
      3          6           0        1.446263    1.307908   -2.570305
      4          6           0        3.275285    4.378313    0.724410
      5          6           0        6.308873    0.943628    2.253373
      6          7           0        3.142714   -0.299682   -1.572240
      7          6           0        3.389486   -1.671435   -1.724338
      8          6           0        2.506423   -2.376401   -2.708865
      9          6           0        1.944701   -1.067012   -3.475473
     10          6           0        2.169141    0.093810   -2.500859
     11          6           0        2.576739   -0.711665   -4.854632
     12          6           0        1.447206   -3.315866   -2.090145
     13          6           0        0.983935   -3.110586   -0.630133
     14          6           0       -0.329282   -2.379245   -0.365633
     15          8           0       -0.500302   -1.169784   -0.187686
     16          8           0       -1.382728   -3.255727   -0.225182
     17          7           0        2.548112    2.658058   -0.938829
     18          6           0        1.656982    2.537546   -1.924696
     19          6           0        0.954649    3.746342   -2.104118
     20          6           0        1.482585    4.744975   -1.202237
     21          6           0        2.496080    3.944376   -0.377117
     22          6           0       -0.032868    3.988828   -3.165928
     23          6           0        1.142147    6.227756   -1.095276
     24          8           0        0.298164    6.742163   -1.820630
     25          6           0        1.700659    7.187699   -0.152356
     26          7           0        4.701450    2.497155    1.221735
     27          6           0        4.211024    3.722152    1.463655
     28          6           0        4.863639    4.335531    2.778471
     29          6           0        5.696698    3.111650    3.348138
     30          6           0        5.559045    2.091262    2.200364
     31          6           0        5.823614    5.599752    2.542245
     32          6           0        5.191196    2.526759    4.766821
     33          6           0        6.310860    2.556801    5.774228
     34          7           0        5.352390   -0.177329    0.363572
     35          6           0        6.238189   -0.143344    1.396060
     36          6           0        7.054797   -1.401882    1.526003
     37          6           0        6.365034   -2.245156    0.630965
     38          6           0        5.336756   -1.474036   -0.075742
     39          6           0        8.173243   -1.685362    2.451713
     40          6           0        6.211404   -3.662710    0.148275
     41          8           0        6.806881   -4.700629    0.376150
     42          6           0        4.987071   -3.660475   -0.905401
     43          6           0        5.406000   -4.179292   -2.235409
     44          8           0        4.665820   -4.839003   -2.981234
     45          8           0        6.620592   -3.715277   -2.664498
     46          6           0        7.018872   -3.943313   -4.021030
     47          6           0       -2.763778   -2.722540   -0.189450
     48          6           0       -3.501927   -3.478457    0.896881
     49          6           0       -3.782022   -3.206443    2.193853
     50          6           0       -3.397697   -1.983844    2.917570
     51          6           0       -4.668702   -4.148784    2.982537
     52          6           0       -6.190551   -3.763646    3.286775
     53          6           0       -7.129073   -4.647271    2.501608
     54          6           0       -8.476678   -3.952012    2.121050
     55          6           0       -9.464944   -5.191613    1.788684
     56          6           0       -8.295104   -3.018577    0.940473
     57          6           0       -9.240332   -1.777662    0.920789
     58          6           0       -8.415322   -0.478361    1.241302
     59          6           0       -7.936044    0.274451   -0.035452
     60          6           0       -6.377973    0.137215   -0.043782
     61          6           0       -8.387711    1.784923    0.021126
     62          6           0       -9.531896    2.112323   -0.943125
     63          6           0      -10.429099    3.381683   -0.608070
     64          6           0      -11.772293    3.505774   -1.406065
     65          6           0      -11.498493    3.622531   -2.885745
     66          6           0      -12.630126    4.661537   -0.821219
     67          1           0        0.644234    1.216409   -3.306212
     68          1           0        3.320631    5.433227    1.001602
     69          1           0        7.055292    0.966052    3.050682
     70          1           0        3.147874   -2.984514   -3.346232
     71          1           0        0.909221   -1.286500   -3.736556
     72          1           0        1.872743   -0.669731   -5.686327
     73          1           0        3.197898   -1.555273   -5.159213
     74          1           0        3.076009    0.254352   -4.922886
     75          1           0        1.756662   -4.360331   -2.052961
     76          1           0        0.544550   -3.389795   -2.697574
     77          1           0        1.681059   -2.397824   -0.188336
     78          1           0        1.125473   -4.063546   -0.120211
     79          1           0       -0.516056    3.035182   -3.381382
     80          1           0        0.449888    4.225959   -4.114015
     81          1           0       -0.868835    4.656075   -2.958797
     82          1           0        2.779220    7.345932   -0.181172
     83          1           0        1.458239    6.717185    0.800260
     84          1           0        1.230927    8.168481   -0.221003
     85          1           0        4.074848    4.534119    3.503532
     86          1           0        6.761130    3.337739    3.412778
     87          1           0        6.610420    5.503199    3.291111
     88          1           0        5.342873    6.571444    2.649308
     89          1           0        6.270521    5.578111    1.548943
     90          1           0        4.686171    1.565699    4.664452
     91          1           0        4.401373    3.187833    5.124547
     92          1           0        6.016721    2.035548    6.685039
     93          1           0        6.690857    3.570518    5.907160
     94          1           0        7.145428    1.951721    5.418362
     95          1           0        8.654850   -2.661006    2.400905
     96          1           0        7.734624   -1.524746    3.436571
     97          1           0        8.902359   -0.882455    2.346796
     98          1           0        4.205437   -4.390589   -0.695069
     99          1           0        7.954750   -3.389551   -4.096251
    100          1           0        6.336631   -3.401618   -4.675957
    101          1           0        7.080445   -5.013023   -4.223259
    102          1           0       -3.343977   -3.071137   -1.043532
    103          1           0       -2.800873   -1.684319    0.138642
    104          1           0       -4.043688   -4.315358    0.455830
    105          1           0       -2.519232   -1.456767    2.546557
    106          1           0       -3.227569   -2.298960    3.947673
    107          1           0       -4.233594   -1.285124    2.878045
    108          1           0       -4.163914   -4.439930    3.903639
    109          1           0       -4.655500   -5.124972    2.498705
    110          1           0       -6.270508   -2.679462    3.199575
    111          1           0       -6.284647   -3.955864    4.356205
    112          1           0       -7.106723   -5.603479    3.026557
    113          1           0       -6.634129   -4.788626    1.541093
    114          1           0       -8.872806   -3.457309    3.007720
    115          1           0       -9.778108   -5.176056    0.744538
    116          1           0      -10.404935   -5.028710    2.315555
    117          1           0       -9.026248   -6.167087    1.996427
    118          1           0       -8.681296   -3.504856    0.044262
    119          1           0       -7.238237   -2.786567    0.815155
    120          1           0       -9.933359   -1.718682    1.759607
    121          1           0       -9.892349   -1.678283    0.052280
    122          1           0       -7.615566   -0.613582    1.969601
    123          1           0       -9.093303    0.184605    1.778063
    124          1           0       -8.314509   -0.262938   -0.905241
    125          1           0       -5.873687    1.021663    0.344230
    126          1           0       -5.977825   -0.112939   -1.026446
    127          1           0       -6.035134   -0.660084    0.615494
    128          1           0       -7.499997    2.411375    0.111577
    129          1           0       -8.871173    1.900055    0.991107
    130          1           0      -10.158897    1.223090   -1.010539
    131          1           0       -9.030207    2.201029   -1.906889
    132          1           0       -9.793813    4.267404   -0.629432
    133          1           0      -10.724178    3.174803    0.420474
    134          1           0      -12.394152    2.630472   -1.222309
    135          1           0      -11.800368    2.676871   -3.335779
    136          1           0      -10.451837    3.851459   -3.086138
    137          1           0      -12.181242    4.315292   -3.377213
    138          1           0      -13.637548    4.289068   -0.636401
    139          1           0      -12.734143    5.457091   -1.558222
    140          1           0      -12.214418    5.059717    0.104257
 ---------------------------------------------------------------------

 SCF Done:  E(RwB97XD) =  -3007.86088587     A.U. after   20 cycles

 Excitation energies and oscillator strengths:

 Excited State   1:      Singlet-A      1.6139 eV  768.21 nm  f=0.3753  <S**2>=0.000
     245 -> 248        0.17840
     246 -> 247        0.68583
     245 <- 248        0.11687
 This state for optimization and/or second-order correction.
 Total Energy, E(TD-HF/TD-DFT) =  -3007.80157462
 Copying the excited state density for this state as the 1-particle RhoCI density.

 Excited State   2:      Singlet-A      2.2027 eV  562.88 nm  f=0.0855  <S**2>=0.000
     245 -> 247        0.62381
     246 -> 248       -0.31926

 Excited State   3:      Singlet-A      3.2849 eV  377.44 nm  f=0.0108  <S**2>=0.000
     244 -> 247        0.65823
     246 -> 248       -0.19734

 Excited State   4:      Singlet-A      3.4299 eV  361.48 nm  f=0.0025  <S**2>=0.000
     242 -> 247        0.53570
     242 -> 248       -0.16544
     242 -> 249        0.26963
     242 -> 250       -0.28907

 Excited State   5:      Singlet-A      3.5288 eV  351.35 nm  f=0.6733  <S**2>=0.000
     240 -> 247       -0.12593
     241 -> 247       -0.16604
     244 -> 247        0.16939
     245 -> 247        0.30598
     246 -> 248        0.57026
     245 <- 247       -0.11149

 The electronic state is 1-A.
 Alpha  occ. eigenvalues --  -46.95130 -19.29969 -19.28922 -19.24736 -19.24598
 Alpha  occ. eigenvalues --  -19.24001 -19.22595 -14.46885 -14.46638 -14.44579
 Alpha  occ. eigenvalues --  -14.44122 -10.43401 -10.42759 -10.39973 -10.38286
 Alpha  occ. eigenvalues --  -10.35605 -10.35425 -10.35319 -10.35237 -10.35231
 Alpha  occ. eigenvalues --  -10.34730 -10.34204 -10.34202 -10.34039 -10.33394
 Alpha  occ. eigenvalues --  -10.33129 -10.32932 -10.32804 -10.32763 -10.32448
 Alpha  occ. eigenvalues --  -10.32423 -10.31929 -10.31914 -10.31741 -10.31292
 Alpha  occ. eigenvalues --  -10.30965 -10.30936 -10.30838 -10.30792 -10.30777
 Alpha  occ. eigenvalues --  -10.30775 -10.30706 -10.30661 -10.30387 -10.30041
 Alpha  occ. eigenvalues --  -10.30017 -10.29739 -10.29371 -10.29367 -10.29327
 Alpha  occ. eigenvalues --  -10.29288 -10.29173 -10.28955 -10.28939 -10.28880
 Alpha  occ. eigenvalues --  -10.28770 -10.28722 -10.28713 -10.28695 -10.28685
 Alpha  occ. eigenvalues --  -10.28254 -10.28235 -10.28141 -10.27832 -10.27783
 Alpha  occ. eigenvalues --  -10.27638  -3.21088  -1.94676  -1.94176  -1.94096
 Alpha  occ. eigenvalues --   -1.18576  -1.16907  -1.12430  -1.11528  -1.09473
 Alpha  occ. eigenvalues --   -1.08169  -1.06112  -1.05118  -1.04849  -1.03799
 Alpha  occ. eigenvalues --   -0.93398  -0.92065  -0.91103  -0.91020  -0.90784
 Alpha  occ. eigenvalues --   -0.90048  -0.89846  -0.89280  -0.88917  -0.88814
 Alpha  occ. eigenvalues --   -0.87915  -0.87201  -0.86095  -0.85634  -0.85339
 Alpha  occ. eigenvalues --   -0.84315  -0.84034  -0.83170  -0.83008  -0.82601
 Alpha  occ. eigenvalues --   -0.81149  -0.80359  -0.79449  -0.79184  -0.78159
 Alpha  occ. eigenvalues --   -0.77168  -0.77165  -0.76964  -0.76266  -0.75627
 Alpha  occ. eigenvalues --   -0.75164  -0.74376  -0.73406  -0.72585  -0.70942
 Alpha  occ. eigenvalues --   -0.70690  -0.70030  -0.69440  -0.68283  -0.67946
 Alpha  occ. eigenvalues --   -0.67157  -0.66918  -0.66666  -0.66307  -0.65796
 Alpha  occ. eigenvalues --   -0.64853  -0.64693  -0.64487  -0.63888  -0.61761
 Alpha  occ. eigenvalues --   -0.61389  -0.60869  -0.60563  -0.60370  -0.59838
 Alpha  occ. eigenvalues --   -0.58971  -0.58834  -0.58110  -0.57897  -0.57565
 Alpha  occ. eigenvalues --   -0.57213  -0.56855  -0.56322  -0.56012  -0.55351
 Alpha  occ. eigenvalues --   -0.55232  -0.54955  -0.54735  -0.54633  -0.54417
 Alpha  occ. eigenvalues --   -0.54182  -0.54050  -0.53818  -0.53661  -0.53548
 Alpha  occ. eigenvalues --   -0.53121  -0.52941  -0.52659  -0.52538  -0.52440
 Alpha  occ. eigenvalues --   -0.52197  -0.52098  -0.51808  -0.51680  -0.51227
 Alpha  occ. eigenvalues --   -0.51118  -0.50932  -0.50856  -0.50558  -0.50492
 Alpha  occ. eigenvalues --   -0.50068  -0.49951  -0.49843  -0.49643  -0.49369
 Alpha  occ. eigenvalues --   -0.49265  -0.49081  -0.48776  -0.48605  -0.48470
 Alpha  occ. eigenvalues --   -0.48194  -0.48000  -0.47951  -0.47696  -0.47670
 Alpha  occ. eigenvalues --   -0.47430  -0.47315  -0.47306  -0.47026  -0.46737
 Alpha  occ. eigenvalues --   -0.46705  -0.46573  -0.46085  -0.45814  -0.45790
 Alpha  occ. eigenvalues --   -0.45642  -0.45046  -0.44728  -0.44579  -0.44494
 Alpha  occ. eigenvalues --   -0.44386  -0.44127  -0.43773  -0.43523  -0.43426
 Alpha  occ. eigenvalues --   -0.43410  -0.43212  -0.43080  -0.42917  -0.42830
 Alpha  occ. eigenvalues --   -0.42744  -0.42565  -0.42091  -0.42043  -0.41788
 Alpha  occ. eigenvalues --   -0.41539  -0.41463  -0.41099  -0.41057  -0.40654
 Alpha  occ. eigenvalues --   -0.40509  -0.40153  -0.39518  -0.39319  -0.39274
 Alpha  occ. eigenvalues --   -0.39097  -0.38866  -0.38410  -0.38348  -0.37638
 Alpha  occ. eigenvalues --   -0.37527  -0.37095  -0.36986  -0.36731  -0.36379
 Alpha  occ. eigenvalues --   -0.35440  -0.35217  -0.35207  -0.33716  -0.32816
 Alpha  occ. eigenvalues --   -0.32516  -0.31923  -0.31553  -0.31468  -0.26320
 Alpha  occ. eigenvalues --   -0.22763
 Alpha virt. eigenvalues --   -0.07060   0.00098   0.02550   0.04517   0.05427
 Alpha virt. eigenvalues --    0.06562   0.06993   0.07411   0.07761   0.09660
 Alpha virt. eigenvalues --    0.10994   0.11370   0.11679   0.11795   0.12399

 Mulliken charges:
               1
     1  Mg   0.966628
     2  C   -0.005254
     3  C   -0.062149
     4  C   -0.065814
     5  C   -0.105725
     6  N   -0.423568
     7  C   -0.039731
     8  C    0.021403
     9  C   -0.118046
    10  C    0.096364
    11  C    0.013985
    12  C    0.006828
    13  C   -0.012348
    14  C    0.217420
    15  O   -0.272421
    16  O   -0.377736
    17  N   -0.427580
    18  C    0.185323
    19  C   -0.154951
    20  C   -0.065090
    21  C    0.179574
    22  C    0.077108
    23  C    0.035901
    24  O   -0.245264
    25  C    0.001508
    26  N   -0.333923
    27  C    0.017804
    28  C   -0.068826
    29  C   -0.125281
    30  C    0.060137
    31  C   -0.000478
    32  C    0.010238
    33  C   -0.051215
    34  N   -0.437817
    35  C    0.143730
    36  C   -0.185384
    37  C   -0.084169
    38  C    0.121057
    39  C    0.092980
    40  C    0.200836
    41  O   -0.191924
    42  C   -0.071470
    43  C    0.250147
    44  O   -0.285596
    45  O   -0.356145
    46  C    0.150599
    47  C    0.307128
    48  C   -0.189814
    49  C   -0.177956
    50  C    0.033630
    51  C   -0.010376
    52  C   -0.008702
    53  C   -0.012768
    54  C   -0.181037
    55  C   -0.000020
    56  C    0.051532
    57  C   -0.041048
    58  C   -0.010846
    59  C   -0.199948
    60  C   -0.000938
    61  C    0.059848
    62  C   -0.047155
    63  C   -0.020696
    64  C   -0.212667
    65  C    0.018937
    66  C    0.005796
    67  H   -0.000276
    68  H   -0.018316
    69  H   -0.011465
    70  H    0.050615
    71  H    0.032036
    72  H    0.030615
    73  H    0.032693
    74  H    0.048908
    75  H    0.047662
    76  H    0.034957
    77  H    0.067912
    78  H    0.061157
    79  H    0.015069
    80  H    0.052903
    81  H    0.062991
    82  H    0.058354
    83  H    0.048723
    84  H    0.057115
    85  H    0.040071
    86  H    0.032698
    87  H    0.038664
    88  H    0.045698
    89  H    0.044683
    90  H    0.043095
    91  H    0.024120
    92  H    0.040726
    93  H    0.042650
    94  H    0.021511
    95  H    0.069909
    96  H    0.047641
    97  H    0.042945
    98  H    0.055081
    99  H    0.052279
   100  H    0.040539
   101  H    0.068139
   102  H    0.041330
   103  H    0.057427
   104  H    0.008796
   105  H    0.055731
   106  H    0.030240
   107  H    0.051540
   108  H    0.020443
   109  H    0.011310
   110  H    0.012105
   111  H    0.021114
   112  H    0.032188
   113  H    0.018239
   114  H    0.025395
   115  H    0.015604
   116  H    0.027827
   117  H    0.036006
   118  H    0.017241
   119  H    0.026868
   120  H    0.016849
   121  H    0.025014
   122  H    0.014357
   123  H    0.002461
   124  H    0.022585
   125  H    0.024169
   126  H    0.028404
   127  H    0.014284
   128  H    0.017159
   129  H   -0.007478
   130  H    0.014163
   131  H    0.021987
   132  H    0.033195
   133  H    0.015720
   134  H    0.020073
   135  H    0.022804
   136  H    0.041889
   137  H    0.018643
   138  H    0.026562
   139  H    0.021385
   140  H    0.029704
 Sum of Mulliken charges =  -0.00000

 Dipole moment (field-independent basis, Debye):
    X=              1.0506    Y=              1.9482    Z=              1.4733  Tot=              2.6589
 Quadrupole moment (field-independent basis, Debye-Ang):
   XX=           -369.8311   YY=           -434.2229   ZZ=           -372.8157
   XY=             45.9680   XZ=              1.9744   YZ=             19.6331

 Normal termination of Gaussian 16 at Wed May  4 12:28:44 2022.
