 Gaussian 16, Revision A.03,
 Gaussian 16:  ES64L-G16RevA.03 25-Dec-2016

 --------------------
 #p ZINDO=(nstates=5)
 --------------------

 -----------------------------
 step_1701_chromophore_2 ZINDO
 -----------------------------
 Symbolic Z-matrix:
 Charge =  0 Multiplicity = 1

                         Standard orientation:
 ---------------------------------------------------------------------
 Center     Atomic      Atomic             Coordinates (Angstroms)
 Number     Number       Type             X           Y           Z
 ---------------------------------------------------------------------
      1         12           0        4.077678    1.211014   -0.431122
      2          6           0        4.417821   -2.203653   -0.975590
      3          6           0        1.446263    1.307908   -2.570305
      4          6           0        3.275285    4.378313    0.724410
      5          6           0        6.308873    0.943628    2.253373
      6          7           0        3.142714   -0.299682   -1.572240
      7          6           0        3.389486   -1.671435   -1.724338
      8          6           0        2.506423   -2.376401   -2.708865
      9          6           0        1.944701   -1.067012   -3.475473
     10          6           0        2.169141    0.093810   -2.500859
     11          6           0        2.576739   -0.711665   -4.854632
     12          6           0        1.447206   -3.315866   -2.090145
     13          6           0        0.983935   -3.110586   -0.630133
     14          6           0       -0.329282   -2.379245   -0.365633
     15          8           0       -0.500302   -1.169784   -0.187686
     16          8           0       -1.382728   -3.255727   -0.225182
     17          7           0        2.548112    2.658058   -0.938829
     18          6           0        1.656982    2.537546   -1.924696
     19          6           0        0.954649    3.746342   -2.104118
     20          6           0        1.482585    4.744975   -1.202237
     21          6           0        2.496080    3.944376   -0.377117
     22          6           0       -0.032868    3.988828   -3.165928
     23          6           0        1.142147    6.227756   -1.095276
     24          8           0        0.298164    6.742163   -1.820630
     25          6           0        1.700659    7.187699   -0.152356
     26          7           0        4.701450    2.497155    1.221735
     27          6           0        4.211024    3.722152    1.463655
     28          6           0        4.863639    4.335531    2.778471
     29          6           0        5.696698    3.111650    3.348138
     30          6           0        5.559045    2.091262    2.200364
     31          6           0        5.823614    5.599752    2.542245
     32          6           0        5.191196    2.526759    4.766821
     33          6           0        6.310860    2.556801    5.774228
     34          7           0        5.352390   -0.177329    0.363572
     35          6           0        6.238189   -0.143344    1.396060
     36          6           0        7.054797   -1.401882    1.526003
     37          6           0        6.365034   -2.245156    0.630965
     38          6           0        5.336756   -1.474036   -0.075742
     39          6           0        8.173243   -1.685362    2.451713
     40          6           0        6.211404   -3.662710    0.148275
     41          8           0        6.806881   -4.700629    0.376150
     42          6           0        4.987071   -3.660475   -0.905401
     43          6           0        5.406000   -4.179292   -2.235409
     44          8           0        4.665820   -4.839003   -2.981234
     45          8           0        6.620592   -3.715277   -2.664498
     46          6           0        7.018872   -3.943313   -4.021030
     47          6           0       -2.763778   -2.722540   -0.189450
     48          6           0       -3.501927   -3.478457    0.896881
     49          6           0       -3.782022   -3.206443    2.193853
     50          6           0       -3.397697   -1.983844    2.917570
     51          6           0       -4.668702   -4.148784    2.982537
     52          6           0       -6.190551   -3.763646    3.286775
     53          6           0       -7.129073   -4.647271    2.501608
     54          6           0       -8.476678   -3.952012    2.121050
     55          6           0       -9.464944   -5.191613    1.788684
     56          6           0       -8.295104   -3.018577    0.940473
     57          6           0       -9.240332   -1.777662    0.920789
     58          6           0       -8.415322   -0.478361    1.241302
     59          6           0       -7.936044    0.274451   -0.035452
     60          6           0       -6.377973    0.137215   -0.043782
     61          6           0       -8.387711    1.784923    0.021126
     62          6           0       -9.531896    2.112323   -0.943125
     63          6           0      -10.429099    3.381683   -0.608070
     64          6           0      -11.772293    3.505774   -1.406065
     65          6           0      -11.498493    3.622531   -2.885745
     66          6           0      -12.630126    4.661537   -0.821219
     67          1           0        0.644234    1.216409   -3.306212
     68          1           0        3.320631    5.433227    1.001602
     69          1           0        7.055292    0.966052    3.050682
     70          1           0        3.147874   -2.984514   -3.346232
     71          1           0        0.909221   -1.286500   -3.736556
     72          1           0        1.872743   -0.669731   -5.686327
     73          1           0        3.197898   -1.555273   -5.159213
     74          1           0        3.076009    0.254352   -4.922886
     75          1           0        1.756662   -4.360331   -2.052961
     76          1           0        0.544550   -3.389795   -2.697574
     77          1           0        1.681059   -2.397824   -0.188336
     78          1           0        1.125473   -4.063546   -0.120211
     79          1           0       -0.516056    3.035182   -3.381382
     80          1           0        0.449888    4.225959   -4.114015
     81          1           0       -0.868835    4.656075   -2.958797
     82          1           0        2.779220    7.345932   -0.181172
     83          1           0        1.458239    6.717185    0.800260
     84          1           0        1.230927    8.168481   -0.221003
     85          1           0        4.074848    4.534119    3.503532
     86          1           0        6.761130    3.337739    3.412778
     87          1           0        6.610420    5.503199    3.291111
     88          1           0        5.342873    6.571444    2.649308
     89          1           0        6.270521    5.578111    1.548943
     90          1           0        4.686171    1.565699    4.664452
     91          1           0        4.401373    3.187833    5.124547
     92          1           0        6.016721    2.035548    6.685039
     93          1           0        6.690857    3.570518    5.907160
     94          1           0        7.145428    1.951721    5.418362
     95          1           0        8.654850   -2.661006    2.400905
     96          1           0        7.734624   -1.524746    3.436571
     97          1           0        8.902359   -0.882455    2.346796
     98          1           0        4.205437   -4.390589   -0.695069
     99          1           0        7.954750   -3.389551   -4.096251
    100          1           0        6.336631   -3.401618   -4.675957
    101          1           0        7.080445   -5.013023   -4.223259
    102          1           0       -3.343977   -3.071137   -1.043532
    103          1           0       -2.800873   -1.684319    0.138642
    104          1           0       -4.043688   -4.315358    0.455830
    105          1           0       -2.519232   -1.456767    2.546557
    106          1           0       -3.227569   -2.298960    3.947673
    107          1           0       -4.233594   -1.285124    2.878045
    108          1           0       -4.163914   -4.439930    3.903639
    109          1           0       -4.655500   -5.124972    2.498705
    110          1           0       -6.270508   -2.679462    3.199575
    111          1           0       -6.284647   -3.955864    4.356205
    112          1           0       -7.106723   -5.603479    3.026557
    113          1           0       -6.634129   -4.788626    1.541093
    114          1           0       -8.872806   -3.457309    3.007720
    115          1           0       -9.778108   -5.176056    0.744538
    116          1           0      -10.404935   -5.028710    2.315555
    117          1           0       -9.026248   -6.167087    1.996427
    118          1           0       -8.681296   -3.504856    0.044262
    119          1           0       -7.238237   -2.786567    0.815155
    120          1           0       -9.933359   -1.718682    1.759607
    121          1           0       -9.892349   -1.678283    0.052280
    122          1           0       -7.615566   -0.613582    1.969601
    123          1           0       -9.093303    0.184605    1.778063
    124          1           0       -8.314509   -0.262938   -0.905241
    125          1           0       -5.873687    1.021663    0.344230
    126          1           0       -5.977825   -0.112939   -1.026446
    127          1           0       -6.035134   -0.660084    0.615494
    128          1           0       -7.499997    2.411375    0.111577
    129          1           0       -8.871173    1.900055    0.991107
    130          1           0      -10.158897    1.223090   -1.010539
    131          1           0       -9.030207    2.201029   -1.906889
    132          1           0       -9.793813    4.267404   -0.629432
    133          1           0      -10.724178    3.174803    0.420474
    134          1           0      -12.394152    2.630472   -1.222309
    135          1           0      -11.800368    2.676871   -3.335779
    136          1           0      -10.451837    3.851459   -3.086138
    137          1           0      -12.181242    4.315292   -3.377213
    138          1           0      -13.637548    4.289068   -0.636401
    139          1           0      -12.734143    5.457091   -1.558222
    140          1           0      -12.214418    5.059717    0.104257
 ---------------------------------------------------------------------

 SCF Done:  E(RZINDO/S) =  -474.025810169     A.U. after   19 cycles

 Excitation energies and oscillator strengths:

 Excited State   1:      Singlet-A      1.2315 eV 1006.75 nm  f=0.6371  <S**2>=0.000
     175 ->178         0.18362
     176 ->177         0.66529
 This state for optimization and/or second-order correction.
 Total Energy, E(CIS/TDA) =  -473.980552151
 Copying the excited state density for this state as the 1-particle RhoCI density.

 Excited State   2:      Singlet-A      1.9572 eV  633.49 nm  f=0.0103  <S**2>=0.000
     175 ->177         0.50400
     176 ->178        -0.47401

 Excited State   3:      Singlet-A      2.8416 eV  436.31 nm  f=0.0003  <S**2>=0.000
     169 ->180        -0.10514
     170 ->177         0.29236
     170 ->178        -0.17970
     170 ->179         0.29955
     170 ->180        -0.36630
     170 ->185         0.16670
     170 ->186        -0.15015
     170 ->187         0.16114

 Excited State   4:      Singlet-A      2.9702 eV  417.43 nm  f=0.0631  <S**2>=0.000
     175 ->177         0.11888
     176 ->178         0.10194
     176 ->179         0.63883

 Excited State   5:      Singlet-A      3.0127 eV  411.53 nm  f=1.1609  <S**2>=0.000
     173 ->177        -0.11845
     175 ->177         0.42419
     176 ->178         0.47844
     176 ->179        -0.16768

 The electronic state is 1-A.
 Alpha  occ. eigenvalues --   -1.82048  -1.79190  -1.79036  -1.72640  -1.71119
 Alpha  occ. eigenvalues --   -1.68839  -1.64476  -1.60629  -1.59713  -1.56506
 Alpha  occ. eigenvalues --   -1.54716  -1.50898  -1.48369  -1.47370  -1.45750
 Alpha  occ. eigenvalues --   -1.44062  -1.42373  -1.39254  -1.37814  -1.37606
 Alpha  occ. eigenvalues --   -1.35279  -1.34463  -1.32364  -1.31454  -1.29164
 Alpha  occ. eigenvalues --   -1.26891  -1.26292  -1.22347  -1.21911  -1.17755
 Alpha  occ. eigenvalues --   -1.16702  -1.15997  -1.14353  -1.13620  -1.12371
 Alpha  occ. eigenvalues --   -1.11705  -1.09683  -1.09154  -1.05685  -1.04407
 Alpha  occ. eigenvalues --   -1.03211  -1.02046  -1.00130  -0.97740  -0.96781
 Alpha  occ. eigenvalues --   -0.96213  -0.94473  -0.93221  -0.92410  -0.91546
 Alpha  occ. eigenvalues --   -0.90966  -0.90433  -0.89602  -0.88491  -0.86125
 Alpha  occ. eigenvalues --   -0.85258  -0.83434  -0.82818  -0.81414  -0.80607
 Alpha  occ. eigenvalues --   -0.79595  -0.78178  -0.77606  -0.77029  -0.76927
 Alpha  occ. eigenvalues --   -0.76633  -0.75452  -0.75086  -0.73545  -0.72960
 Alpha  occ. eigenvalues --   -0.72696  -0.71853  -0.71402  -0.70711  -0.70013
 Alpha  occ. eigenvalues --   -0.69804  -0.69560  -0.69407  -0.67956  -0.67569
 Alpha  occ. eigenvalues --   -0.67091  -0.66796  -0.66161  -0.66110  -0.65901
 Alpha  occ. eigenvalues --   -0.65183  -0.64531  -0.64363  -0.64201  -0.63900
 Alpha  occ. eigenvalues --   -0.63236  -0.62758  -0.62198  -0.61957  -0.61652
 Alpha  occ. eigenvalues --   -0.61390  -0.61063  -0.60550  -0.60278  -0.59822
 Alpha  occ. eigenvalues --   -0.59761  -0.59260  -0.58628  -0.58570  -0.58428
 Alpha  occ. eigenvalues --   -0.58132  -0.57524  -0.57365  -0.56815  -0.56654
 Alpha  occ. eigenvalues --   -0.56236  -0.56166  -0.55726  -0.55387  -0.55216
 Alpha  occ. eigenvalues --   -0.54219  -0.53468  -0.53038  -0.52737  -0.52343
 Alpha  occ. eigenvalues --   -0.52122  -0.51836  -0.51810  -0.51490  -0.51273
 Alpha  occ. eigenvalues --   -0.51206  -0.50758  -0.50520  -0.50077  -0.49635
 Alpha  occ. eigenvalues --   -0.49467  -0.49436  -0.49247  -0.49023  -0.48838
 Alpha  occ. eigenvalues --   -0.48698  -0.48525  -0.48369  -0.48049  -0.47765
 Alpha  occ. eigenvalues --   -0.47183  -0.46983  -0.46733  -0.46426  -0.46410
 Alpha  occ. eigenvalues --   -0.46043  -0.45969  -0.45540  -0.45478  -0.44956
 Alpha  occ. eigenvalues --   -0.44926  -0.44799  -0.44329  -0.44144  -0.43963
 Alpha  occ. eigenvalues --   -0.43759  -0.43128  -0.42894  -0.42528  -0.42476
 Alpha  occ. eigenvalues --   -0.41276  -0.41071  -0.40767  -0.39202  -0.38822
 Alpha  occ. eigenvalues --   -0.38471  -0.37455  -0.35482  -0.34621  -0.34563
 Alpha  occ. eigenvalues --   -0.33223  -0.32858  -0.32378  -0.31934  -0.27193
 Alpha  occ. eigenvalues --   -0.21484
 Alpha virt. eigenvalues --   -0.08456  -0.02176  -0.00369   0.01412   0.01808
 Alpha virt. eigenvalues --    0.01891   0.02254   0.02631   0.05003   0.05021
 Alpha virt. eigenvalues --    0.06239   0.06687   0.06926   0.07501   0.08015

 Mulliken charges:
               1
     1  Mg   0.427291
     2  C   -0.059361
     3  C   -0.075129
     4  C   -0.070137
     5  C   -0.061036
     6  N   -0.306363
     7  C    0.140571
     8  C    0.013213
     9  C    0.007261
    10  C    0.150273
    11  C   -0.051458
    12  C   -0.012592
    13  C    0.002788
    14  C    0.471278
    15  O   -0.523110
    16  O   -0.274637
    17  N   -0.320799
    18  C    0.146732
    19  C    0.051347
    20  C   -0.063144
    21  C    0.108548
    22  C   -0.036544
    23  C    0.336161
    24  O   -0.533162
    25  C   -0.017363
    26  N   -0.261140
    27  C    0.133628
    28  C   -0.008194
    29  C   -0.015368
    30  C    0.108914
    31  C   -0.052648
    32  C   -0.026643
    33  C   -0.051133
    34  N   -0.303858
    35  C    0.094675
    36  C    0.033143
    37  C   -0.065010
    38  C    0.094918
    39  C   -0.027141
    40  C    0.328400
    41  O   -0.505085
    42  C    0.046430
    43  C    0.486178
    44  O   -0.547554
    45  O   -0.267021
    46  C    0.082051
    47  C    0.097090
    48  C   -0.103894
    49  C    0.012521
    50  C   -0.037826
    51  C   -0.033796
    52  C   -0.033156
    53  C   -0.031843
    54  C   -0.008369
    55  C   -0.069926
    56  C   -0.025688
    57  C   -0.044319
    58  C   -0.041879
    59  C   -0.015750
    60  C   -0.062741
    61  C   -0.040474
    62  C   -0.036566
    63  C   -0.035124
    64  C   -0.007483
    65  C   -0.053454
    66  C   -0.060259
    67  H    0.025716
    68  H    0.025046
    69  H    0.023617
    70  H    0.047572
    71  H    0.027759
    72  H    0.015625
    73  H    0.020860
    74  H    0.029946
    75  H    0.027984
    76  H    0.022734
    77  H    0.037366
    78  H    0.045493
    79  H    0.010073
    80  H    0.036497
    81  H    0.043633
    82  H    0.033073
    83  H    0.032668
    84  H    0.040412
    85  H    0.034330
    86  H    0.032304
    87  H    0.020896
    88  H    0.022496
    89  H    0.025779
    90  H    0.030579
    91  H    0.013733
    92  H    0.018800
    93  H    0.026035
    94  H    0.011592
    95  H    0.043747
    96  H    0.030449
    97  H    0.028084
    98  H    0.057794
    99  H    0.029195
   100  H    0.036553
   101  H    0.056896
   102  H    0.052312
   103  H    0.066468
   104  H    0.013828
   105  H    0.029222
   106  H    0.020443
   107  H    0.031405
   108  H    0.015781
   109  H    0.010645
   110  H    0.025250
   111  H    0.011377
   112  H    0.029225
   113  H    0.015232
   114  H    0.026268
   115  H    0.015864
   116  H    0.015006
   117  H    0.027580
   118  H    0.015714
   119  H    0.031406
   120  H    0.012081
   121  H    0.028463
   122  H    0.025052
   123  H    0.003988
   124  H    0.027025
   125  H    0.020019
   126  H    0.013699
   127  H    0.012531
   128  H    0.031227
   129  H    0.009109
   130  H    0.019977
   131  H    0.012497
   132  H    0.029295
   133  H    0.010033
   134  H    0.020335
   135  H    0.012226
   136  H    0.027953
   137  H    0.016047
   138  H    0.015195
   139  H    0.018032
   140  H    0.021626
 Sum of Mulliken charges =  -0.00000

 Dipole moment (field-independent basis, Debye):
    X=              1.2403    Y=              2.6586    Z=              2.1996  Tot=              3.6667
 N-N= 4.470719567256D+03 E-N= 0.000000000000D+00  KE=-9.615944125780D+03
 Leave Link  601 at Wed May  4 12:41:26 2022, MaxMem=  6710886400 cpu:               0.8 elap:               0.1
 (Enter /sw/apps/gaussian-16.0/g16/l9999.exe)
 1\1\GINC-BP1-COMPUTE069\SP\RZINDO CIS\STO-3G\C55H74Mg1N4O6\OF15641\04-
 May-2022\0\\#p ZINDO=(nstates=5)\\step_1701_chromophore_2 ZINDO\\0,1\M
 g,0,3.794,-0.553,43.417\C,0,7.203,0.041,43.104\C,0,3.124,2.228,41.593\
 C,0,0.506,-1.592,43.07\C,0,4.526,-3.737,44.675\N,0,5.065,0.876,42.522\
 C,0,6.459,1.02,42.48\C,0,6.956,2.245,41.774\C,0,5.566,3.073,41.768\C,0
 ,4.472,2.019,41.968\C,0,5.394,4.202,42.828\C,0,7.61,1.993,40.397\C,0,7
 .275,0.712,39.6\C,0,6.252,0.789,38.47\O,0,5.033,0.607,38.538\O,0,6.855

 Normal termination of Gaussian 16 at Wed May  4 12:41:26 2022.
