 Gaussian 16, Revision A.03,
 Gaussian 16:  ES64L-G16RevA.03 25-Dec-2016

 ------------------------------
 #p blyp/Def2SVP td=(nstates=5)
 ------------------------------

 --------------------------------------------------
 step_1301_chromophore_8 TDDFT with blyp functional
 --------------------------------------------------
 Symbolic Z-matrix:
 Charge =  0 Multiplicity = 1

                         Standard orientation:
 ---------------------------------------------------------------------
 Center     Atomic      Atomic             Coordinates (Angstroms)
 Number     Number       Type             X           Y           Z
 ---------------------------------------------------------------------
      1         12           0        5.261616    0.862063    0.017001
      2          6           0        3.783486   -2.301133    0.355944
      3          6           0        5.029219    0.690827   -3.311792
      4          6           0        6.226290    4.104153   -0.200153
      5          6           0        4.735392    1.282921    3.550591
      6          7           0        4.508024   -0.622839   -1.277531
      7          6           0        4.008388   -1.844944   -0.945493
      8          6           0        3.737823   -2.695156   -2.210653
      9          6           0        4.599402   -1.880573   -3.261092
     10          6           0        4.599322   -0.444560   -2.607644
     11          6           0        6.068204   -2.392319   -3.410912
     12          6           0        2.270864   -2.845145   -2.586659
     13          6           0        1.639273   -4.257939   -2.553327
     14          6           0        0.399610   -4.429862   -1.530703
     15          8           0        0.366690   -5.248788   -0.600209
     16          8           0       -0.660444   -3.635733   -1.841750
     17          7           0        5.610472    2.219491   -1.557289
     18          6           0        5.378558    1.892956   -2.852110
     19          6           0        5.615824    3.028893   -3.692733
     20          6           0        5.978197    4.154927   -2.798408
     21          6           0        5.929165    3.520310   -1.410138
     22          6           0        5.462558    3.040617   -5.192840
     23          6           0        6.346067    5.634710   -3.223075
     24          8           0        6.335404    5.992762   -4.348261
     25          6           0        6.719821    6.698613   -2.233654
     26          7           0        5.192442    2.582530    1.425755
     27          6           0        5.932358    3.689449    1.099571
     28          6           0        6.246315    4.524893    2.261989
     29          6           0        5.544962    3.694904    3.411404
     30          6           0        5.138339    2.390291    2.765389
     31          6           0        7.767748    4.827399    2.406692
     32          6           0        4.355251    4.449064    4.038003
     33          6           0        4.594627    5.145952    5.484957
     34          7           0        4.445657   -0.258306    1.662640
     35          6           0        4.374844   -0.065817    3.069201
     36          6           0        4.052959   -1.335053    3.783428
     37          6           0        3.868093   -2.237226    2.696101
     38          6           0        3.979102   -1.533244    1.476106
     39          6           0        3.823536   -1.583775    5.215980
     40          6           0        3.510353   -3.600127    2.427496
     41          8           0        3.285391   -4.616225    3.073829
     42          6           0        3.623897   -3.725639    0.938545
     43          6           0        4.730097   -4.613645    0.555505
     44          8           0        5.910568   -4.327605    0.864522
     45          8           0        4.337984   -5.743853   -0.151545
     46          6           0        5.372418   -6.640538   -0.685184
     47          6           0       -1.995141   -4.019758   -1.318056
     48          6           0       -2.690928   -2.869184   -0.740294
     49          6           0       -3.563583   -2.848343    0.285890
     50          6           0       -3.979033   -4.201336    0.968707
     51          6           0       -3.928463   -1.498593    0.921549
     52          6           0       -5.115266   -0.690944    0.318835
     53          6           0       -6.283721   -0.598988    1.237160
     54          6           0       -7.493987    0.164025    0.674109
     55          6           0       -7.483393    1.585711    1.263792
     56          6           0       -8.801674   -0.520094    0.909594
     57          6           0       -9.619370   -0.770050   -0.394954
     58          6           0      -11.147917   -0.896320    0.061142
     59          6           0      -11.997016    0.353342    0.012320
     60          6           0      -12.204251    0.950797    1.407161
     61          6           0      -13.376086    0.129429   -0.674596
     62          6           0      -14.081615    1.465253   -1.240766
     63          6           0      -15.065021    2.206984   -0.242240
     64          6           0      -16.447043    2.764681   -0.887593
     65          6           0      -17.725018    2.410841   -0.070472
     66          6           0      -16.387906    4.288920   -1.218250
     67          1           0        4.915301    0.519161   -4.384562
     68          1           0        6.705614    5.083785   -0.245363
     69          1           0        4.825313    1.267199    4.638457
     70          1           0        4.124830   -3.699980   -2.046240
     71          1           0        4.079417   -1.770011   -4.212588
     72          1           0        6.804465   -1.642238   -3.118773
     73          1           0        6.135952   -2.605381   -4.478219
     74          1           0        6.242432   -3.342789   -2.906792
     75          1           0        2.084296   -2.490275   -3.599933
     76          1           0        1.720521   -2.226244   -1.878729
     77          1           0        2.427814   -4.949179   -2.252967
     78          1           0        1.284286   -4.681248   -3.493137
     79          1           0        4.702522    3.788195   -5.420602
     80          1           0        5.133318    2.070578   -5.565210
     81          1           0        6.461158    3.210189   -5.595465
     82          1           0        7.746778    6.500360   -1.923745
     83          1           0        5.937957    6.611602   -1.479156
     84          1           0        6.741260    7.684953   -2.696829
     85          1           0        5.736544    5.481333    2.154909
     86          1           0        6.283816    3.404931    4.158454
     87          1           0        8.145122    5.767046    2.003497
     88          1           0        8.316372    3.954467    2.052714
     89          1           0        7.967871    4.898180    3.476022
     90          1           0        3.488333    3.814304    4.224696
     91          1           0        3.884593    5.187170    3.388961
     92          1           0        4.605832    6.230472    5.371686
     93          1           0        5.506729    4.815344    5.980415
     94          1           0        3.804324    4.856776    6.176933
     95          1           0        2.855355   -2.078533    5.298777
     96          1           0        3.882288   -0.749441    5.914757
     97          1           0        4.599887   -2.291446    5.506370
     98          1           0        2.675739   -4.057153    0.515691
     99          1           0        6.413246   -6.342257   -0.564504
    100          1           0        5.330440   -6.767186   -1.767553
    101          1           0        5.241463   -7.590613   -0.167521
    102          1           0       -1.989702   -4.856537   -0.619588
    103          1           0       -2.590584   -4.408103   -2.144537
    104          1           0       -2.180797   -1.924112   -0.928705
    105          1           0       -3.121550   -4.793329    1.286099
    106          1           0       -4.564025   -4.884101    0.351073
    107          1           0       -4.602496   -3.925946    1.819228
    108          1           0       -3.009260   -0.912986    0.919732
    109          1           0       -4.037861   -1.673649    1.992558
    110          1           0       -5.567168   -1.131933   -0.569821
    111          1           0       -4.653212    0.274266    0.112393
    112          1           0       -6.024357   -0.130713    2.186991
    113          1           0       -6.771479   -1.529863    1.523361
    114          1           0       -7.428690    0.328865   -0.401863
    115          1           0       -6.483371    1.989811    1.426273
    116          1           0       -8.010061    1.711663    2.209434
    117          1           0       -7.994113    2.249388    0.566239
    118          1           0       -9.383308    0.025160    1.652483
    119          1           0       -8.675564   -1.546424    1.254142
    120          1           0       -9.377480   -1.712060   -0.887705
    121          1           0       -9.441122    0.058501   -1.080097
    122          1           0      -11.108314   -1.248445    1.091822
    123          1           0      -11.457980   -1.808684   -0.449686
    124          1           0      -11.439041    1.113782   -0.533318
    125          1           0      -12.796046    1.863922    1.467748
    126          1           0      -11.246335    1.251403    1.830705
    127          1           0      -12.760732    0.253085    2.032849
    128          1           0      -14.025247   -0.420043    0.007876
    129          1           0      -13.124873   -0.558130   -1.482544
    130          1           0      -14.541662    1.138415   -2.173388
    131          1           0      -13.262904    2.142403   -1.484513
    132          1           0      -14.434110    3.046493    0.049995
    133          1           0      -15.217833    1.533513    0.600856
    134          1           0      -16.582085    2.323906   -1.875486
    135          1           0      -18.561243    2.197341   -0.735015
    136          1           0      -18.050867    3.111515    0.697898
    137          1           0      -17.527162    1.530559    0.542043
    138          1           0      -16.683165    4.441431   -2.255896
    139          1           0      -15.362692    4.648750   -1.128457
    140          1           0      -17.098594    4.710109   -0.507575
 ---------------------------------------------------------------------

 SCF Done:  E(RB-LYP) =  -3007.34496886     A.U. after   21 cycles

 Excitation energies and oscillator strengths:

 Excited State   1:      Singlet-A      1.8006 eV  688.59 nm  f=0.2444  <S**2>=0.000
     243 -> 247        0.10613
     244 -> 247       -0.25828
     245 -> 248        0.18166
     246 -> 247        0.63000
     246 <- 247       -0.13434
 This state for optimization and/or second-order correction.
 Total Energy, E(TD-HF/TD-DFT) =  -3007.27879947
 Copying the excited state density for this state as the 1-particle RhoCI density.

 Excited State   2:      Singlet-A      1.8467 eV  671.37 nm  f=0.0307  <S**2>=0.000
     243 -> 247        0.29820
     244 -> 247        0.57603
     245 -> 247        0.18891
     246 -> 247        0.19763

 Excited State   3:      Singlet-A      1.8522 eV  669.39 nm  f=0.0291  <S**2>=0.000
     243 -> 247        0.62953
     244 -> 247       -0.20790
     245 -> 247       -0.13503
     246 -> 247       -0.19629

 Excited State   4:      Singlet-A      2.0126 eV  616.03 nm  f=0.0609  <S**2>=0.000
     240 -> 247        0.11287
     244 -> 247       -0.23279
     245 -> 247        0.59780
     246 -> 248       -0.26038

 Excited State   5:      Singlet-A      2.2424 eV  552.91 nm  f=0.0000  <S**2>=0.000
     242 -> 247        0.70656

 The electronic state is 1-A.
 Alpha  occ. eigenvalues --  -46.27805 -18.82674 -18.82364 -18.76450 -18.76312
 Alpha  occ. eigenvalues --  -18.75406 -18.74969 -14.03620 -14.02880 -14.01006
 Alpha  occ. eigenvalues --  -14.00664 -10.04437 -10.04092  -9.99754  -9.98613
 Alpha  occ. eigenvalues --   -9.97792  -9.97791  -9.96608  -9.96543  -9.96451
 Alpha  occ. eigenvalues --   -9.96303  -9.96201  -9.96172  -9.94862  -9.94355
 Alpha  occ. eigenvalues --   -9.94253  -9.94046  -9.93909  -9.93886  -9.93856
 Alpha  occ. eigenvalues --   -9.93771  -9.93616  -9.93407  -9.93348  -9.93120
 Alpha  occ. eigenvalues --   -9.93118  -9.92983  -9.92924  -9.92923  -9.92846
 Alpha  occ. eigenvalues --   -9.92742  -9.92569  -9.92546  -9.92367  -9.92305
 Alpha  occ. eigenvalues --   -9.92238  -9.92183  -9.92134  -9.91954  -9.91828
 Alpha  occ. eigenvalues --   -9.91666  -9.91620  -9.91568  -9.91553  -9.91425
 Alpha  occ. eigenvalues --   -9.91165  -9.91026  -9.90981  -9.90953  -9.90868
 Alpha  occ. eigenvalues --   -9.90704  -9.90673  -9.90565  -9.90516  -9.90498
 Alpha  occ. eigenvalues --   -9.90439  -2.92324  -1.72725  -1.72191  -1.72062
 Alpha  occ. eigenvalues --   -0.97386  -0.96486  -0.93721  -0.90774  -0.88732
 Alpha  occ. eigenvalues --   -0.88524  -0.86835  -0.86316  -0.85495  -0.84125
 Alpha  occ. eigenvalues --   -0.75604  -0.73754  -0.72943  -0.72757  -0.72391
 Alpha  occ. eigenvalues --   -0.71752  -0.71731  -0.71004  -0.70173  -0.70123
 Alpha  occ. eigenvalues --   -0.69120  -0.68783  -0.68192  -0.67210  -0.66865
 Alpha  occ. eigenvalues --   -0.66252  -0.65697  -0.65271  -0.65132  -0.64707
 Alpha  occ. eigenvalues --   -0.63792  -0.62418  -0.62024  -0.61290  -0.60864
 Alpha  occ. eigenvalues --   -0.60507  -0.60223  -0.59857  -0.59633  -0.58686
 Alpha  occ. eigenvalues --   -0.57930  -0.57561  -0.57320  -0.55464  -0.54718
 Alpha  occ. eigenvalues --   -0.53963  -0.53888  -0.52596  -0.52182  -0.51788
 Alpha  occ. eigenvalues --   -0.51563  -0.50932  -0.50835  -0.50414  -0.50204
 Alpha  occ. eigenvalues --   -0.49764  -0.48833  -0.48771  -0.48607  -0.46518
 Alpha  occ. eigenvalues --   -0.46238  -0.46012  -0.45560  -0.45121  -0.44631
 Alpha  occ. eigenvalues --   -0.44045  -0.42964  -0.42807  -0.42430  -0.42063
 Alpha  occ. eigenvalues --   -0.41665  -0.41572  -0.41349  -0.41067  -0.40773
 Alpha  occ. eigenvalues --   -0.40647  -0.40419  -0.40153  -0.40131  -0.39921
 Alpha  occ. eigenvalues --   -0.39766  -0.39408  -0.39237  -0.39106  -0.38995
 Alpha  occ. eigenvalues --   -0.38967  -0.38748  -0.38570  -0.38425  -0.38319
 Alpha  occ. eigenvalues --   -0.38085  -0.38004  -0.37946  -0.37132  -0.37054
 Alpha  occ. eigenvalues --   -0.37034  -0.36975  -0.36658  -0.36484  -0.36242
 Alpha  occ. eigenvalues --   -0.36006  -0.35731  -0.35586  -0.35439  -0.35305
 Alpha  occ. eigenvalues --   -0.35183  -0.35012  -0.34862  -0.34853  -0.34620
 Alpha  occ. eigenvalues --   -0.34431  -0.34058  -0.34017  -0.33873  -0.33782
 Alpha  occ. eigenvalues --   -0.33656  -0.33582  -0.33377  -0.33197  -0.33124
 Alpha  occ. eigenvalues --   -0.32946  -0.32604  -0.32471  -0.32453  -0.32143
 Alpha  occ. eigenvalues --   -0.31983  -0.31674  -0.31609  -0.31565  -0.31292
 Alpha  occ. eigenvalues --   -0.31197  -0.31109  -0.31053  -0.30960  -0.30582
 Alpha  occ. eigenvalues --   -0.30314  -0.30079  -0.29947  -0.29774  -0.29630
 Alpha  occ. eigenvalues --   -0.29501  -0.29251  -0.29152  -0.28819  -0.28721
 Alpha  occ. eigenvalues --   -0.28610  -0.28298  -0.28104  -0.28022  -0.27584
 Alpha  occ. eigenvalues --   -0.27481  -0.27366  -0.27148  -0.26951  -0.26603
 Alpha  occ. eigenvalues --   -0.26466  -0.26070  -0.25558  -0.25331  -0.25283
 Alpha  occ. eigenvalues --   -0.25154  -0.24774  -0.24736  -0.23762  -0.23257
 Alpha  occ. eigenvalues --   -0.23053  -0.22087  -0.21347  -0.21017  -0.20078
 Alpha  occ. eigenvalues --   -0.19969  -0.19810  -0.18306  -0.18252  -0.17426
 Alpha  occ. eigenvalues --   -0.15861
 Alpha virt. eigenvalues --   -0.11570  -0.07070  -0.06057  -0.04291  -0.03454
 Alpha virt. eigenvalues --   -0.03137  -0.02976  -0.02367  -0.01756   0.00483
 Alpha virt. eigenvalues --    0.01403   0.02018   0.02392   0.02846   0.02983

 Mulliken charges:
               1
     1  Mg   0.674922
     2  C   -0.029827
     3  C   -0.112074
     4  C   -0.071136
     5  C   -0.052890
     6  N   -0.217235
     7  C   -0.077906
     8  C   -0.004670
     9  C   -0.034360
    10  C   -0.022837
    11  C    0.148541
    12  C    0.156103
    13  C    0.101539
    14  C    0.082780
    15  O   -0.199531
    16  O   -0.267829
    17  N   -0.264021
    18  C    0.252520
    19  C   -0.185234
    20  C   -0.015497
    21  C    0.147255
    22  C    0.209580
    23  C   -0.103800
    24  O   -0.122185
    25  C    0.147284
    26  N   -0.204239
    27  C   -0.010116
    28  C    0.033895
    29  C    0.055318
    30  C    0.057878
    31  C    0.130246
    32  C    0.087764
    33  C    0.040797
    34  N   -0.276862
    35  C    0.047650
    36  C   -0.136844
    37  C    0.046658
    38  C    0.104406
    39  C    0.173685
    40  C   -0.052039
    41  O   -0.131309
    42  C    0.153737
    43  C    0.128632
    44  O   -0.212178
    45  O   -0.262372
    46  C    0.207460
    47  C    0.339530
    48  C   -0.094972
    49  C   -0.164893
    50  C    0.102271
    51  C    0.140095
    52  C    0.136042
    53  C    0.102414
    54  C   -0.061466
    55  C    0.090380
    56  C    0.088845
    57  C    0.032985
    58  C    0.101753
    59  C   -0.007444
    60  C    0.084035
    61  C    0.065039
    62  C    0.055468
    63  C    0.089337
    64  C   -0.078830
    65  C    0.084027
    66  C    0.104852
    67  H   -0.060685
    68  H   -0.080490
    69  H   -0.059152
    70  H   -0.029867
    71  H   -0.035542
    72  H    0.010016
    73  H   -0.010709
    74  H   -0.000602
    75  H   -0.019227
    76  H   -0.004149
    77  H   -0.012782
    78  H    0.001430
    79  H    0.021627
    80  H   -0.035423
    81  H    0.014261
    82  H    0.016103
    83  H    0.011855
    84  H   -0.011234
    85  H   -0.022116
    86  H   -0.036620
    87  H    0.002941
    88  H   -0.009167
    89  H   -0.016137
    90  H   -0.023476
    91  H   -0.026109
    92  H   -0.000419
    93  H   -0.010284
    94  H   -0.006750
    95  H    0.018460
    96  H   -0.014382
    97  H    0.011779
    98  H   -0.016242
    99  H    0.014397
   100  H    0.010169
   101  H    0.027163
   102  H   -0.003568
   103  H   -0.006250
   104  H   -0.033977
   105  H    0.025145
   106  H   -0.003959
   107  H   -0.014618
   108  H   -0.031275
   109  H   -0.038680
   110  H   -0.021687
   111  H   -0.027150
   112  H   -0.044671
   113  H   -0.052904
   114  H   -0.039775
   115  H   -0.021095
   116  H   -0.018632
   117  H   -0.027076
   118  H   -0.021572
   119  H   -0.032566
   120  H   -0.027873
   121  H   -0.022810
   122  H   -0.045543
   123  H   -0.048645
   124  H   -0.044897
   125  H   -0.027270
   126  H   -0.016127
   127  H   -0.019935
   128  H   -0.030938
   129  H   -0.038441
   130  H   -0.023967
   131  H   -0.032416
   132  H   -0.016165
   133  H   -0.020745
   134  H   -0.029770
   135  H   -0.008735
   136  H   -0.013895
   137  H   -0.025213
   138  H   -0.014702
   139  H   -0.016227
   140  H   -0.011135
 Sum of Mulliken charges =  -0.00000

 Dipole moment (field-independent basis, Debye):
    X=              0.0194    Y=              1.8654    Z=             -0.8164  Tot=              2.0364
 Quadrupole moment (field-independent basis, Debye-Ang):
   XX=           -384.0659   YY=           -419.4708   ZZ=           -400.4234
   XY=              9.8856   XZ=              6.0194   YZ=             50.6013

 Normal termination of Gaussian 16 at Wed Apr 27 23:04:31 2022.
