 Gaussian 16, Revision A.03,
 Gaussian 16:  ES64L-G16RevA.03 25-Dec-2016

 -----------------------------------
 #p cam-b3lyp/Def2SVP td=(nstates=5)
 -----------------------------------

 -------------------------------------------------------
 step_1301_chromophore_8 TDDFT with cam-b3lyp functional
 -------------------------------------------------------
 Symbolic Z-matrix:
 Charge =  0 Multiplicity = 1

                         Standard orientation:
 ---------------------------------------------------------------------
 Center     Atomic      Atomic             Coordinates (Angstroms)
 Number     Number       Type             X           Y           Z
 ---------------------------------------------------------------------
      1         12           0        5.261616    0.862063    0.017001
      2          6           0        3.783486   -2.301133    0.355944
      3          6           0        5.029219    0.690827   -3.311792
      4          6           0        6.226290    4.104153   -0.200153
      5          6           0        4.735392    1.282921    3.550591
      6          7           0        4.508024   -0.622839   -1.277531
      7          6           0        4.008388   -1.844944   -0.945493
      8          6           0        3.737823   -2.695156   -2.210653
      9          6           0        4.599402   -1.880573   -3.261092
     10          6           0        4.599322   -0.444560   -2.607644
     11          6           0        6.068204   -2.392319   -3.410912
     12          6           0        2.270864   -2.845145   -2.586659
     13          6           0        1.639273   -4.257939   -2.553327
     14          6           0        0.399610   -4.429862   -1.530703
     15          8           0        0.366690   -5.248788   -0.600209
     16          8           0       -0.660444   -3.635733   -1.841750
     17          7           0        5.610472    2.219491   -1.557289
     18          6           0        5.378558    1.892956   -2.852110
     19          6           0        5.615824    3.028893   -3.692733
     20          6           0        5.978197    4.154927   -2.798408
     21          6           0        5.929165    3.520310   -1.410138
     22          6           0        5.462558    3.040617   -5.192840
     23          6           0        6.346067    5.634710   -3.223075
     24          8           0        6.335404    5.992762   -4.348261
     25          6           0        6.719821    6.698613   -2.233654
     26          7           0        5.192442    2.582530    1.425755
     27          6           0        5.932358    3.689449    1.099571
     28          6           0        6.246315    4.524893    2.261989
     29          6           0        5.544962    3.694904    3.411404
     30          6           0        5.138339    2.390291    2.765389
     31          6           0        7.767748    4.827399    2.406692
     32          6           0        4.355251    4.449064    4.038003
     33          6           0        4.594627    5.145952    5.484957
     34          7           0        4.445657   -0.258306    1.662640
     35          6           0        4.374844   -0.065817    3.069201
     36          6           0        4.052959   -1.335053    3.783428
     37          6           0        3.868093   -2.237226    2.696101
     38          6           0        3.979102   -1.533244    1.476106
     39          6           0        3.823536   -1.583775    5.215980
     40          6           0        3.510353   -3.600127    2.427496
     41          8           0        3.285391   -4.616225    3.073829
     42          6           0        3.623897   -3.725639    0.938545
     43          6           0        4.730097   -4.613645    0.555505
     44          8           0        5.910568   -4.327605    0.864522
     45          8           0        4.337984   -5.743853   -0.151545
     46          6           0        5.372418   -6.640538   -0.685184
     47          6           0       -1.995141   -4.019758   -1.318056
     48          6           0       -2.690928   -2.869184   -0.740294
     49          6           0       -3.563583   -2.848343    0.285890
     50          6           0       -3.979033   -4.201336    0.968707
     51          6           0       -3.928463   -1.498593    0.921549
     52          6           0       -5.115266   -0.690944    0.318835
     53          6           0       -6.283721   -0.598988    1.237160
     54          6           0       -7.493987    0.164025    0.674109
     55          6           0       -7.483393    1.585711    1.263792
     56          6           0       -8.801674   -0.520094    0.909594
     57          6           0       -9.619370   -0.770050   -0.394954
     58          6           0      -11.147917   -0.896320    0.061142
     59          6           0      -11.997016    0.353342    0.012320
     60          6           0      -12.204251    0.950797    1.407161
     61          6           0      -13.376086    0.129429   -0.674596
     62          6           0      -14.081615    1.465253   -1.240766
     63          6           0      -15.065021    2.206984   -0.242240
     64          6           0      -16.447043    2.764681   -0.887593
     65          6           0      -17.725018    2.410841   -0.070472
     66          6           0      -16.387906    4.288920   -1.218250
     67          1           0        4.915301    0.519161   -4.384562
     68          1           0        6.705614    5.083785   -0.245363
     69          1           0        4.825313    1.267199    4.638457
     70          1           0        4.124830   -3.699980   -2.046240
     71          1           0        4.079417   -1.770011   -4.212588
     72          1           0        6.804465   -1.642238   -3.118773
     73          1           0        6.135952   -2.605381   -4.478219
     74          1           0        6.242432   -3.342789   -2.906792
     75          1           0        2.084296   -2.490275   -3.599933
     76          1           0        1.720521   -2.226244   -1.878729
     77          1           0        2.427814   -4.949179   -2.252967
     78          1           0        1.284286   -4.681248   -3.493137
     79          1           0        4.702522    3.788195   -5.420602
     80          1           0        5.133318    2.070578   -5.565210
     81          1           0        6.461158    3.210189   -5.595465
     82          1           0        7.746778    6.500360   -1.923745
     83          1           0        5.937957    6.611602   -1.479156
     84          1           0        6.741260    7.684953   -2.696829
     85          1           0        5.736544    5.481333    2.154909
     86          1           0        6.283816    3.404931    4.158454
     87          1           0        8.145122    5.767046    2.003497
     88          1           0        8.316372    3.954467    2.052714
     89          1           0        7.967871    4.898180    3.476022
     90          1           0        3.488333    3.814304    4.224696
     91          1           0        3.884593    5.187170    3.388961
     92          1           0        4.605832    6.230472    5.371686
     93          1           0        5.506729    4.815344    5.980415
     94          1           0        3.804324    4.856776    6.176933
     95          1           0        2.855355   -2.078533    5.298777
     96          1           0        3.882288   -0.749441    5.914757
     97          1           0        4.599887   -2.291446    5.506370
     98          1           0        2.675739   -4.057153    0.515691
     99          1           0        6.413246   -6.342257   -0.564504
    100          1           0        5.330440   -6.767186   -1.767553
    101          1           0        5.241463   -7.590613   -0.167521
    102          1           0       -1.989702   -4.856537   -0.619588
    103          1           0       -2.590584   -4.408103   -2.144537
    104          1           0       -2.180797   -1.924112   -0.928705
    105          1           0       -3.121550   -4.793329    1.286099
    106          1           0       -4.564025   -4.884101    0.351073
    107          1           0       -4.602496   -3.925946    1.819228
    108          1           0       -3.009260   -0.912986    0.919732
    109          1           0       -4.037861   -1.673649    1.992558
    110          1           0       -5.567168   -1.131933   -0.569821
    111          1           0       -4.653212    0.274266    0.112393
    112          1           0       -6.024357   -0.130713    2.186991
    113          1           0       -6.771479   -1.529863    1.523361
    114          1           0       -7.428690    0.328865   -0.401863
    115          1           0       -6.483371    1.989811    1.426273
    116          1           0       -8.010061    1.711663    2.209434
    117          1           0       -7.994113    2.249388    0.566239
    118          1           0       -9.383308    0.025160    1.652483
    119          1           0       -8.675564   -1.546424    1.254142
    120          1           0       -9.377480   -1.712060   -0.887705
    121          1           0       -9.441122    0.058501   -1.080097
    122          1           0      -11.108314   -1.248445    1.091822
    123          1           0      -11.457980   -1.808684   -0.449686
    124          1           0      -11.439041    1.113782   -0.533318
    125          1           0      -12.796046    1.863922    1.467748
    126          1           0      -11.246335    1.251403    1.830705
    127          1           0      -12.760732    0.253085    2.032849
    128          1           0      -14.025247   -0.420043    0.007876
    129          1           0      -13.124873   -0.558130   -1.482544
    130          1           0      -14.541662    1.138415   -2.173388
    131          1           0      -13.262904    2.142403   -1.484513
    132          1           0      -14.434110    3.046493    0.049995
    133          1           0      -15.217833    1.533513    0.600856
    134          1           0      -16.582085    2.323906   -1.875486
    135          1           0      -18.561243    2.197341   -0.735015
    136          1           0      -18.050867    3.111515    0.697898
    137          1           0      -17.527162    1.530559    0.542043
    138          1           0      -16.683165    4.441431   -2.255896
    139          1           0      -15.362692    4.648750   -1.128457
    140          1           0      -17.098594    4.710109   -0.507575
 ---------------------------------------------------------------------

 SCF Done:  E(RCAM-B3LYP) =  -3007.13014565     A.U. after   17 cycles

 Excitation energies and oscillator strengths:

 Excited State   1:      Singlet-A      1.7088 eV  725.55 nm  f=0.3719  <S**2>=0.000
     245 -> 248       -0.18545
     246 -> 247        0.68468
     245 <- 248       -0.10961
 This state for optimization and/or second-order correction.
 Total Energy, E(TD-HF/TD-DFT) =  -3007.06734708
 Copying the excited state density for this state as the 1-particle RhoCI density.

 Excited State   2:      Singlet-A      2.2405 eV  553.38 nm  f=0.0744  <S**2>=0.000
     245 -> 247        0.62211
     246 -> 248        0.32280

 Excited State   3:      Singlet-A      3.2926 eV  376.55 nm  f=0.0208  <S**2>=0.000
     241 -> 247        0.10940
     242 -> 247       -0.17575
     244 -> 247        0.61984
     246 -> 248       -0.20748

 Excited State   4:      Singlet-A      3.3741 eV  367.46 nm  f=0.0523  <S**2>=0.000
     242 -> 247        0.61542
     246 -> 248       -0.29043

 Excited State   5:      Singlet-A      3.4421 eV  360.20 nm  f=0.0122  <S**2>=0.000
     241 -> 247        0.56036
     241 -> 249        0.27933
     241 -> 250       -0.15297
     241 -> 251        0.17456
     244 -> 247       -0.11618

 The electronic state is 1-A.
 Alpha  occ. eigenvalues --  -46.89453 -19.25608 -19.25185 -19.19368 -19.19355
 Alpha  occ. eigenvalues --  -19.18729 -19.18038 -14.42677 -14.41592 -14.39587
 Alpha  occ. eigenvalues --  -14.39005 -10.39742 -10.39600 -10.34996 -10.33757
 Alpha  occ. eigenvalues --  -10.31786 -10.31768 -10.31130 -10.30987 -10.30964
 Alpha  occ. eigenvalues --  -10.30960 -10.30772 -10.30352 -10.29365 -10.28844
 Alpha  occ. eigenvalues --  -10.28529 -10.28471 -10.28161 -10.28113 -10.27984
 Alpha  occ. eigenvalues --  -10.27967 -10.27689 -10.27448 -10.27447 -10.27319
 Alpha  occ. eigenvalues --  -10.27060 -10.27008 -10.27001 -10.26860 -10.26663
 Alpha  occ. eigenvalues --  -10.26662 -10.26519 -10.26324 -10.26193 -10.26133
 Alpha  occ. eigenvalues --  -10.26050 -10.25913 -10.25867 -10.25770 -10.25626
 Alpha  occ. eigenvalues --  -10.25318 -10.25293 -10.25284 -10.25228 -10.25118
 Alpha  occ. eigenvalues --  -10.24974 -10.24874 -10.24827 -10.24577 -10.24457
 Alpha  occ. eigenvalues --  -10.24379 -10.24246 -10.24139 -10.24126 -10.24106
 Alpha  occ. eigenvalues --  -10.24014  -3.17865  -1.92745  -1.92305  -1.92180
 Alpha  occ. eigenvalues --   -1.15737  -1.14910  -1.12364  -1.09062  -1.06519
 Alpha  occ. eigenvalues --   -1.06417  -1.04696  -1.04022  -1.03217  -1.01498
 Alpha  occ. eigenvalues --   -0.92669  -0.90588  -0.89849  -0.89550  -0.89156
 Alpha  occ. eigenvalues --   -0.88417  -0.88312  -0.87570  -0.86654  -0.86595
 Alpha  occ. eigenvalues --   -0.85721  -0.85185  -0.84530  -0.83417  -0.82939
 Alpha  occ. eigenvalues --   -0.82289  -0.81894  -0.81254  -0.80903  -0.80499
 Alpha  occ. eigenvalues --   -0.79530  -0.78029  -0.77571  -0.76959  -0.76301
 Alpha  occ. eigenvalues --   -0.75849  -0.75649  -0.75185  -0.74954  -0.73889
 Alpha  occ. eigenvalues --   -0.72895  -0.72566  -0.72232  -0.70310  -0.69263
 Alpha  occ. eigenvalues --   -0.68548  -0.68441  -0.67117  -0.66490  -0.65857
 Alpha  occ. eigenvalues --   -0.65674  -0.65115  -0.65002  -0.64430  -0.63970
 Alpha  occ. eigenvalues --   -0.63743  -0.62738  -0.62688  -0.62271  -0.60125
 Alpha  occ. eigenvalues --   -0.59824  -0.59512  -0.58990  -0.58583  -0.58218
 Alpha  occ. eigenvalues --   -0.57445  -0.56301  -0.56004  -0.55646  -0.55234
 Alpha  occ. eigenvalues --   -0.54594  -0.54464  -0.54086  -0.54006  -0.53607
 Alpha  occ. eigenvalues --   -0.53577  -0.53302  -0.53115  -0.52948  -0.52771
 Alpha  occ. eigenvalues --   -0.52711  -0.52243  -0.51938  -0.51699  -0.51424
 Alpha  occ. eigenvalues --   -0.51330  -0.51114  -0.51022  -0.50885  -0.50825
 Alpha  occ. eigenvalues --   -0.50500  -0.50318  -0.50243  -0.49852  -0.49400
 Alpha  occ. eigenvalues --   -0.49245  -0.49089  -0.49005  -0.48882  -0.48578
 Alpha  occ. eigenvalues --   -0.48488  -0.48081  -0.47839  -0.47628  -0.47495
 Alpha  occ. eigenvalues --   -0.47377  -0.47293  -0.46768  -0.46703  -0.46416
 Alpha  occ. eigenvalues --   -0.46292  -0.45886  -0.45790  -0.45737  -0.45508
 Alpha  occ. eigenvalues --   -0.45452  -0.45260  -0.45233  -0.44865  -0.44759
 Alpha  occ. eigenvalues --   -0.44639  -0.44271  -0.44184  -0.44011  -0.43966
 Alpha  occ. eigenvalues --   -0.43787  -0.43223  -0.43142  -0.43048  -0.42978
 Alpha  occ. eigenvalues --   -0.42808  -0.42564  -0.42448  -0.42378  -0.42088
 Alpha  occ. eigenvalues --   -0.41778  -0.41515  -0.41451  -0.41220  -0.41084
 Alpha  occ. eigenvalues --   -0.40710  -0.40660  -0.40268  -0.40019  -0.39768
 Alpha  occ. eigenvalues --   -0.39595  -0.39493  -0.39172  -0.38999  -0.38430
 Alpha  occ. eigenvalues --   -0.38302  -0.38171  -0.37942  -0.37688  -0.37412
 Alpha  occ. eigenvalues --   -0.37258  -0.37177  -0.36337  -0.36179  -0.36109
 Alpha  occ. eigenvalues --   -0.36018  -0.35928  -0.35760  -0.34020  -0.33861
 Alpha  occ. eigenvalues --   -0.33558  -0.33195  -0.32987  -0.31138  -0.30510
 Alpha  occ. eigenvalues --   -0.30385  -0.29630  -0.29347  -0.29078  -0.24317
 Alpha  occ. eigenvalues --   -0.21116
 Alpha virt. eigenvalues --   -0.08624  -0.02104   0.00351   0.01506   0.03014
 Alpha virt. eigenvalues --    0.04536   0.04960   0.05091   0.05419   0.07287
 Alpha virt. eigenvalues --    0.08088   0.08512   0.08889   0.09180   0.09395

 Mulliken charges:
               1
     1  Mg   0.806596
     2  C   -0.045243
     3  C   -0.126318
     4  C   -0.096731
     5  C   -0.059341
     6  N   -0.286583
     7  C   -0.040573
     8  C   -0.054975
     9  C   -0.084307
    10  C   -0.001236
    11  C    0.092732
    12  C    0.100803
    13  C    0.040011
    14  C    0.159015
    15  O   -0.242163
    16  O   -0.332748
    17  N   -0.355487
    18  C    0.254023
    19  C   -0.185360
    20  C   -0.081267
    21  C    0.179521
    22  C    0.155640
    23  C   -0.022622
    24  O   -0.160683
    25  C    0.062419
    26  N   -0.273991
    27  C    0.020277
    28  C   -0.030556
    29  C   -0.003782
    30  C    0.075628
    31  C    0.072259
    32  C    0.029230
    33  C   -0.015948
    34  N   -0.357880
    35  C    0.052352
    36  C   -0.137954
    37  C   -0.026769
    38  C    0.135425
    39  C    0.119665
    40  C    0.047073
    41  O   -0.171203
    42  C    0.068610
    43  C    0.217290
    44  O   -0.249318
    45  O   -0.327819
    46  C    0.171097
    47  C    0.303884
    48  C   -0.114429
    49  C   -0.184074
    50  C    0.039923
    51  C    0.079071
    52  C    0.076565
    53  C    0.049415
    54  C   -0.123821
    55  C    0.037458
    56  C    0.038178
    57  C   -0.014181
    58  C    0.038642
    59  C   -0.063608
    60  C    0.030171
    61  C    0.012210
    62  C    0.006838
    63  C    0.033758
    64  C   -0.136787
    65  C    0.026177
    66  C    0.048177
    67  H   -0.024226
    68  H   -0.043631
    69  H   -0.025491
    70  H    0.001184
    71  H   -0.001588
    72  H    0.034486
    73  H    0.013705
    74  H    0.022810
    75  H    0.011806
    76  H    0.028428
    77  H    0.019953
    78  H    0.033339
    79  H    0.049028
    80  H   -0.007898
    81  H    0.041950
    82  H    0.042761
    83  H    0.036874
    84  H    0.025235
    85  H    0.014233
    86  H   -0.001040
    87  H    0.026460
    88  H    0.016370
    89  H    0.009268
    90  H    0.008452
    91  H    0.002567
    92  H    0.021177
    93  H    0.011299
    94  H    0.016565
    95  H    0.043000
    96  H    0.010780
    97  H    0.037311
    98  H    0.027475
    99  H    0.040856
   100  H    0.028675
   101  H    0.049386
   102  H    0.028965
   103  H    0.021202
   104  H   -0.000015
   105  H    0.048142
   106  H    0.020608
   107  H    0.010012
   108  H    0.001060
   109  H   -0.007870
   110  H    0.006537
   111  H    0.001717
   112  H   -0.015605
   113  H   -0.023656
   114  H   -0.007057
   115  H    0.003487
   116  H    0.004419
   117  H   -0.003291
   118  H    0.002172
   119  H   -0.002567
   120  H    0.001021
   121  H    0.002742
   122  H   -0.014849
   123  H   -0.016261
   124  H   -0.014104
   125  H   -0.002298
   126  H    0.006134
   127  H    0.003530
   128  H   -0.004342
   129  H   -0.007621
   130  H    0.003794
   131  H   -0.005437
   132  H    0.009028
   133  H    0.004787
   134  H    0.001561
   135  H    0.015164
   136  H    0.009068
   137  H   -0.001090
   138  H    0.008960
   139  H    0.006944
   140  H    0.011073
 Sum of Mulliken charges =  -0.00000

 Dipole moment (field-independent basis, Debye):
    X=              0.3396    Y=              2.2849    Z=             -1.4345  Tot=              2.7192
 Quadrupole moment (field-independent basis, Debye-Ang):
   XX=           -381.4232   YY=           -416.2482   ZZ=           -398.2063
   XY=             13.1488   XZ=              2.5249   YZ=             52.2991

 Normal termination of Gaussian 16 at Wed Apr 27 21:57:22 2022.
