 Gaussian 16, Revision A.03,
 Gaussian 16:  ES64L-G16RevA.03 25-Dec-2016

 ---------------------------------
 #p PBE1PBE/Def2SVP td=(nstates=5)
 ---------------------------------

 -----------------------------------------------------
 step_1301_chromophore_8 TDDFT with PBE1PBE functional
 -----------------------------------------------------
 Symbolic Z-matrix:
 Charge =  0 Multiplicity = 1

                         Standard orientation:
 ---------------------------------------------------------------------
 Center     Atomic      Atomic             Coordinates (Angstroms)
 Number     Number       Type             X           Y           Z
 ---------------------------------------------------------------------
      1         12           0        5.261616    0.862063    0.017001
      2          6           0        3.783486   -2.301133    0.355944
      3          6           0        5.029219    0.690827   -3.311792
      4          6           0        6.226290    4.104153   -0.200153
      5          6           0        4.735392    1.282921    3.550591
      6          7           0        4.508024   -0.622839   -1.277531
      7          6           0        4.008388   -1.844944   -0.945493
      8          6           0        3.737823   -2.695156   -2.210653
      9          6           0        4.599402   -1.880573   -3.261092
     10          6           0        4.599322   -0.444560   -2.607644
     11          6           0        6.068204   -2.392319   -3.410912
     12          6           0        2.270864   -2.845145   -2.586659
     13          6           0        1.639273   -4.257939   -2.553327
     14          6           0        0.399610   -4.429862   -1.530703
     15          8           0        0.366690   -5.248788   -0.600209
     16          8           0       -0.660444   -3.635733   -1.841750
     17          7           0        5.610472    2.219491   -1.557289
     18          6           0        5.378558    1.892956   -2.852110
     19          6           0        5.615824    3.028893   -3.692733
     20          6           0        5.978197    4.154927   -2.798408
     21          6           0        5.929165    3.520310   -1.410138
     22          6           0        5.462558    3.040617   -5.192840
     23          6           0        6.346067    5.634710   -3.223075
     24          8           0        6.335404    5.992762   -4.348261
     25          6           0        6.719821    6.698613   -2.233654
     26          7           0        5.192442    2.582530    1.425755
     27          6           0        5.932358    3.689449    1.099571
     28          6           0        6.246315    4.524893    2.261989
     29          6           0        5.544962    3.694904    3.411404
     30          6           0        5.138339    2.390291    2.765389
     31          6           0        7.767748    4.827399    2.406692
     32          6           0        4.355251    4.449064    4.038003
     33          6           0        4.594627    5.145952    5.484957
     34          7           0        4.445657   -0.258306    1.662640
     35          6           0        4.374844   -0.065817    3.069201
     36          6           0        4.052959   -1.335053    3.783428
     37          6           0        3.868093   -2.237226    2.696101
     38          6           0        3.979102   -1.533244    1.476106
     39          6           0        3.823536   -1.583775    5.215980
     40          6           0        3.510353   -3.600127    2.427496
     41          8           0        3.285391   -4.616225    3.073829
     42          6           0        3.623897   -3.725639    0.938545
     43          6           0        4.730097   -4.613645    0.555505
     44          8           0        5.910568   -4.327605    0.864522
     45          8           0        4.337984   -5.743853   -0.151545
     46          6           0        5.372418   -6.640538   -0.685184
     47          6           0       -1.995141   -4.019758   -1.318056
     48          6           0       -2.690928   -2.869184   -0.740294
     49          6           0       -3.563583   -2.848343    0.285890
     50          6           0       -3.979033   -4.201336    0.968707
     51          6           0       -3.928463   -1.498593    0.921549
     52          6           0       -5.115266   -0.690944    0.318835
     53          6           0       -6.283721   -0.598988    1.237160
     54          6           0       -7.493987    0.164025    0.674109
     55          6           0       -7.483393    1.585711    1.263792
     56          6           0       -8.801674   -0.520094    0.909594
     57          6           0       -9.619370   -0.770050   -0.394954
     58          6           0      -11.147917   -0.896320    0.061142
     59          6           0      -11.997016    0.353342    0.012320
     60          6           0      -12.204251    0.950797    1.407161
     61          6           0      -13.376086    0.129429   -0.674596
     62          6           0      -14.081615    1.465253   -1.240766
     63          6           0      -15.065021    2.206984   -0.242240
     64          6           0      -16.447043    2.764681   -0.887593
     65          6           0      -17.725018    2.410841   -0.070472
     66          6           0      -16.387906    4.288920   -1.218250
     67          1           0        4.915301    0.519161   -4.384562
     68          1           0        6.705614    5.083785   -0.245363
     69          1           0        4.825313    1.267199    4.638457
     70          1           0        4.124830   -3.699980   -2.046240
     71          1           0        4.079417   -1.770011   -4.212588
     72          1           0        6.804465   -1.642238   -3.118773
     73          1           0        6.135952   -2.605381   -4.478219
     74          1           0        6.242432   -3.342789   -2.906792
     75          1           0        2.084296   -2.490275   -3.599933
     76          1           0        1.720521   -2.226244   -1.878729
     77          1           0        2.427814   -4.949179   -2.252967
     78          1           0        1.284286   -4.681248   -3.493137
     79          1           0        4.702522    3.788195   -5.420602
     80          1           0        5.133318    2.070578   -5.565210
     81          1           0        6.461158    3.210189   -5.595465
     82          1           0        7.746778    6.500360   -1.923745
     83          1           0        5.937957    6.611602   -1.479156
     84          1           0        6.741260    7.684953   -2.696829
     85          1           0        5.736544    5.481333    2.154909
     86          1           0        6.283816    3.404931    4.158454
     87          1           0        8.145122    5.767046    2.003497
     88          1           0        8.316372    3.954467    2.052714
     89          1           0        7.967871    4.898180    3.476022
     90          1           0        3.488333    3.814304    4.224696
     91          1           0        3.884593    5.187170    3.388961
     92          1           0        4.605832    6.230472    5.371686
     93          1           0        5.506729    4.815344    5.980415
     94          1           0        3.804324    4.856776    6.176933
     95          1           0        2.855355   -2.078533    5.298777
     96          1           0        3.882288   -0.749441    5.914757
     97          1           0        4.599887   -2.291446    5.506370
     98          1           0        2.675739   -4.057153    0.515691
     99          1           0        6.413246   -6.342257   -0.564504
    100          1           0        5.330440   -6.767186   -1.767553
    101          1           0        5.241463   -7.590613   -0.167521
    102          1           0       -1.989702   -4.856537   -0.619588
    103          1           0       -2.590584   -4.408103   -2.144537
    104          1           0       -2.180797   -1.924112   -0.928705
    105          1           0       -3.121550   -4.793329    1.286099
    106          1           0       -4.564025   -4.884101    0.351073
    107          1           0       -4.602496   -3.925946    1.819228
    108          1           0       -3.009260   -0.912986    0.919732
    109          1           0       -4.037861   -1.673649    1.992558
    110          1           0       -5.567168   -1.131933   -0.569821
    111          1           0       -4.653212    0.274266    0.112393
    112          1           0       -6.024357   -0.130713    2.186991
    113          1           0       -6.771479   -1.529863    1.523361
    114          1           0       -7.428690    0.328865   -0.401863
    115          1           0       -6.483371    1.989811    1.426273
    116          1           0       -8.010061    1.711663    2.209434
    117          1           0       -7.994113    2.249388    0.566239
    118          1           0       -9.383308    0.025160    1.652483
    119          1           0       -8.675564   -1.546424    1.254142
    120          1           0       -9.377480   -1.712060   -0.887705
    121          1           0       -9.441122    0.058501   -1.080097
    122          1           0      -11.108314   -1.248445    1.091822
    123          1           0      -11.457980   -1.808684   -0.449686
    124          1           0      -11.439041    1.113782   -0.533318
    125          1           0      -12.796046    1.863922    1.467748
    126          1           0      -11.246335    1.251403    1.830705
    127          1           0      -12.760732    0.253085    2.032849
    128          1           0      -14.025247   -0.420043    0.007876
    129          1           0      -13.124873   -0.558130   -1.482544
    130          1           0      -14.541662    1.138415   -2.173388
    131          1           0      -13.262904    2.142403   -1.484513
    132          1           0      -14.434110    3.046493    0.049995
    133          1           0      -15.217833    1.533513    0.600856
    134          1           0      -16.582085    2.323906   -1.875486
    135          1           0      -18.561243    2.197341   -0.735015
    136          1           0      -18.050867    3.111515    0.697898
    137          1           0      -17.527162    1.530559    0.542043
    138          1           0      -16.683165    4.441431   -2.255896
    139          1           0      -15.362692    4.648750   -1.128457
    140          1           0      -17.098594    4.710109   -0.507575
 ---------------------------------------------------------------------

 SCF Done:  E(RPBE1PBE) =  -3005.31866885     A.U. after   15 cycles

 Excitation energies and oscillator strengths:

 Excited State   1:      Singlet-A      1.8576 eV  667.45 nm  f=0.3596  <S**2>=0.000
     245 -> 248        0.18102
     246 -> 247        0.69154
     246 <- 247       -0.10556
 This state for optimization and/or second-order correction.
 Total Energy, E(TD-HF/TD-DFT) =  -3005.25040363
 Copying the excited state density for this state as the 1-particle RhoCI density.

 Excited State   2:      Singlet-A      2.2357 eV  554.56 nm  f=0.0788  <S**2>=0.000
     245 -> 247        0.63835
     246 -> 248       -0.28796

 Excited State   3:      Singlet-A      2.8990 eV  427.68 nm  f=0.0002  <S**2>=0.000
     240 -> 247        0.58026
     240 -> 249       -0.15730
     243 -> 247        0.34132

 Excited State   4:      Singlet-A      2.9757 eV  416.66 nm  f=0.0008  <S**2>=0.000
     240 -> 247       -0.29697
     242 -> 247       -0.29759
     243 -> 247        0.54912

 Excited State   5:      Singlet-A      3.0160 eV  411.08 nm  f=0.0004  <S**2>=0.000
     241 -> 247        0.57461
     241 -> 249        0.12582
     242 -> 247       -0.34521
     243 -> 247       -0.11836

 The electronic state is 1-A.
 Alpha  occ. eigenvalues --  -46.92809 -19.26270 -19.25885 -19.19684 -19.19629
 Alpha  occ. eigenvalues --  -19.18800 -19.18369 -14.42084 -14.41173 -14.39121
 Alpha  occ. eigenvalues --  -14.38770 -10.36845 -10.36639 -10.32035 -10.30954
 Alpha  occ. eigenvalues --  -10.29167 -10.29030 -10.28829 -10.28748 -10.28618
 Alpha  occ. eigenvalues --  -10.28504 -10.28413 -10.28324 -10.26786 -10.26382
 Alpha  occ. eigenvalues --  -10.26306 -10.26283 -10.25809 -10.25797 -10.25756
 Alpha  occ. eigenvalues --  -10.25668 -10.25473 -10.25330 -10.25197 -10.25141
 Alpha  occ. eigenvalues --  -10.24704 -10.24700 -10.24603 -10.24372 -10.24316
 Alpha  occ. eigenvalues --  -10.24130 -10.23977 -10.23944 -10.23828 -10.23606
 Alpha  occ. eigenvalues --  -10.23469 -10.23357 -10.23192 -10.23166 -10.23160
 Alpha  occ. eigenvalues --  -10.22961 -10.22903 -10.22848 -10.22838 -10.22744
 Alpha  occ. eigenvalues --  -10.22696 -10.22453 -10.22350 -10.22268 -10.21971
 Alpha  occ. eigenvalues --  -10.21852 -10.21711 -10.21627 -10.21554 -10.21530
 Alpha  occ. eigenvalues --  -10.21491  -3.14804  -1.87623  -1.87162  -1.87041
 Alpha  occ. eigenvalues --   -1.10573  -1.09682  -1.07034  -1.03881  -1.01397
 Alpha  occ. eigenvalues --   -1.01235  -0.99230  -0.98617  -0.97779  -0.96271
 Alpha  occ. eigenvalues --   -0.87112  -0.84701  -0.84106  -0.83732  -0.83328
 Alpha  occ. eigenvalues --   -0.82620  -0.82535  -0.81906  -0.81000  -0.80733
 Alpha  occ. eigenvalues --   -0.79907  -0.79353  -0.78714  -0.77677  -0.77229
 Alpha  occ. eigenvalues --   -0.76441  -0.76006  -0.75539  -0.75273  -0.74731
 Alpha  occ. eigenvalues --   -0.73699  -0.72348  -0.71873  -0.71195  -0.70617
 Alpha  occ. eigenvalues --   -0.69997  -0.69928  -0.69273  -0.69046  -0.68062
 Alpha  occ. eigenvalues --   -0.67361  -0.66977  -0.66604  -0.64600  -0.63635
 Alpha  occ. eigenvalues --   -0.63046  -0.62707  -0.61465  -0.60738  -0.60326
 Alpha  occ. eigenvalues --   -0.60145  -0.59479  -0.59331  -0.59004  -0.58427
 Alpha  occ. eigenvalues --   -0.57915  -0.56929  -0.56893  -0.56840  -0.54563
 Alpha  occ. eigenvalues --   -0.54357  -0.54058  -0.53550  -0.53121  -0.52726
 Alpha  occ. eigenvalues --   -0.52072  -0.50726  -0.50535  -0.50179  -0.49763
 Alpha  occ. eigenvalues --   -0.49021  -0.48988  -0.48623  -0.48477  -0.48195
 Alpha  occ. eigenvalues --   -0.48040  -0.47983  -0.47642  -0.47344  -0.47256
 Alpha  occ. eigenvalues --   -0.47120  -0.46814  -0.46434  -0.46172  -0.45990
 Alpha  occ. eigenvalues --   -0.45883  -0.45655  -0.45596  -0.45363  -0.45296
 Alpha  occ. eigenvalues --   -0.45116  -0.44842  -0.44798  -0.44355  -0.44056
 Alpha  occ. eigenvalues --   -0.43830  -0.43776  -0.43638  -0.43492  -0.43185
 Alpha  occ. eigenvalues --   -0.43114  -0.42686  -0.42438  -0.42271  -0.42051
 Alpha  occ. eigenvalues --   -0.41997  -0.41886  -0.41580  -0.41332  -0.41087
 Alpha  occ. eigenvalues --   -0.40987  -0.40610  -0.40495  -0.40358  -0.40209
 Alpha  occ. eigenvalues --   -0.40103  -0.39960  -0.39794  -0.39669  -0.39489
 Alpha  occ. eigenvalues --   -0.39385  -0.39077  -0.38984  -0.38820  -0.38649
 Alpha  occ. eigenvalues --   -0.38513  -0.38052  -0.37933  -0.37822  -0.37751
 Alpha  occ. eigenvalues --   -0.37553  -0.37281  -0.37210  -0.37151  -0.36919
 Alpha  occ. eigenvalues --   -0.36648  -0.36272  -0.36207  -0.36066  -0.35999
 Alpha  occ. eigenvalues --   -0.35541  -0.35463  -0.35058  -0.34950  -0.34545
 Alpha  occ. eigenvalues --   -0.34446  -0.34405  -0.34071  -0.33816  -0.33402
 Alpha  occ. eigenvalues --   -0.33136  -0.32955  -0.32702  -0.32445  -0.32396
 Alpha  occ. eigenvalues --   -0.32313  -0.32004  -0.31335  -0.31166  -0.31039
 Alpha  occ. eigenvalues --   -0.31016  -0.30755  -0.30670  -0.29181  -0.28936
 Alpha  occ. eigenvalues --   -0.28565  -0.28508  -0.27900  -0.26779  -0.25276
 Alpha  occ. eigenvalues --   -0.25199  -0.25065  -0.24866  -0.24628  -0.21199
 Alpha  occ. eigenvalues --   -0.18775
 Alpha virt. eigenvalues --   -0.11136  -0.05532  -0.03790  -0.01773  -0.01019
 Alpha virt. eigenvalues --   -0.00143   0.00347   0.00692   0.01045   0.03532
 Alpha virt. eigenvalues --    0.04440   0.04737   0.05140   0.05769   0.05973

 Mulliken charges:
               1
     1  Mg   0.946256
     2  C   -0.053143
     3  C   -0.117522
     4  C   -0.086927
     5  C   -0.048892
     6  N   -0.393857
     7  C    0.030224
     8  C   -0.134042
     9  C   -0.164648
    10  C    0.042208
    11  C    0.039534
    12  C    0.058983
    13  C   -0.033956
    14  C    0.218685
    15  O   -0.274005
    16  O   -0.362205
    17  N   -0.473961
    18  C    0.265761
    19  C   -0.207607
    20  C   -0.120776
    21  C    0.205384
    22  C    0.094818
    23  C    0.032263
    24  O   -0.197004
    25  C   -0.019261
    26  N   -0.370490
    27  C    0.053263
    28  C   -0.108612
    29  C   -0.082497
    30  C    0.104819
    31  C    0.013095
    32  C   -0.026566
    33  C   -0.086063
    34  N   -0.467185
    35  C    0.076527
    36  C   -0.156578
    37  C   -0.069712
    38  C    0.192233
    39  C    0.066862
    40  C    0.137844
    41  O   -0.218261
    42  C   -0.055475
    43  C    0.306971
    44  O   -0.281681
    45  O   -0.361755
    46  C    0.117502
    47  C    0.263912
    48  C   -0.125711
    49  C   -0.221380
    50  C   -0.025536
    51  C    0.016591
    52  C    0.008616
    53  C   -0.007208
    54  C   -0.211503
    55  C   -0.020880
    56  C   -0.012699
    57  C   -0.077466
    58  C   -0.016157
    59  C   -0.149462
    60  C   -0.030962
    61  C   -0.043812
    62  C   -0.052821
    63  C   -0.024839
    64  C   -0.223230
    65  C   -0.035281
    66  C   -0.012773
    67  H    0.007099
    68  H   -0.007859
    69  H    0.007828
    70  H    0.044300
    71  H    0.033346
    72  H    0.062197
    73  H    0.041515
    74  H    0.049103
    75  H    0.044173
    76  H    0.061433
    77  H    0.053110
    78  H    0.064305
    79  H    0.075116
    80  H    0.019549
    81  H    0.068679
    82  H    0.069299
    83  H    0.062848
    84  H    0.053458
    85  H    0.051196
    86  H    0.035858
    87  H    0.052830
    88  H    0.044956
    89  H    0.037636
    90  H    0.041303
    91  H    0.034549
    92  H    0.048856
    93  H    0.038031
    94  H    0.043723
    95  H    0.070867
    96  H    0.037872
    97  H    0.066105
    98  H    0.073217
    99  H    0.061309
   100  H    0.049562
   101  H    0.071183
   102  H    0.054277
   103  H    0.049263
   104  H    0.030225
   105  H    0.073872
   106  H    0.048344
   107  H    0.037703
   108  H    0.032877
   109  H    0.023974
   110  H    0.039438
   111  H    0.034217
   112  H    0.017581
   113  H    0.010857
   114  H    0.030336
   115  H    0.031649
   116  H    0.031405
   117  H    0.025591
   118  H    0.035642
   119  H    0.030278
   120  H    0.033694
   121  H    0.034543
   122  H    0.018937
   123  H    0.015201
   124  H    0.024037
   125  H    0.027844
   126  H    0.035224
   127  H    0.030839
   128  H    0.027736
   129  H    0.026326
   130  H    0.035294
   131  H    0.027177
   132  H    0.040368
   133  H    0.035588
   134  H    0.039478
   135  H    0.042671
   136  H    0.035397
   137  H    0.026959
   138  H    0.036365
   139  H    0.034163
   140  H    0.038125
 Sum of Mulliken charges =  -0.00000

 Dipole moment (field-independent basis, Debye):
    X=              0.3049    Y=              2.1507    Z=             -1.0282  Tot=              2.4033
 Quadrupole moment (field-independent basis, Debye-Ang):
   XX=           -379.0825   YY=           -413.1769   ZZ=           -393.8165
   XY=             12.7734   XZ=              4.4827   YZ=             53.4896

 Normal termination of Gaussian 16 at Wed Apr 27 22:18:12 2022.
