 Gaussian 16, Revision A.03,
 Gaussian 16:  ES64L-G16RevA.03 25-Dec-2016

 --------------------------------
 #p wB97XD/Def2SVP td=(nstates=5)
 --------------------------------

 ----------------------------------------------------
 step_1301_chromophore_8 TDDFT with wB97XD functional
 ----------------------------------------------------
 Symbolic Z-matrix:
 Charge =  0 Multiplicity = 1

                         Standard orientation:
 ---------------------------------------------------------------------
 Center     Atomic      Atomic             Coordinates (Angstroms)
 Number     Number       Type             X           Y           Z
 ---------------------------------------------------------------------
      1         12           0        5.261616    0.862063    0.017001
      2          6           0        3.783486   -2.301133    0.355944
      3          6           0        5.029219    0.690827   -3.311792
      4          6           0        6.226290    4.104153   -0.200153
      5          6           0        4.735392    1.282921    3.550591
      6          7           0        4.508024   -0.622839   -1.277531
      7          6           0        4.008388   -1.844944   -0.945493
      8          6           0        3.737823   -2.695156   -2.210653
      9          6           0        4.599402   -1.880573   -3.261092
     10          6           0        4.599322   -0.444560   -2.607644
     11          6           0        6.068204   -2.392319   -3.410912
     12          6           0        2.270864   -2.845145   -2.586659
     13          6           0        1.639273   -4.257939   -2.553327
     14          6           0        0.399610   -4.429862   -1.530703
     15          8           0        0.366690   -5.248788   -0.600209
     16          8           0       -0.660444   -3.635733   -1.841750
     17          7           0        5.610472    2.219491   -1.557289
     18          6           0        5.378558    1.892956   -2.852110
     19          6           0        5.615824    3.028893   -3.692733
     20          6           0        5.978197    4.154927   -2.798408
     21          6           0        5.929165    3.520310   -1.410138
     22          6           0        5.462558    3.040617   -5.192840
     23          6           0        6.346067    5.634710   -3.223075
     24          8           0        6.335404    5.992762   -4.348261
     25          6           0        6.719821    6.698613   -2.233654
     26          7           0        5.192442    2.582530    1.425755
     27          6           0        5.932358    3.689449    1.099571
     28          6           0        6.246315    4.524893    2.261989
     29          6           0        5.544962    3.694904    3.411404
     30          6           0        5.138339    2.390291    2.765389
     31          6           0        7.767748    4.827399    2.406692
     32          6           0        4.355251    4.449064    4.038003
     33          6           0        4.594627    5.145952    5.484957
     34          7           0        4.445657   -0.258306    1.662640
     35          6           0        4.374844   -0.065817    3.069201
     36          6           0        4.052959   -1.335053    3.783428
     37          6           0        3.868093   -2.237226    2.696101
     38          6           0        3.979102   -1.533244    1.476106
     39          6           0        3.823536   -1.583775    5.215980
     40          6           0        3.510353   -3.600127    2.427496
     41          8           0        3.285391   -4.616225    3.073829
     42          6           0        3.623897   -3.725639    0.938545
     43          6           0        4.730097   -4.613645    0.555505
     44          8           0        5.910568   -4.327605    0.864522
     45          8           0        4.337984   -5.743853   -0.151545
     46          6           0        5.372418   -6.640538   -0.685184
     47          6           0       -1.995141   -4.019758   -1.318056
     48          6           0       -2.690928   -2.869184   -0.740294
     49          6           0       -3.563583   -2.848343    0.285890
     50          6           0       -3.979033   -4.201336    0.968707
     51          6           0       -3.928463   -1.498593    0.921549
     52          6           0       -5.115266   -0.690944    0.318835
     53          6           0       -6.283721   -0.598988    1.237160
     54          6           0       -7.493987    0.164025    0.674109
     55          6           0       -7.483393    1.585711    1.263792
     56          6           0       -8.801674   -0.520094    0.909594
     57          6           0       -9.619370   -0.770050   -0.394954
     58          6           0      -11.147917   -0.896320    0.061142
     59          6           0      -11.997016    0.353342    0.012320
     60          6           0      -12.204251    0.950797    1.407161
     61          6           0      -13.376086    0.129429   -0.674596
     62          6           0      -14.081615    1.465253   -1.240766
     63          6           0      -15.065021    2.206984   -0.242240
     64          6           0      -16.447043    2.764681   -0.887593
     65          6           0      -17.725018    2.410841   -0.070472
     66          6           0      -16.387906    4.288920   -1.218250
     67          1           0        4.915301    0.519161   -4.384562
     68          1           0        6.705614    5.083785   -0.245363
     69          1           0        4.825313    1.267199    4.638457
     70          1           0        4.124830   -3.699980   -2.046240
     71          1           0        4.079417   -1.770011   -4.212588
     72          1           0        6.804465   -1.642238   -3.118773
     73          1           0        6.135952   -2.605381   -4.478219
     74          1           0        6.242432   -3.342789   -2.906792
     75          1           0        2.084296   -2.490275   -3.599933
     76          1           0        1.720521   -2.226244   -1.878729
     77          1           0        2.427814   -4.949179   -2.252967
     78          1           0        1.284286   -4.681248   -3.493137
     79          1           0        4.702522    3.788195   -5.420602
     80          1           0        5.133318    2.070578   -5.565210
     81          1           0        6.461158    3.210189   -5.595465
     82          1           0        7.746778    6.500360   -1.923745
     83          1           0        5.937957    6.611602   -1.479156
     84          1           0        6.741260    7.684953   -2.696829
     85          1           0        5.736544    5.481333    2.154909
     86          1           0        6.283816    3.404931    4.158454
     87          1           0        8.145122    5.767046    2.003497
     88          1           0        8.316372    3.954467    2.052714
     89          1           0        7.967871    4.898180    3.476022
     90          1           0        3.488333    3.814304    4.224696
     91          1           0        3.884593    5.187170    3.388961
     92          1           0        4.605832    6.230472    5.371686
     93          1           0        5.506729    4.815344    5.980415
     94          1           0        3.804324    4.856776    6.176933
     95          1           0        2.855355   -2.078533    5.298777
     96          1           0        3.882288   -0.749441    5.914757
     97          1           0        4.599887   -2.291446    5.506370
     98          1           0        2.675739   -4.057153    0.515691
     99          1           0        6.413246   -6.342257   -0.564504
    100          1           0        5.330440   -6.767186   -1.767553
    101          1           0        5.241463   -7.590613   -0.167521
    102          1           0       -1.989702   -4.856537   -0.619588
    103          1           0       -2.590584   -4.408103   -2.144537
    104          1           0       -2.180797   -1.924112   -0.928705
    105          1           0       -3.121550   -4.793329    1.286099
    106          1           0       -4.564025   -4.884101    0.351073
    107          1           0       -4.602496   -3.925946    1.819228
    108          1           0       -3.009260   -0.912986    0.919732
    109          1           0       -4.037861   -1.673649    1.992558
    110          1           0       -5.567168   -1.131933   -0.569821
    111          1           0       -4.653212    0.274266    0.112393
    112          1           0       -6.024357   -0.130713    2.186991
    113          1           0       -6.771479   -1.529863    1.523361
    114          1           0       -7.428690    0.328865   -0.401863
    115          1           0       -6.483371    1.989811    1.426273
    116          1           0       -8.010061    1.711663    2.209434
    117          1           0       -7.994113    2.249388    0.566239
    118          1           0       -9.383308    0.025160    1.652483
    119          1           0       -8.675564   -1.546424    1.254142
    120          1           0       -9.377480   -1.712060   -0.887705
    121          1           0       -9.441122    0.058501   -1.080097
    122          1           0      -11.108314   -1.248445    1.091822
    123          1           0      -11.457980   -1.808684   -0.449686
    124          1           0      -11.439041    1.113782   -0.533318
    125          1           0      -12.796046    1.863922    1.467748
    126          1           0      -11.246335    1.251403    1.830705
    127          1           0      -12.760732    0.253085    2.032849
    128          1           0      -14.025247   -0.420043    0.007876
    129          1           0      -13.124873   -0.558130   -1.482544
    130          1           0      -14.541662    1.138415   -2.173388
    131          1           0      -13.262904    2.142403   -1.484513
    132          1           0      -14.434110    3.046493    0.049995
    133          1           0      -15.217833    1.533513    0.600856
    134          1           0      -16.582085    2.323906   -1.875486
    135          1           0      -18.561243    2.197341   -0.735015
    136          1           0      -18.050867    3.111515    0.697898
    137          1           0      -17.527162    1.530559    0.542043
    138          1           0      -16.683165    4.441431   -2.255896
    139          1           0      -15.362692    4.648750   -1.128457
    140          1           0      -17.098594    4.710109   -0.507575
 ---------------------------------------------------------------------

 SCF Done:  E(RwB97XD) =  -3007.82677403     A.U. after   20 cycles

 Excitation energies and oscillator strengths:

 Excited State   1:      Singlet-A      1.6558 eV  748.77 nm  f=0.3709  <S**2>=0.000
     245 -> 248        0.19056
     246 -> 247        0.68248
     245 <- 248        0.11845
 This state for optimization and/or second-order correction.
 Total Energy, E(TD-HF/TD-DFT) =  -3007.76592323
 Copying the excited state density for this state as the 1-particle RhoCI density.

 Excited State   2:      Singlet-A      2.1857 eV  567.25 nm  f=0.0711  <S**2>=0.000
     245 -> 247        0.61977
     246 -> 248       -0.32501

 Excited State   3:      Singlet-A      3.3161 eV  373.88 nm  f=0.0347  <S**2>=0.000
     242 -> 247       -0.15384
     244 -> 247        0.60529
     246 -> 248        0.24328

 Excited State   4:      Singlet-A      3.3958 eV  365.11 nm  f=0.0864  <S**2>=0.000
     242 -> 247        0.59885
     242 -> 249        0.10082
     245 -> 247        0.10262
     246 -> 248        0.32265

 Excited State   5:      Singlet-A      3.4791 eV  356.36 nm  f=0.0237  <S**2>=0.000
     241 -> 247        0.54567
     241 -> 249       -0.32295
     241 -> 250       -0.16805
     241 -> 251        0.14262
     246 -> 248       -0.11371

 The electronic state is 1-A.
 Alpha  occ. eigenvalues --  -46.95805 -19.30825 -19.30417 -19.24319 -19.24309
 Alpha  occ. eigenvalues --  -19.23742 -19.23081 -14.47285 -14.46146 -14.44183
 Alpha  occ. eigenvalues --  -14.43608 -10.43579 -10.43466 -10.38969 -10.37742
 Alpha  occ. eigenvalues --  -10.35635 -10.35525 -10.35186 -10.35065 -10.34998
 Alpha  occ. eigenvalues --  -10.34953 -10.34752 -10.34373 -10.33396 -10.33041
 Alpha  occ. eigenvalues --  -10.32606 -10.32554 -10.32304 -10.32083 -10.32051
 Alpha  occ. eigenvalues --  -10.31913 -10.31717 -10.31571 -10.31483 -10.31343
 Alpha  occ. eigenvalues --  -10.31091 -10.31004 -10.30951 -10.30912 -10.30602
 Alpha  occ. eigenvalues --  -10.30538 -10.30395 -10.30350 -10.30128 -10.30104
 Alpha  occ. eigenvalues --  -10.29871 -10.29805 -10.29686 -10.29594 -10.29550
 Alpha  occ. eigenvalues --  -10.29272 -10.29248 -10.29207 -10.29123 -10.29029
 Alpha  occ. eigenvalues --  -10.28992 -10.28802 -10.28715 -10.28534 -10.28304
 Alpha  occ. eigenvalues --  -10.28275 -10.28059 -10.28048 -10.27948 -10.27947
 Alpha  occ. eigenvalues --  -10.27915  -3.21672  -1.95237  -1.94778  -1.94654
 Alpha  occ. eigenvalues --   -1.17921  -1.17082  -1.14601  -1.11277  -1.08709
 Alpha  occ. eigenvalues --   -1.08609  -1.06702  -1.06015  -1.05263  -1.03506
 Alpha  occ. eigenvalues --   -0.94653  -0.92344  -0.91809  -0.91382  -0.90973
 Alpha  occ. eigenvalues --   -0.90196  -0.90180  -0.89480  -0.88521  -0.88412
 Alpha  occ. eigenvalues --   -0.87674  -0.87050  -0.86383  -0.85331  -0.84823
 Alpha  occ. eigenvalues --   -0.84110  -0.83801  -0.83171  -0.82851  -0.82361
 Alpha  occ. eigenvalues --   -0.81351  -0.79942  -0.79487  -0.78917  -0.78225
 Alpha  occ. eigenvalues --   -0.77666  -0.77592  -0.76973  -0.76743  -0.75719
 Alpha  occ. eigenvalues --   -0.74852  -0.74538  -0.74162  -0.72232  -0.71165
 Alpha  occ. eigenvalues --   -0.70531  -0.70323  -0.69109  -0.68353  -0.67807
 Alpha  occ. eigenvalues --   -0.67614  -0.67011  -0.66962  -0.66431  -0.65895
 Alpha  occ. eigenvalues --   -0.65565  -0.64561  -0.64503  -0.64257  -0.62033
 Alpha  occ. eigenvalues --   -0.61811  -0.61474  -0.60961  -0.60548  -0.60172
 Alpha  occ. eigenvalues --   -0.59453  -0.58240  -0.57948  -0.57615  -0.57165
 Alpha  occ. eigenvalues --   -0.56460  -0.56379  -0.55976  -0.55925  -0.55527
 Alpha  occ. eigenvalues --   -0.55463  -0.55259  -0.55080  -0.54894  -0.54701
 Alpha  occ. eigenvalues --   -0.54561  -0.54175  -0.53837  -0.53552  -0.53293
 Alpha  occ. eigenvalues --   -0.53210  -0.52996  -0.52942  -0.52826  -0.52703
 Alpha  occ. eigenvalues --   -0.52412  -0.52193  -0.52128  -0.51827  -0.51338
 Alpha  occ. eigenvalues --   -0.51133  -0.50988  -0.50906  -0.50775  -0.50483
 Alpha  occ. eigenvalues --   -0.50391  -0.49987  -0.49750  -0.49535  -0.49484
 Alpha  occ. eigenvalues --   -0.49299  -0.49163  -0.48689  -0.48577  -0.48295
 Alpha  occ. eigenvalues --   -0.48188  -0.47775  -0.47694  -0.47608  -0.47417
 Alpha  occ. eigenvalues --   -0.47309  -0.47191  -0.47061  -0.46803  -0.46637
 Alpha  occ. eigenvalues --   -0.46550  -0.46217  -0.46103  -0.45877  -0.45856
 Alpha  occ. eigenvalues --   -0.45743  -0.45182  -0.45123  -0.44962  -0.44908
 Alpha  occ. eigenvalues --   -0.44779  -0.44420  -0.44329  -0.44270  -0.43988
 Alpha  occ. eigenvalues --   -0.43697  -0.43422  -0.43344  -0.43101  -0.43028
 Alpha  occ. eigenvalues --   -0.42576  -0.42546  -0.42125  -0.41924  -0.41613
 Alpha  occ. eigenvalues --   -0.41442  -0.41397  -0.41109  -0.40840  -0.40304
 Alpha  occ. eigenvalues --   -0.40142  -0.39998  -0.39760  -0.39500  -0.39404
 Alpha  occ. eigenvalues --   -0.39336  -0.39013  -0.38333  -0.38187  -0.37966
 Alpha  occ. eigenvalues --   -0.37948  -0.37762  -0.37609  -0.36000  -0.35818
 Alpha  occ. eigenvalues --   -0.35387  -0.35358  -0.34922  -0.33362  -0.32469
 Alpha  occ. eigenvalues --   -0.32340  -0.31855  -0.31355  -0.31221  -0.26239
 Alpha  occ. eigenvalues --   -0.22916
 Alpha virt. eigenvalues --   -0.06959  -0.00204   0.02478   0.04490   0.05273
 Alpha virt. eigenvalues --    0.06666   0.07240   0.07404   0.07804   0.10079
 Alpha virt. eigenvalues --    0.11003   0.11485   0.11790   0.12527   0.12687

 Mulliken charges:
               1
     1  Mg   0.939756
     2  C   -0.052673
     3  C   -0.134335
     4  C   -0.107024
     5  C   -0.067815
     6  N   -0.358603
     7  C   -0.003860
     8  C   -0.095941
     9  C   -0.133530
    10  C    0.024692
    11  C    0.045991
    12  C    0.061414
    13  C   -0.013951
    14  C    0.208155
    15  O   -0.271389
    16  O   -0.361858
    17  N   -0.439653
    18  C    0.263344
    19  C   -0.198799
    20  C   -0.120933
    21  C    0.205962
    22  C    0.106765
    23  C    0.029564
    24  O   -0.192679
    25  C   -0.004676
    26  N   -0.341745
    27  C    0.046218
    28  C   -0.084782
    29  C   -0.054224
    30  C    0.096217
    31  C    0.023905
    32  C   -0.016589
    33  C   -0.069212
    34  N   -0.436011
    35  C    0.065487
    36  C   -0.153485
    37  C   -0.067730
    38  C    0.169589
    39  C    0.076490
    40  C    0.122285
    41  O   -0.208829
    42  C   -0.004392
    43  C    0.282153
    44  O   -0.277050
    45  O   -0.359146
    46  C    0.133337
    47  C    0.279192
    48  C   -0.135378
    49  C   -0.211005
    50  C   -0.010895
    51  C    0.034493
    52  C    0.024693
    53  C    0.011653
    54  C   -0.183844
    55  C   -0.007990
    56  C    0.007500
    57  C   -0.060706
    58  C   -0.000123
    59  C   -0.121475
    60  C   -0.014726
    61  C   -0.027857
    62  C   -0.037108
    63  C   -0.008096
    64  C   -0.197433
    65  C   -0.021823
    66  C    0.000772
    67  H    0.000442
    68  H   -0.020761
    69  H    0.001791
    70  H    0.020405
    71  H    0.023509
    72  H    0.055614
    73  H    0.036318
    74  H    0.044787
    75  H    0.037332
    76  H    0.053054
    77  H    0.044824
    78  H    0.059894
    79  H    0.072330
    80  H    0.015229
    81  H    0.065608
    82  H    0.065145
    83  H    0.056515
    84  H    0.052793
    85  H    0.041261
    86  H    0.024127
    87  H    0.048379
    88  H    0.038323
    89  H    0.031453
    90  H    0.032923
    91  H    0.026927
    92  H    0.042471
    93  H    0.031355
    94  H    0.038161
    95  H    0.065303
    96  H    0.033143
    97  H    0.060074
    98  H    0.058143
    99  H    0.057426
   100  H    0.045047
   101  H    0.067567
   102  H    0.047517
   103  H    0.044682
   104  H    0.026537
   105  H    0.068490
   106  H    0.043008
   107  H    0.031928
   108  H    0.026477
   109  H    0.015796
   110  H    0.030318
   111  H    0.027453
   112  H    0.008123
   113  H   -0.000721
   114  H    0.016758
   115  H    0.025082
   116  H    0.025038
   117  H    0.018860
   118  H    0.017840
   119  H    0.020131
   120  H    0.027262
   121  H    0.024164
   122  H    0.006965
   123  H    0.008593
   124  H    0.010127
   125  H    0.019418
   126  H    0.027569
   127  H    0.023811
   128  H    0.018225
   129  H    0.017574
   130  H    0.027829
   131  H    0.018208
   132  H    0.029888
   133  H    0.025270
   134  H    0.027954
   135  H    0.037564
   136  H    0.029094
   137  H    0.020080
   138  H    0.031272
   139  H    0.027732
   140  H    0.030918
 Sum of Mulliken charges =  -0.00000

 Dipole moment (field-independent basis, Debye):
    X=              0.4439    Y=              2.3784    Z=             -1.5133  Tot=              2.8538
 Quadrupole moment (field-independent basis, Debye-Ang):
   XX=           -376.8361   YY=           -411.9578   ZZ=           -393.7553
   XY=             13.8073   XZ=              1.9954   YZ=             52.7540

 Normal termination of Gaussian 16 at Wed Apr 27 22:50:15 2022.
