 Gaussian 16, Revision A.03,
 Gaussian 16:  ES64L-G16RevA.03 25-Dec-2016

 --------------------
 #p ZINDO=(nstates=5)
 --------------------

 -----------------------------
 step_1301_chromophore_8 ZINDO
 -----------------------------
 Symbolic Z-matrix:
 Charge =  0 Multiplicity = 1

                         Standard orientation:
 ---------------------------------------------------------------------
 Center     Atomic      Atomic             Coordinates (Angstroms)
 Number     Number       Type             X           Y           Z
 ---------------------------------------------------------------------
      1         12           0        5.261616    0.862063    0.017001
      2          6           0        3.783486   -2.301133    0.355944
      3          6           0        5.029219    0.690827   -3.311792
      4          6           0        6.226290    4.104153   -0.200153
      5          6           0        4.735392    1.282921    3.550591
      6          7           0        4.508024   -0.622839   -1.277531
      7          6           0        4.008388   -1.844944   -0.945493
      8          6           0        3.737823   -2.695156   -2.210653
      9          6           0        4.599402   -1.880573   -3.261092
     10          6           0        4.599322   -0.444560   -2.607644
     11          6           0        6.068204   -2.392319   -3.410912
     12          6           0        2.270864   -2.845145   -2.586659
     13          6           0        1.639273   -4.257939   -2.553327
     14          6           0        0.399610   -4.429862   -1.530703
     15          8           0        0.366690   -5.248788   -0.600209
     16          8           0       -0.660444   -3.635733   -1.841750
     17          7           0        5.610472    2.219491   -1.557289
     18          6           0        5.378558    1.892956   -2.852110
     19          6           0        5.615824    3.028893   -3.692733
     20          6           0        5.978197    4.154927   -2.798408
     21          6           0        5.929165    3.520310   -1.410138
     22          6           0        5.462558    3.040617   -5.192840
     23          6           0        6.346067    5.634710   -3.223075
     24          8           0        6.335404    5.992762   -4.348261
     25          6           0        6.719821    6.698613   -2.233654
     26          7           0        5.192442    2.582530    1.425755
     27          6           0        5.932358    3.689449    1.099571
     28          6           0        6.246315    4.524893    2.261989
     29          6           0        5.544962    3.694904    3.411404
     30          6           0        5.138339    2.390291    2.765389
     31          6           0        7.767748    4.827399    2.406692
     32          6           0        4.355251    4.449064    4.038003
     33          6           0        4.594627    5.145952    5.484957
     34          7           0        4.445657   -0.258306    1.662640
     35          6           0        4.374844   -0.065817    3.069201
     36          6           0        4.052959   -1.335053    3.783428
     37          6           0        3.868093   -2.237226    2.696101
     38          6           0        3.979102   -1.533244    1.476106
     39          6           0        3.823536   -1.583775    5.215980
     40          6           0        3.510353   -3.600127    2.427496
     41          8           0        3.285391   -4.616225    3.073829
     42          6           0        3.623897   -3.725639    0.938545
     43          6           0        4.730097   -4.613645    0.555505
     44          8           0        5.910568   -4.327605    0.864522
     45          8           0        4.337984   -5.743853   -0.151545
     46          6           0        5.372418   -6.640538   -0.685184
     47          6           0       -1.995141   -4.019758   -1.318056
     48          6           0       -2.690928   -2.869184   -0.740294
     49          6           0       -3.563583   -2.848343    0.285890
     50          6           0       -3.979033   -4.201336    0.968707
     51          6           0       -3.928463   -1.498593    0.921549
     52          6           0       -5.115266   -0.690944    0.318835
     53          6           0       -6.283721   -0.598988    1.237160
     54          6           0       -7.493987    0.164025    0.674109
     55          6           0       -7.483393    1.585711    1.263792
     56          6           0       -8.801674   -0.520094    0.909594
     57          6           0       -9.619370   -0.770050   -0.394954
     58          6           0      -11.147917   -0.896320    0.061142
     59          6           0      -11.997016    0.353342    0.012320
     60          6           0      -12.204251    0.950797    1.407161
     61          6           0      -13.376086    0.129429   -0.674596
     62          6           0      -14.081615    1.465253   -1.240766
     63          6           0      -15.065021    2.206984   -0.242240
     64          6           0      -16.447043    2.764681   -0.887593
     65          6           0      -17.725018    2.410841   -0.070472
     66          6           0      -16.387906    4.288920   -1.218250
     67          1           0        4.915301    0.519161   -4.384562
     68          1           0        6.705614    5.083785   -0.245363
     69          1           0        4.825313    1.267199    4.638457
     70          1           0        4.124830   -3.699980   -2.046240
     71          1           0        4.079417   -1.770011   -4.212588
     72          1           0        6.804465   -1.642238   -3.118773
     73          1           0        6.135952   -2.605381   -4.478219
     74          1           0        6.242432   -3.342789   -2.906792
     75          1           0        2.084296   -2.490275   -3.599933
     76          1           0        1.720521   -2.226244   -1.878729
     77          1           0        2.427814   -4.949179   -2.252967
     78          1           0        1.284286   -4.681248   -3.493137
     79          1           0        4.702522    3.788195   -5.420602
     80          1           0        5.133318    2.070578   -5.565210
     81          1           0        6.461158    3.210189   -5.595465
     82          1           0        7.746778    6.500360   -1.923745
     83          1           0        5.937957    6.611602   -1.479156
     84          1           0        6.741260    7.684953   -2.696829
     85          1           0        5.736544    5.481333    2.154909
     86          1           0        6.283816    3.404931    4.158454
     87          1           0        8.145122    5.767046    2.003497
     88          1           0        8.316372    3.954467    2.052714
     89          1           0        7.967871    4.898180    3.476022
     90          1           0        3.488333    3.814304    4.224696
     91          1           0        3.884593    5.187170    3.388961
     92          1           0        4.605832    6.230472    5.371686
     93          1           0        5.506729    4.815344    5.980415
     94          1           0        3.804324    4.856776    6.176933
     95          1           0        2.855355   -2.078533    5.298777
     96          1           0        3.882288   -0.749441    5.914757
     97          1           0        4.599887   -2.291446    5.506370
     98          1           0        2.675739   -4.057153    0.515691
     99          1           0        6.413246   -6.342257   -0.564504
    100          1           0        5.330440   -6.767186   -1.767553
    101          1           0        5.241463   -7.590613   -0.167521
    102          1           0       -1.989702   -4.856537   -0.619588
    103          1           0       -2.590584   -4.408103   -2.144537
    104          1           0       -2.180797   -1.924112   -0.928705
    105          1           0       -3.121550   -4.793329    1.286099
    106          1           0       -4.564025   -4.884101    0.351073
    107          1           0       -4.602496   -3.925946    1.819228
    108          1           0       -3.009260   -0.912986    0.919732
    109          1           0       -4.037861   -1.673649    1.992558
    110          1           0       -5.567168   -1.131933   -0.569821
    111          1           0       -4.653212    0.274266    0.112393
    112          1           0       -6.024357   -0.130713    2.186991
    113          1           0       -6.771479   -1.529863    1.523361
    114          1           0       -7.428690    0.328865   -0.401863
    115          1           0       -6.483371    1.989811    1.426273
    116          1           0       -8.010061    1.711663    2.209434
    117          1           0       -7.994113    2.249388    0.566239
    118          1           0       -9.383308    0.025160    1.652483
    119          1           0       -8.675564   -1.546424    1.254142
    120          1           0       -9.377480   -1.712060   -0.887705
    121          1           0       -9.441122    0.058501   -1.080097
    122          1           0      -11.108314   -1.248445    1.091822
    123          1           0      -11.457980   -1.808684   -0.449686
    124          1           0      -11.439041    1.113782   -0.533318
    125          1           0      -12.796046    1.863922    1.467748
    126          1           0      -11.246335    1.251403    1.830705
    127          1           0      -12.760732    0.253085    2.032849
    128          1           0      -14.025247   -0.420043    0.007876
    129          1           0      -13.124873   -0.558130   -1.482544
    130          1           0      -14.541662    1.138415   -2.173388
    131          1           0      -13.262904    2.142403   -1.484513
    132          1           0      -14.434110    3.046493    0.049995
    133          1           0      -15.217833    1.533513    0.600856
    134          1           0      -16.582085    2.323906   -1.875486
    135          1           0      -18.561243    2.197341   -0.735015
    136          1           0      -18.050867    3.111515    0.697898
    137          1           0      -17.527162    1.530559    0.542043
    138          1           0      -16.683165    4.441431   -2.255896
    139          1           0      -15.362692    4.648750   -1.128457
    140          1           0      -17.098594    4.710109   -0.507575
 ---------------------------------------------------------------------

 SCF Done:  E(RZINDO/S) =  -474.149810127     A.U. after   19 cycles

 Excitation energies and oscillator strengths:

 Excited State   1:      Singlet-A      1.2497 eV  992.13 nm  f=0.5705  <S**2>=0.000
     175 ->178        -0.19333
     176 ->177         0.66269
 This state for optimization and/or second-order correction.
 Total Energy, E(CIS/TDA) =  -474.103885261
 Copying the excited state density for this state as the 1-particle RhoCI density.

 Excited State   2:      Singlet-A      1.8974 eV  653.43 nm  f=0.0109  <S**2>=0.000
     175 ->177         0.51024
     176 ->178         0.46601

 Excited State   3:      Singlet-A      2.9005 eV  427.45 nm  f=0.0020  <S**2>=0.000
     170 ->177         0.33879
     170 ->178         0.15603
     170 ->179        -0.32372
     170 ->180        -0.15311
     170 ->181        -0.23966
     170 ->182         0.10264
     170 ->184        -0.12865
     170 ->186         0.17444
     170 ->187         0.14164
     170 ->201        -0.10585

 Excited State   4:      Singlet-A      2.9288 eV  423.33 nm  f=0.5713  <S**2>=0.000
     175 ->177         0.32058
     176 ->178        -0.37626
     176 ->179         0.41344
     176 ->181         0.14860

 Excited State   5:      Singlet-A      2.9616 eV  418.64 nm  f=0.2260  <S**2>=0.000
     175 ->177         0.19387
     176 ->178        -0.21439
     176 ->179        -0.18050
     176 ->180         0.58567
     176 ->181        -0.13101

 The electronic state is 1-A.
 Alpha  occ. eigenvalues --   -1.84022  -1.82176  -1.80355  -1.72161  -1.70915
 Alpha  occ. eigenvalues --   -1.68605  -1.66200  -1.62254  -1.59446  -1.58541
 Alpha  occ. eigenvalues --   -1.52915  -1.50528  -1.47637  -1.47130  -1.44777
 Alpha  occ. eigenvalues --   -1.43411  -1.42225  -1.40179  -1.39440  -1.38736
 Alpha  occ. eigenvalues --   -1.35435  -1.33184  -1.32586  -1.31561  -1.28456
 Alpha  occ. eigenvalues --   -1.26230  -1.25882  -1.22575  -1.19791  -1.18574
 Alpha  occ. eigenvalues --   -1.16386  -1.15776  -1.15407  -1.14675  -1.14507
 Alpha  occ. eigenvalues --   -1.12696  -1.10005  -1.09033  -1.06172  -1.03900
 Alpha  occ. eigenvalues --   -1.01964  -1.01446  -0.98853  -0.98208  -0.96620
 Alpha  occ. eigenvalues --   -0.95927  -0.94796  -0.94435  -0.92343  -0.91720
 Alpha  occ. eigenvalues --   -0.90938  -0.90747  -0.88381  -0.88088  -0.87331
 Alpha  occ. eigenvalues --   -0.85854  -0.85052  -0.83318  -0.82228  -0.80749
 Alpha  occ. eigenvalues --   -0.79447  -0.79186  -0.76675  -0.75995  -0.75917
 Alpha  occ. eigenvalues --   -0.75556  -0.74630  -0.74527  -0.73385  -0.72913
 Alpha  occ. eigenvalues --   -0.72320  -0.72065  -0.71636  -0.71344  -0.71166
 Alpha  occ. eigenvalues --   -0.70744  -0.69990  -0.68868  -0.68238  -0.67459
 Alpha  occ. eigenvalues --   -0.67366  -0.66557  -0.66349  -0.66056  -0.65436
 Alpha  occ. eigenvalues --   -0.65229  -0.64946  -0.64844  -0.64252  -0.63403
 Alpha  occ. eigenvalues --   -0.63324  -0.63192  -0.62677  -0.62446  -0.62354
 Alpha  occ. eigenvalues --   -0.61958  -0.61017  -0.60680  -0.60113  -0.60005
 Alpha  occ. eigenvalues --   -0.59429  -0.59149  -0.58493  -0.58379  -0.57749
 Alpha  occ. eigenvalues --   -0.57617  -0.57351  -0.56922  -0.56339  -0.56004
 Alpha  occ. eigenvalues --   -0.55866  -0.55735  -0.55488  -0.55326  -0.54812
 Alpha  occ. eigenvalues --   -0.54438  -0.54035  -0.53202  -0.53123  -0.52864
 Alpha  occ. eigenvalues --   -0.52601  -0.52485  -0.52406  -0.51661  -0.51369
 Alpha  occ. eigenvalues --   -0.51084  -0.50799  -0.50588  -0.50395  -0.49663
 Alpha  occ. eigenvalues --   -0.49608  -0.49303  -0.48962  -0.48781  -0.48684
 Alpha  occ. eigenvalues --   -0.48572  -0.48322  -0.48083  -0.47798  -0.47666
 Alpha  occ. eigenvalues --   -0.47518  -0.47239  -0.47071  -0.46728  -0.46454
 Alpha  occ. eigenvalues --   -0.46161  -0.46109  -0.46034  -0.45716  -0.45449
 Alpha  occ. eigenvalues --   -0.45016  -0.44938  -0.44718  -0.44615  -0.44064
 Alpha  occ. eigenvalues --   -0.43949  -0.43333  -0.43071  -0.41733  -0.41527
 Alpha  occ. eigenvalues --   -0.41484  -0.40943  -0.40599  -0.39162  -0.38467
 Alpha  occ. eigenvalues --   -0.37862  -0.36966  -0.35058  -0.34554  -0.33944
 Alpha  occ. eigenvalues --   -0.32863  -0.32361  -0.31854  -0.31447  -0.26720
 Alpha  occ. eigenvalues --   -0.21515
 Alpha virt. eigenvalues --   -0.08203  -0.02418  -0.00294   0.00909   0.01859
 Alpha virt. eigenvalues --    0.01898   0.02649   0.02929   0.04234   0.04961
 Alpha virt. eigenvalues --    0.06202   0.06297   0.07553   0.07977   0.08490

 Mulliken charges:
               1
     1  Mg   0.436358
     2  C   -0.030476
     3  C   -0.056342
     4  C   -0.097440
     5  C   -0.087375
     6  N   -0.251918
     7  C    0.102496
     8  C   -0.000129
     9  C   -0.001455
    10  C    0.118196
    11  C   -0.045482
    12  C   -0.016243
    13  C    0.001995
    14  C    0.455772
    15  O   -0.516163
    16  O   -0.269279
    17  N   -0.329363
    18  C    0.130362
    19  C    0.040443
    20  C   -0.093917
    21  C    0.154495
    22  C   -0.034799
    23  C    0.329889
    24  O   -0.504901
    25  C   -0.026255
    26  N   -0.288991
    27  C    0.169488
    28  C    0.004898
    29  C    0.012510
    30  C    0.128106
    31  C   -0.051390
    32  C   -0.033148
    33  C   -0.066041
    34  N   -0.341723
    35  C    0.070142
    36  C    0.026018
    37  C   -0.048559
    38  C    0.106668
    39  C   -0.029344
    40  C    0.343277
    41  O   -0.525808
    42  C    0.069436
    43  C    0.499455
    44  O   -0.540841
    45  O   -0.261756
    46  C    0.075147
    47  C    0.113317
    48  C   -0.084145
    49  C   -0.015355
    50  C   -0.046133
    51  C   -0.021222
    52  C   -0.018305
    53  C   -0.031340
    54  C   -0.013548
    55  C   -0.057874
    56  C   -0.033425
    57  C   -0.047019
    58  C   -0.040965
    59  C    0.002527
    60  C   -0.057311
    61  C   -0.041405
    62  C   -0.043919
    63  C   -0.038921
    64  C   -0.017490
    65  C   -0.056797
    66  C   -0.062824
    67  H    0.026153
    68  H    0.019343
    69  H    0.028207
    70  H    0.031255
    71  H    0.023278
    72  H    0.035194
    73  H    0.014091
    74  H    0.030043
    75  H    0.022441
    76  H    0.029827
    77  H    0.035093
    78  H    0.042761
    79  H    0.046212
    80  H    0.019145
    81  H    0.044070
    82  H    0.042244
    83  H    0.036422
    84  H    0.038927
    85  H    0.031933
    86  H    0.027013
    87  H    0.029632
    88  H    0.026411
    89  H    0.012721
    90  H    0.018528
    91  H    0.022161
    92  H    0.020863
    93  H    0.020791
    94  H    0.020518
    95  H    0.036443
    96  H    0.024406
    97  H    0.036617
    98  H    0.047501
    99  H    0.046789
   100  H    0.031127
   101  H    0.041799
   102  H    0.059993
   103  H    0.036740
   104  H    0.025741
   105  H    0.037790
   106  H    0.026457
   107  H    0.016810
   108  H    0.018838
   109  H    0.019486
   110  H    0.026630
   111  H    0.025474
   112  H    0.014181
   113  H    0.020201
   114  H    0.018518
   115  H    0.013544
   116  H    0.018146
   117  H    0.006326
   118  H    0.026214
   119  H    0.015427
   120  H    0.021398
   121  H    0.022150
   122  H    0.011132
   123  H    0.015674
   124  H    0.018433
   125  H    0.012070
   126  H    0.014792
   127  H    0.018585
   128  H    0.022526
   129  H    0.011950
   130  H    0.020395
   131  H    0.019190
   132  H    0.022014
   133  H    0.028305
   134  H    0.019136
   135  H    0.020582
   136  H    0.021562
   137  H    0.010249
   138  H    0.019330
   139  H    0.022757
   140  H    0.027437
 Sum of Mulliken charges =  -0.00000

 Dipole moment (field-independent basis, Debye):
    X=              0.6999    Y=              4.0234    Z=             -2.8895  Tot=              5.0027
 N-N= 4.283929675143D+03 E-N= 0.000000000000D+00  KE=-9.242436113629D+03
 Leave Link  601 at Wed Apr 27 23:04:38 2022, MaxMem=  6710886400 cpu:               1.0 elap:               0.1
 (Enter /sw/apps/gaussian-16.0/g16/l9999.exe)
 1\1\GINC-BP1-COMPUTE175\SP\RZINDO CIS\STO-3G\C55H74Mg1N4O6\OF15641\27-
 Apr-2022\0\\#p ZINDO=(nstates=5)\\step_1301_chromophore_8 ZINDO\\0,1\M
 g,0,44.915,1.892,47.797\C,0,42.884,4.528,46.687\C,0,42.427,-0.297,47.3
 7\C,0,47.073,-0.652,48.397\C,0,47.702,4.141,47.458\N,0,42.929,2.116,47
 .123\C,0,42.289,3.267,46.778\C,0,40.785,3.008,46.518\C,0,40.639,1.595,
 47.219\C,0,42.114,1.046,47.109\C,0,40.215,1.672,48.721\C,0,40.37,3.026
 ,45.054\C,0,39.38,4.117,44.579\C,0,39.948,5.105,43.433\O,0,40.03,6.337

 Normal termination of Gaussian 16 at Wed Apr 27 23:04:38 2022.
