 Gaussian 16, Revision A.03,
 Gaussian 16:  ES64L-G16RevA.03 25-Dec-2016

 ------------------------------
 #p blyp/Def2SVP td=(nstates=5)
 ------------------------------

 ---------------------------------------------------
 step_1851_chromophore_13 TDDFT with blyp functional
 ---------------------------------------------------
 Symbolic Z-matrix:
 Charge =  0 Multiplicity = 1

                         Standard orientation:
 ---------------------------------------------------------------------
 Center     Atomic      Atomic             Coordinates (Angstroms)
 Number     Number       Type             X           Y           Z
 ---------------------------------------------------------------------
      1         12           0       -5.870171    0.450667   -0.211522
      2          6           0       -3.608572   -2.192830   -0.135445
      3          6           0       -3.216536    2.574831    0.465321
      4          6           0       -8.071605    2.767185    0.514839
      5          6           0       -8.441636   -2.017388   -0.554668
      6          7           0       -3.737193    0.215061    0.189771
      7          6           0       -3.004562   -0.967060    0.058300
      8          6           0       -1.547181   -0.808772    0.260812
      9          6           0       -1.417062    0.710399    0.601458
     10          6           0       -2.900854    1.245258    0.413339
     11          6           0       -0.996229    1.041500    2.056844
     12          6           0       -0.765457   -1.205281   -1.011101
     13          6           0        0.472137   -2.043005   -0.870511
     14          6           0        1.746482   -1.473349   -1.614129
     15          8           0        1.860302   -1.179058   -2.785910
     16          8           0        2.758428   -1.440449   -0.667355
     17          7           0       -5.700139    2.418549    0.224524
     18          6           0       -4.527722    3.166347    0.476259
     19          6           0       -4.887207    4.524152    0.730936
     20          6           0       -6.288951    4.602520    0.636420
     21          6           0       -6.738575    3.223447    0.488470
     22          6           0       -3.812176    5.491748    1.116628
     23          6           0       -7.152533    5.832426    0.679769
     24          8           0       -8.417709    5.712140    0.691477
     25          6           0       -6.633671    7.234969    0.680558
     26          7           0       -7.981398    0.353674    0.024997
     27          6           0       -8.636948    1.503811    0.325753
     28          6           0      -10.135582    1.254458    0.622848
     29          6           0      -10.257457   -0.175782   -0.090099
     30          6           0       -8.810018   -0.673043   -0.202355
     31          6           0      -10.591560    1.068005    2.048874
     32          6           0      -10.824632   -0.068123   -1.503785
     33          6           0       -9.918907    0.296296   -2.697164
     34          7           0       -6.059184   -1.709066   -0.313294
     35          6           0       -7.127646   -2.532648   -0.569854
     36          6           0       -6.634333   -3.857010   -0.789578
     37          6           0       -5.325817   -3.809670   -0.509376
     38          6           0       -4.978230   -2.472669   -0.327852
     39          6           0       -7.480948   -5.013870   -1.261243
     40          6           0       -4.131446   -4.625076   -0.568275
     41          8           0       -4.018241   -5.821770   -0.817254
     42          6           0       -2.964607   -3.636912   -0.239350
     43          6           0       -2.417881   -4.206048    1.081798
     44          8           0       -3.055314   -4.189346    2.140590
     45          8           0       -1.126670   -4.693515    0.914643
     46          6           0       -0.487708   -4.911379    2.215423
     47          6           0        4.013374   -1.085979   -1.357946
     48          6           0        5.065991   -1.010198   -0.216940
     49          6           0        6.331938   -1.449044   -0.186149
     50          6           0        6.959060   -2.430596   -1.184724
     51          6           0        7.211967   -0.986913    1.006626
     52          6           0        8.104913    0.260912    0.814030
     53          6           0        7.840504    0.865496   -0.570959
     54          6           0        8.591163    2.361308   -0.674389
     55          6           0        7.561075    3.476599   -0.465076
     56          6           0        9.214026    2.573412   -2.040611
     57          6           0       10.663772    2.993738   -1.824981
     58          6           0       11.681755    1.920416   -2.168372
     59          6           0       13.041550    1.993538   -1.412163
     60          6           0       14.233579    2.332048   -2.364909
     61          6           0       13.472606    0.790037   -0.629682
     62          6           0       13.030310    0.754185    0.807576
     63          6           0       13.955033   -0.023889    1.826895
     64          6           0       13.426292   -1.400663    2.163103
     65          6           0       12.233532   -1.308870    3.131253
     66          6           0       14.568638   -2.261972    2.808316
     67          1           0       -2.306908    3.165285    0.587926
     68          1           0       -8.787705    3.571115    0.695441
     69          1           0       -9.282146   -2.687394   -0.749212
     70          1           0       -1.233016   -1.391752    1.126907
     71          1           0       -0.671921    1.224046   -0.007003
     72          1           0       -1.716749    1.617808    2.636707
     73          1           0       -0.064692    1.598813    1.966431
     74          1           0       -0.805279    0.103441    2.578574
     75          1           0       -0.502624   -0.241947   -1.450009
     76          1           0       -1.417739   -1.614904   -1.782288
     77          1           0        0.307284   -3.010923   -1.345757
     78          1           0        0.730429   -2.140036    0.183521
     79          1           0       -4.146671    6.081806    1.970064
     80          1           0       -3.493411    6.282173    0.436264
     81          1           0       -2.968310    4.930906    1.518338
     82          1           0       -6.085059    7.282112   -0.259455
     83          1           0       -5.908712    7.340994    1.487362
     84          1           0       -7.450222    7.955658    0.711102
     85          1           0      -10.940608    1.900869    0.274368
     86          1           0      -10.837523   -0.918253    0.458936
     87          1           0      -10.114977    0.100036    2.202425
     88          1           0      -11.680730    1.035403    2.018446
     89          1           0      -10.096952    1.642824    2.831866
     90          1           0      -11.511576    0.775311   -1.425317
     91          1           0      -11.316923   -0.972969   -1.861422
     92          1           0      -10.590981    0.741565   -3.430241
     93          1           0       -9.384423   -0.601454   -3.006229
     94          1           0       -9.188436    1.048666   -2.400838
     95          1           0       -8.487098   -4.833431   -0.881872
     96          1           0       -7.031653   -5.914565   -0.841768
     97          1           0       -7.467645   -5.076459   -2.348829
     98          1           0       -2.160394   -3.875946   -0.936189
     99          1           0       -1.007300   -5.626974    2.852518
    100          1           0       -0.323988   -4.013794    2.813425
    101          1           0        0.525098   -5.264150    2.020450
    102          1           0        3.844937   -0.067898   -1.708680
    103          1           0        4.360794   -1.610304   -2.247202
    104          1           0        4.847045   -0.351808    0.623967
    105          1           0        7.220474   -3.401529   -0.764059
    106          1           0        7.931752   -2.015655   -1.449694
    107          1           0        6.265920   -2.609490   -2.006038
    108          1           0        7.900446   -1.775427    1.311264
    109          1           0        6.508265   -0.839893    1.825458
    110          1           0        9.131171   -0.101562    0.881985
    111          1           0        8.041110    1.039281    1.573779
    112          1           0        6.779177    0.997920   -0.781856
    113          1           0        8.117636    0.190132   -1.380144
    114          1           0        9.291372    2.351602    0.160521
    115          1           0        7.899314    4.433152   -0.865294
    116          1           0        7.449319    3.663528    0.603127
    117          1           0        6.652145    3.178777   -0.987886
    118          1           0        8.656190    3.336080   -2.583201
    119          1           0        9.163806    1.637569   -2.597932
    120          1           0       10.925729    3.300961   -0.812537
    121          1           0       10.771073    3.871875   -2.462817
    122          1           0       11.937671    2.114286   -3.210040
    123          1           0       11.246951    0.937485   -1.991189
    124          1           0       12.902372    2.868050   -0.776689
    125          1           0       14.427424    3.402475   -2.427801
    126          1           0       14.070883    2.024720   -3.397758
    127          1           0       15.195600    1.910909   -2.072068
    128          1           0       14.562216    0.751639   -0.628216
    129          1           0       13.140832   -0.158642   -1.051936
    130          1           0       11.964318    0.540500    0.725876
    131          1           0       13.027732    1.779864    1.175974
    132          1           0       13.806405    0.566481    2.730721
    133          1           0       15.021648   -0.016878    1.603368
    134          1           0       12.951383   -1.893884    1.314822
    135          1           0       12.461861   -0.811324    4.073818
    136          1           0       11.778898   -2.282269    3.313218
    137          1           0       11.474999   -0.755740    2.577030
    138          1           0       14.526633   -3.258314    2.366976
    139          1           0       14.346552   -2.206865    3.873306
    140          1           0       15.485895   -1.679250    2.725349
 ---------------------------------------------------------------------

 SCF Done:  E(RB-LYP) =  -3007.36633297     A.U. after   20 cycles

 Excitation energies and oscillator strengths:

 Excited State   1:      Singlet-A      1.7625 eV  703.45 nm  f=0.0017  <S**2>=0.000
     244 -> 247        0.67921
     245 -> 247       -0.19331
 This state for optimization and/or second-order correction.
 Total Energy, E(TD-HF/TD-DFT) =  -3007.30156173
 Copying the excited state density for this state as the 1-particle RhoCI density.

 Excited State   2:      Singlet-A      1.8221 eV  680.45 nm  f=0.3033  <S**2>=0.000
     245 -> 248        0.18176
     246 -> 247        0.68842
     246 <- 247       -0.15122

 Excited State   3:      Singlet-A      1.9902 eV  622.96 nm  f=0.0357  <S**2>=0.000
     243 -> 247        0.53440
     244 -> 247       -0.13179
     245 -> 247       -0.41349
     246 -> 248        0.13025

 Excited State   4:      Singlet-A      2.0801 eV  596.06 nm  f=0.0540  <S**2>=0.000
     243 -> 247        0.45797
     244 -> 247        0.12988
     245 -> 247        0.46284
     246 -> 248       -0.20837

 Excited State   5:      Singlet-A      2.4555 eV  504.93 nm  f=0.0013  <S**2>=0.000
     241 -> 247       -0.48530
     242 -> 247        0.51340

 The electronic state is 1-A.
 Alpha  occ. eigenvalues --  -46.27226 -18.83193 -18.82956 -18.78161 -18.77214
 Alpha  occ. eigenvalues --  -18.76075 -18.74938 -14.03510 -14.03295 -14.01289
 Alpha  occ. eigenvalues --  -14.00488 -10.04583 -10.04436  -9.99802  -9.99680
 Alpha  occ. eigenvalues --   -9.98436  -9.97830  -9.96771  -9.96763  -9.96505
 Alpha  occ. eigenvalues --   -9.96404  -9.95862  -9.95623  -9.95290  -9.94555
 Alpha  occ. eigenvalues --   -9.94361  -9.94273  -9.94234  -9.94033  -9.93759
 Alpha  occ. eigenvalues --   -9.93674  -9.93590  -9.93476  -9.93465  -9.93276
 Alpha  occ. eigenvalues --   -9.93226  -9.93024  -9.92911  -9.92842  -9.92838
 Alpha  occ. eigenvalues --   -9.92715  -9.92504  -9.92382  -9.92226  -9.92201
 Alpha  occ. eigenvalues --   -9.92109  -9.92075  -9.92029  -9.91882  -9.91726
 Alpha  occ. eigenvalues --   -9.91704  -9.91676  -9.91635  -9.91432  -9.91352
 Alpha  occ. eigenvalues --   -9.91272  -9.90985  -9.90937  -9.90932  -9.90845
 Alpha  occ. eigenvalues --   -9.90796  -9.90771  -9.90660  -9.90553  -9.90338
 Alpha  occ. eigenvalues --   -9.90198  -2.91895  -1.72319  -1.71777  -1.71605
 Alpha  occ. eigenvalues --   -0.98496  -0.97608  -0.91349  -0.91036  -0.89772
 Alpha  occ. eigenvalues --   -0.89060  -0.87460  -0.86492  -0.86140  -0.85289
 Alpha  occ. eigenvalues --   -0.75320  -0.73815  -0.73574  -0.73288  -0.72427
 Alpha  occ. eigenvalues --   -0.72295  -0.71979  -0.71224  -0.71088  -0.70720
 Alpha  occ. eigenvalues --   -0.70227  -0.69420  -0.68293  -0.67760  -0.67456
 Alpha  occ. eigenvalues --   -0.66658  -0.66188  -0.65408  -0.65066  -0.64754
 Alpha  occ. eigenvalues --   -0.64243  -0.63047  -0.62656  -0.61792  -0.60900
 Alpha  occ. eigenvalues --   -0.60623  -0.60156  -0.60079  -0.59390  -0.59342
 Alpha  occ. eigenvalues --   -0.58480  -0.58028  -0.56600  -0.55625  -0.54219
 Alpha  occ. eigenvalues --   -0.53967  -0.53563  -0.52827  -0.52142  -0.51713
 Alpha  occ. eigenvalues --   -0.51355  -0.51153  -0.50684  -0.50436  -0.50215
 Alpha  occ. eigenvalues --   -0.49984  -0.49452  -0.48837  -0.48632  -0.47079
 Alpha  occ. eigenvalues --   -0.46774  -0.46302  -0.45739  -0.45338  -0.44625
 Alpha  occ. eigenvalues --   -0.43879  -0.43442  -0.43256  -0.42858  -0.42433
 Alpha  occ. eigenvalues --   -0.42165  -0.42034  -0.41690  -0.41547  -0.41448
 Alpha  occ. eigenvalues --   -0.41342  -0.41272  -0.40792  -0.40712  -0.40142
 Alpha  occ. eigenvalues --   -0.39987  -0.39863  -0.39620  -0.39575  -0.39432
 Alpha  occ. eigenvalues --   -0.39160  -0.38948  -0.38873  -0.38591  -0.38561
 Alpha  occ. eigenvalues --   -0.38276  -0.37969  -0.37780  -0.37580  -0.37458
 Alpha  occ. eigenvalues --   -0.37263  -0.37138  -0.37081  -0.36657  -0.36474
 Alpha  occ. eigenvalues --   -0.36309  -0.36210  -0.35965  -0.35905  -0.35564
 Alpha  occ. eigenvalues --   -0.35299  -0.35218  -0.35087  -0.34920  -0.34759
 Alpha  occ. eigenvalues --   -0.34585  -0.34464  -0.34187  -0.34102  -0.34036
 Alpha  occ. eigenvalues --   -0.33882  -0.33729  -0.33655  -0.33533  -0.33329
 Alpha  occ. eigenvalues --   -0.33237  -0.33049  -0.32871  -0.32588  -0.32372
 Alpha  occ. eigenvalues --   -0.32184  -0.32086  -0.31899  -0.31844  -0.31696
 Alpha  occ. eigenvalues --   -0.31515  -0.31411  -0.31202  -0.31006  -0.30797
 Alpha  occ. eigenvalues --   -0.30574  -0.30442  -0.30149  -0.30043  -0.30002
 Alpha  occ. eigenvalues --   -0.29895  -0.29804  -0.29319  -0.29167  -0.28882
 Alpha  occ. eigenvalues --   -0.28829  -0.28377  -0.28208  -0.28107  -0.28004
 Alpha  occ. eigenvalues --   -0.27812  -0.27065  -0.27050  -0.26920  -0.26816
 Alpha  occ. eigenvalues --   -0.26261  -0.26193  -0.26129  -0.25704  -0.25585
 Alpha  occ. eigenvalues --   -0.25579  -0.25270  -0.24388  -0.23996  -0.23327
 Alpha  occ. eigenvalues --   -0.23140  -0.22924  -0.22703  -0.21873  -0.21188
 Alpha  occ. eigenvalues --   -0.20782  -0.20693  -0.19054  -0.18131  -0.17561
 Alpha  occ. eigenvalues --   -0.16003
 Alpha virt. eigenvalues --   -0.11719  -0.07216  -0.06152  -0.04648  -0.03304
 Alpha virt. eigenvalues --   -0.03176  -0.02713  -0.02232  -0.01282   0.00137
 Alpha virt. eigenvalues --    0.00845   0.01231   0.01636   0.02326   0.02698

 Mulliken charges:
               1
     1  Mg   0.705686
     2  C    0.096917
     3  C   -0.060104
     4  C   -0.042912
     5  C   -0.066402
     6  N   -0.216241
     7  C   -0.107482
     8  C    0.059277
     9  C   -0.049257
    10  C    0.020612
    11  C    0.119423
    12  C    0.118485
    13  C    0.157637
    14  C    0.052280
    15  O   -0.177501
    16  O   -0.267588
    17  N   -0.312614
    18  C    0.147401
    19  C   -0.111358
    20  C    0.069093
    21  C    0.089141
    22  C    0.150509
    23  C   -0.092554
    24  O   -0.212843
    25  C    0.163235
    26  N   -0.193825
    27  C    0.066674
    28  C    0.010018
    29  C    0.013056
    30  C   -0.026169
    31  C    0.138762
    32  C    0.053206
    33  C    0.095722
    34  N   -0.205731
    35  C    0.107552
    36  C   -0.193568
    37  C    0.115150
    38  C    0.044818
    39  C    0.182267
    40  C   -0.055148
    41  O   -0.131401
    42  C    0.034894
    43  C    0.108628
    44  O   -0.192948
    45  O   -0.266715
    46  C    0.223914
    47  C    0.300232
    48  C   -0.029360
    49  C   -0.207402
    50  C    0.163937
    51  C    0.150452
    52  C    0.048416
    53  C    0.082277
    54  C   -0.084190
    55  C    0.113208
    56  C    0.148551
    57  C    0.040823
    58  C    0.138817
    59  C   -0.066365
    60  C    0.087382
    61  C    0.134446
    62  C    0.035265
    63  C    0.144341
    64  C   -0.116148
    65  C    0.077994
    66  C    0.148457
    67  H   -0.065855
    68  H   -0.043327
    69  H   -0.062744
    70  H   -0.012033
    71  H   -0.018268
    72  H    0.007817
    73  H   -0.011217
    74  H   -0.015054
    75  H   -0.027934
    76  H   -0.014793
    77  H    0.016837
    78  H   -0.011836
    79  H   -0.013907
    80  H    0.003870
    81  H   -0.010410
    82  H    0.003573
    83  H   -0.000792
    84  H    0.006446
    85  H   -0.028237
    86  H   -0.036039
    87  H   -0.020838
    88  H    0.004495
    89  H   -0.010709
    90  H   -0.031642
    91  H   -0.018248
    92  H   -0.004279
    93  H   -0.006633
    94  H   -0.008499
    95  H   -0.007518
    96  H    0.010968
    97  H    0.010056
    98  H   -0.017176
    99  H    0.022959
   100  H    0.003061
   101  H    0.005635
   102  H   -0.012613
   103  H    0.004824
   104  H   -0.043468
   105  H   -0.004266
   106  H   -0.010086
   107  H   -0.014348
   108  H   -0.043911
   109  H   -0.026493
   110  H   -0.020511
   111  H   -0.020879
   112  H   -0.040629
   113  H   -0.042107
   114  H   -0.024964
   115  H   -0.020611
   116  H   -0.023372
   117  H   -0.008166
   118  H   -0.041307
   119  H   -0.036730
   120  H   -0.026200
   121  H   -0.039172
   122  H   -0.038263
   123  H   -0.035239
   124  H   -0.040680
   125  H   -0.025824
   126  H   -0.019130
   127  H   -0.021845
   128  H   -0.051676
   129  H   -0.038455
   130  H   -0.035444
   131  H   -0.051736
   132  H   -0.043106
   133  H   -0.024080
   134  H   -0.039032
   135  H   -0.010585
   136  H   -0.019130
   137  H   -0.025992
   138  H    0.002500
   139  H   -0.029449
   140  H   -0.028684
 Sum of Mulliken charges =  -0.00000

 Dipole moment (field-independent basis, Debye):
    X=              3.4776    Y=              3.0083    Z=              0.5089  Tot=              4.6263
 Quadrupole moment (field-independent basis, Debye-Ang):
   XX=           -390.1891   YY=           -427.3535   ZZ=           -412.4735
   XY=              3.8929   XZ=             14.6540   YZ=              0.4483

 Normal termination of Gaussian 16 at Wed May  4 15:28:55 2022.
