 Gaussian 16, Revision A.03,
 Gaussian 16:  ES64L-G16RevA.03 25-Dec-2016

 -----------------------------------
 #p cam-b3lyp/Def2SVP td=(nstates=5)
 -----------------------------------

 --------------------------------------------------------
 step_1851_chromophore_13 TDDFT with cam-b3lyp functional
 --------------------------------------------------------
 Symbolic Z-matrix:
 Charge =  0 Multiplicity = 1

                         Standard orientation:
 ---------------------------------------------------------------------
 Center     Atomic      Atomic             Coordinates (Angstroms)
 Number     Number       Type             X           Y           Z
 ---------------------------------------------------------------------
      1         12           0       -5.870171    0.450667   -0.211522
      2          6           0       -3.608572   -2.192830   -0.135445
      3          6           0       -3.216536    2.574831    0.465321
      4          6           0       -8.071605    2.767185    0.514839
      5          6           0       -8.441636   -2.017388   -0.554668
      6          7           0       -3.737193    0.215061    0.189771
      7          6           0       -3.004562   -0.967060    0.058300
      8          6           0       -1.547181   -0.808772    0.260812
      9          6           0       -1.417062    0.710399    0.601458
     10          6           0       -2.900854    1.245258    0.413339
     11          6           0       -0.996229    1.041500    2.056844
     12          6           0       -0.765457   -1.205281   -1.011101
     13          6           0        0.472137   -2.043005   -0.870511
     14          6           0        1.746482   -1.473349   -1.614129
     15          8           0        1.860302   -1.179058   -2.785910
     16          8           0        2.758428   -1.440449   -0.667355
     17          7           0       -5.700139    2.418549    0.224524
     18          6           0       -4.527722    3.166347    0.476259
     19          6           0       -4.887207    4.524152    0.730936
     20          6           0       -6.288951    4.602520    0.636420
     21          6           0       -6.738575    3.223447    0.488470
     22          6           0       -3.812176    5.491748    1.116628
     23          6           0       -7.152533    5.832426    0.679769
     24          8           0       -8.417709    5.712140    0.691477
     25          6           0       -6.633671    7.234969    0.680558
     26          7           0       -7.981398    0.353674    0.024997
     27          6           0       -8.636948    1.503811    0.325753
     28          6           0      -10.135582    1.254458    0.622848
     29          6           0      -10.257457   -0.175782   -0.090099
     30          6           0       -8.810018   -0.673043   -0.202355
     31          6           0      -10.591560    1.068005    2.048874
     32          6           0      -10.824632   -0.068123   -1.503785
     33          6           0       -9.918907    0.296296   -2.697164
     34          7           0       -6.059184   -1.709066   -0.313294
     35          6           0       -7.127646   -2.532648   -0.569854
     36          6           0       -6.634333   -3.857010   -0.789578
     37          6           0       -5.325817   -3.809670   -0.509376
     38          6           0       -4.978230   -2.472669   -0.327852
     39          6           0       -7.480948   -5.013870   -1.261243
     40          6           0       -4.131446   -4.625076   -0.568275
     41          8           0       -4.018241   -5.821770   -0.817254
     42          6           0       -2.964607   -3.636912   -0.239350
     43          6           0       -2.417881   -4.206048    1.081798
     44          8           0       -3.055314   -4.189346    2.140590
     45          8           0       -1.126670   -4.693515    0.914643
     46          6           0       -0.487708   -4.911379    2.215423
     47          6           0        4.013374   -1.085979   -1.357946
     48          6           0        5.065991   -1.010198   -0.216940
     49          6           0        6.331938   -1.449044   -0.186149
     50          6           0        6.959060   -2.430596   -1.184724
     51          6           0        7.211967   -0.986913    1.006626
     52          6           0        8.104913    0.260912    0.814030
     53          6           0        7.840504    0.865496   -0.570959
     54          6           0        8.591163    2.361308   -0.674389
     55          6           0        7.561075    3.476599   -0.465076
     56          6           0        9.214026    2.573412   -2.040611
     57          6           0       10.663772    2.993738   -1.824981
     58          6           0       11.681755    1.920416   -2.168372
     59          6           0       13.041550    1.993538   -1.412163
     60          6           0       14.233579    2.332048   -2.364909
     61          6           0       13.472606    0.790037   -0.629682
     62          6           0       13.030310    0.754185    0.807576
     63          6           0       13.955033   -0.023889    1.826895
     64          6           0       13.426292   -1.400663    2.163103
     65          6           0       12.233532   -1.308870    3.131253
     66          6           0       14.568638   -2.261972    2.808316
     67          1           0       -2.306908    3.165285    0.587926
     68          1           0       -8.787705    3.571115    0.695441
     69          1           0       -9.282146   -2.687394   -0.749212
     70          1           0       -1.233016   -1.391752    1.126907
     71          1           0       -0.671921    1.224046   -0.007003
     72          1           0       -1.716749    1.617808    2.636707
     73          1           0       -0.064692    1.598813    1.966431
     74          1           0       -0.805279    0.103441    2.578574
     75          1           0       -0.502624   -0.241947   -1.450009
     76          1           0       -1.417739   -1.614904   -1.782288
     77          1           0        0.307284   -3.010923   -1.345757
     78          1           0        0.730429   -2.140036    0.183521
     79          1           0       -4.146671    6.081806    1.970064
     80          1           0       -3.493411    6.282173    0.436264
     81          1           0       -2.968310    4.930906    1.518338
     82          1           0       -6.085059    7.282112   -0.259455
     83          1           0       -5.908712    7.340994    1.487362
     84          1           0       -7.450222    7.955658    0.711102
     85          1           0      -10.940608    1.900869    0.274368
     86          1           0      -10.837523   -0.918253    0.458936
     87          1           0      -10.114977    0.100036    2.202425
     88          1           0      -11.680730    1.035403    2.018446
     89          1           0      -10.096952    1.642824    2.831866
     90          1           0      -11.511576    0.775311   -1.425317
     91          1           0      -11.316923   -0.972969   -1.861422
     92          1           0      -10.590981    0.741565   -3.430241
     93          1           0       -9.384423   -0.601454   -3.006229
     94          1           0       -9.188436    1.048666   -2.400838
     95          1           0       -8.487098   -4.833431   -0.881872
     96          1           0       -7.031653   -5.914565   -0.841768
     97          1           0       -7.467645   -5.076459   -2.348829
     98          1           0       -2.160394   -3.875946   -0.936189
     99          1           0       -1.007300   -5.626974    2.852518
    100          1           0       -0.323988   -4.013794    2.813425
    101          1           0        0.525098   -5.264150    2.020450
    102          1           0        3.844937   -0.067898   -1.708680
    103          1           0        4.360794   -1.610304   -2.247202
    104          1           0        4.847045   -0.351808    0.623967
    105          1           0        7.220474   -3.401529   -0.764059
    106          1           0        7.931752   -2.015655   -1.449694
    107          1           0        6.265920   -2.609490   -2.006038
    108          1           0        7.900446   -1.775427    1.311264
    109          1           0        6.508265   -0.839893    1.825458
    110          1           0        9.131171   -0.101562    0.881985
    111          1           0        8.041110    1.039281    1.573779
    112          1           0        6.779177    0.997920   -0.781856
    113          1           0        8.117636    0.190132   -1.380144
    114          1           0        9.291372    2.351602    0.160521
    115          1           0        7.899314    4.433152   -0.865294
    116          1           0        7.449319    3.663528    0.603127
    117          1           0        6.652145    3.178777   -0.987886
    118          1           0        8.656190    3.336080   -2.583201
    119          1           0        9.163806    1.637569   -2.597932
    120          1           0       10.925729    3.300961   -0.812537
    121          1           0       10.771073    3.871875   -2.462817
    122          1           0       11.937671    2.114286   -3.210040
    123          1           0       11.246951    0.937485   -1.991189
    124          1           0       12.902372    2.868050   -0.776689
    125          1           0       14.427424    3.402475   -2.427801
    126          1           0       14.070883    2.024720   -3.397758
    127          1           0       15.195600    1.910909   -2.072068
    128          1           0       14.562216    0.751639   -0.628216
    129          1           0       13.140832   -0.158642   -1.051936
    130          1           0       11.964318    0.540500    0.725876
    131          1           0       13.027732    1.779864    1.175974
    132          1           0       13.806405    0.566481    2.730721
    133          1           0       15.021648   -0.016878    1.603368
    134          1           0       12.951383   -1.893884    1.314822
    135          1           0       12.461861   -0.811324    4.073818
    136          1           0       11.778898   -2.282269    3.313218
    137          1           0       11.474999   -0.755740    2.577030
    138          1           0       14.526633   -3.258314    2.366976
    139          1           0       14.346552   -2.206865    3.873306
    140          1           0       15.485895   -1.679250    2.725349
 ---------------------------------------------------------------------

 SCF Done:  E(RCAM-B3LYP) =  -3007.16614716     A.U. after   19 cycles

 Excitation energies and oscillator strengths:

 Excited State   1:      Singlet-A      1.7149 eV  722.97 nm  f=0.3927  <S**2>=0.000
     245 -> 248        0.17358
     246 -> 247        0.68640
     245 <- 248        0.10354
 This state for optimization and/or second-order correction.
 Total Energy, E(TD-HF/TD-DFT) =  -3007.10312491
 Copying the excited state density for this state as the 1-particle RhoCI density.

 Excited State   2:      Singlet-A      2.2642 eV  547.60 nm  f=0.1078  <S**2>=0.000
     245 -> 247        0.63427
     246 -> 248       -0.29689

 Excited State   3:      Singlet-A      3.4147 eV  363.09 nm  f=0.0073  <S**2>=0.000
     241 -> 247        0.26048
     243 -> 247        0.15740
     243 -> 248        0.12885
     243 -> 249        0.15829
     243 -> 251        0.11280
     244 -> 247        0.50707

 Excited State   4:      Singlet-A      3.4509 eV  359.28 nm  f=0.0340  <S**2>=0.000
     241 -> 247       -0.11447
     241 -> 249        0.14010
     242 -> 247       -0.28456
     243 -> 247        0.44326
     244 -> 247       -0.26298
     246 -> 248        0.17557

 Excited State   5:      Singlet-A      3.4717 eV  357.12 nm  f=0.3808  <S**2>=0.000
     241 -> 247       -0.21691
     244 -> 247        0.26078
     245 -> 247        0.23310
     246 -> 248        0.54922

 The electronic state is 1-A.
 Alpha  occ. eigenvalues --  -46.88756 -19.26270 -19.25857 -19.21165 -19.20433
 Alpha  occ. eigenvalues --  -19.19489 -19.18018 -14.42260 -14.42244 -14.39670
 Alpha  occ. eigenvalues --  -14.38984 -10.40044 -10.39944 -10.35208 -10.34958
 Alpha  occ. eigenvalues --  -10.32581 -10.31895 -10.31418 -10.31303 -10.30775
 Alpha  occ. eigenvalues --  -10.30683 -10.29968 -10.29743 -10.29709 -10.29146
 Alpha  occ. eigenvalues --  -10.28756 -10.28339 -10.28306 -10.28283 -10.28029
 Alpha  occ. eigenvalues --  -10.27841 -10.27729 -10.27642 -10.27529 -10.27471
 Alpha  occ. eigenvalues --  -10.27193 -10.26982 -10.26974 -10.26941 -10.26769
 Alpha  occ. eigenvalues --  -10.26394 -10.26358 -10.26147 -10.26139 -10.26015
 Alpha  occ. eigenvalues --  -10.25948 -10.25787 -10.25769 -10.25768 -10.25689
 Alpha  occ. eigenvalues --  -10.25418 -10.25333 -10.25233 -10.25129 -10.25072
 Alpha  occ. eigenvalues --  -10.24934 -10.24614 -10.24582 -10.24570 -10.24456
 Alpha  occ. eigenvalues --  -10.24445 -10.24412 -10.24385 -10.24285 -10.24160
 Alpha  occ. eigenvalues --  -10.23932  -3.17327  -1.92227  -1.91782  -1.91629
 Alpha  occ. eigenvalues --   -1.16989  -1.16209  -1.09946  -1.08915  -1.07831
 Alpha  occ. eigenvalues --   -1.07248  -1.05344  -1.04192  -1.03739  -1.02704
 Alpha  occ. eigenvalues --   -0.92544  -0.90709  -0.90426  -0.90129  -0.89097
 Alpha  occ. eigenvalues --   -0.89023  -0.88594  -0.87948  -0.87691  -0.87267
 Alpha  occ. eigenvalues --   -0.86784  -0.85782  -0.84567  -0.83975  -0.83687
 Alpha  occ. eigenvalues --   -0.82733  -0.82324  -0.81379  -0.80858  -0.80619
 Alpha  occ. eigenvalues --   -0.80046  -0.78734  -0.78307  -0.77311  -0.76367
 Alpha  occ. eigenvalues --   -0.76026  -0.75517  -0.75311  -0.74669  -0.74606
 Alpha  occ. eigenvalues --   -0.73596  -0.73125  -0.71425  -0.70428  -0.68926
 Alpha  occ. eigenvalues --   -0.68581  -0.68131  -0.67222  -0.66516  -0.65850
 Alpha  occ. eigenvalues --   -0.65451  -0.65371  -0.64754  -0.64381  -0.64115
 Alpha  occ. eigenvalues --   -0.64024  -0.63449  -0.62739  -0.62466  -0.60574
 Alpha  occ. eigenvalues --   -0.60493  -0.59752  -0.59201  -0.58817  -0.57963
 Alpha  occ. eigenvalues --   -0.57628  -0.56766  -0.56462  -0.56078  -0.55807
 Alpha  occ. eigenvalues --   -0.55462  -0.55098  -0.54836  -0.54654  -0.54444
 Alpha  occ. eigenvalues --   -0.54040  -0.54012  -0.53639  -0.53467  -0.52772
 Alpha  occ. eigenvalues --   -0.52680  -0.52619  -0.52381  -0.52223  -0.52057
 Alpha  occ. eigenvalues --   -0.51864  -0.51615  -0.51349  -0.51248  -0.50992
 Alpha  occ. eigenvalues --   -0.50594  -0.50355  -0.50008  -0.49831  -0.49713
 Alpha  occ. eigenvalues --   -0.49526  -0.49504  -0.49414  -0.49323  -0.48924
 Alpha  occ. eigenvalues --   -0.48731  -0.48322  -0.48151  -0.47924  -0.47550
 Alpha  occ. eigenvalues --   -0.47491  -0.47213  -0.46992  -0.46796  -0.46683
 Alpha  occ. eigenvalues --   -0.46552  -0.46346  -0.46112  -0.46024  -0.45777
 Alpha  occ. eigenvalues --   -0.45711  -0.45582  -0.45388  -0.45194  -0.45183
 Alpha  occ. eigenvalues --   -0.44969  -0.44858  -0.44750  -0.44296  -0.44110
 Alpha  occ. eigenvalues --   -0.43875  -0.43723  -0.43604  -0.43548  -0.43428
 Alpha  occ. eigenvalues --   -0.43318  -0.43098  -0.42618  -0.42494  -0.42335
 Alpha  occ. eigenvalues --   -0.42074  -0.42052  -0.41519  -0.41244  -0.41205
 Alpha  occ. eigenvalues --   -0.41070  -0.40953  -0.40502  -0.40384  -0.40021
 Alpha  occ. eigenvalues --   -0.39887  -0.39322  -0.39236  -0.39029  -0.38829
 Alpha  occ. eigenvalues --   -0.38723  -0.38334  -0.37927  -0.37774  -0.37702
 Alpha  occ. eigenvalues --   -0.37606  -0.37450  -0.36968  -0.36780  -0.36498
 Alpha  occ. eigenvalues --   -0.36217  -0.35843  -0.34934  -0.34858  -0.34535
 Alpha  occ. eigenvalues --   -0.34327  -0.33233  -0.33174  -0.31780  -0.31345
 Alpha  occ. eigenvalues --   -0.30710  -0.30462  -0.30392  -0.29923  -0.24411
 Alpha  occ. eigenvalues --   -0.21266
 Alpha virt. eigenvalues --   -0.08846  -0.01942   0.00289   0.02212   0.02400
 Alpha virt. eigenvalues --    0.04389   0.04585   0.05279   0.05816   0.06783
 Alpha virt. eigenvalues --    0.06972   0.07884   0.08249   0.08540   0.08999

 Mulliken charges:
               1
     1  Mg   0.837917
     2  C    0.058881
     3  C   -0.076829
     4  C   -0.053813
     5  C   -0.069539
     6  N   -0.290285
     7  C   -0.057606
     8  C    0.002097
     9  C   -0.092867
    10  C    0.036132
    11  C    0.063151
    12  C    0.060008
    13  C    0.089910
    14  C    0.135633
    15  O   -0.219776
    16  O   -0.331024
    17  N   -0.399773
    18  C    0.151560
    19  C   -0.121778
    20  C    0.000101
    21  C    0.110969
    22  C    0.096185
    23  C   -0.015331
    24  O   -0.257737
    25  C    0.086913
    26  N   -0.262380
    27  C    0.072000
    28  C   -0.039693
    29  C   -0.050227
    30  C   -0.008719
    31  C    0.081805
    32  C    0.003722
    33  C    0.034708
    34  N   -0.293823
    35  C    0.108637
    36  C   -0.188740
    37  C    0.043115
    38  C    0.086069
    39  C    0.134889
    40  C    0.037237
    41  O   -0.168777
    42  C   -0.033472
    43  C    0.199522
    44  O   -0.228914
    45  O   -0.330237
    46  C    0.180025
    47  C    0.265280
    48  C   -0.054614
    49  C   -0.236096
    50  C    0.108201
    51  C    0.094864
    52  C    0.000638
    53  C    0.034384
    54  C   -0.136737
    55  C    0.057014
    56  C    0.088387
    57  C   -0.010366
    58  C    0.087156
    59  C   -0.129062
    60  C    0.031855
    61  C    0.081692
    62  C   -0.013125
    63  C    0.081060
    64  C   -0.172146
    65  C    0.025088
    66  C    0.084844
    67  H   -0.030657
    68  H    0.000850
    69  H   -0.025241
    70  H    0.018923
    71  H    0.015277
    72  H    0.034096
    73  H    0.012435
    74  H    0.008796
    75  H    0.005878
    76  H    0.018473
    77  H    0.046743
    78  H    0.022393
    79  H    0.010863
    80  H    0.030003
    81  H    0.016388
    82  H    0.030386
    83  H    0.024877
    84  H    0.040742
    85  H    0.006320
    86  H    0.001859
    87  H    0.000831
    88  H    0.027784
    89  H    0.017338
    90  H   -0.003088
    91  H    0.008733
    92  H    0.020754
    93  H    0.015059
    94  H    0.013348
    95  H    0.015632
    96  H    0.038923
    97  H    0.037734
    98  H    0.026269
    99  H    0.048392
   100  H    0.024906
   101  H    0.030839
   102  H    0.018038
   103  H    0.033313
   104  H   -0.009253
   105  H    0.021760
   106  H    0.011147
   107  H    0.008623
   108  H   -0.012628
   109  H    0.004273
   110  H    0.003386
   111  H    0.006830
   112  H   -0.013819
   113  H   -0.017423
   114  H    0.003152
   115  H    0.003620
   116  H    0.000856
   117  H    0.014521
   118  H   -0.009227
   119  H   -0.006710
   120  H   -0.001221
   121  H   -0.009776
   122  H   -0.008123
   123  H   -0.009546
   124  H   -0.007621
   125  H   -0.000734
   126  H    0.004516
   127  H    0.003188
   128  H   -0.021499
   129  H   -0.010787
   130  H   -0.013289
   131  H   -0.021629
   132  H   -0.012896
   133  H    0.005374
   134  H   -0.008761
   135  H    0.011855
   136  H    0.006568
   137  H   -0.005411
   138  H    0.026440
   139  H   -0.004518
   140  H   -0.003617
 Sum of Mulliken charges =  -0.00000

 Dipole moment (field-independent basis, Debye):
    X=              3.5896    Y=              3.0372    Z=              0.5173  Tot=              4.7305
 Quadrupole moment (field-independent basis, Debye-Ang):
   XX=           -388.4523   YY=           -423.4594   ZZ=           -412.6895
   XY=              5.1776   XZ=             16.0101   YZ=              1.1228

 Normal termination of Gaussian 16 at Wed May  4 14:30:05 2022.
