 Gaussian 16, Revision A.03,
 Gaussian 16:  ES64L-G16RevA.03 25-Dec-2016

 ---------------------------------
 #p PBE1PBE/Def2SVP td=(nstates=5)
 ---------------------------------

 ------------------------------------------------------
 step_1851_chromophore_13 TDDFT with PBE1PBE functional
 ------------------------------------------------------
 Symbolic Z-matrix:
 Charge =  0 Multiplicity = 1

                         Standard orientation:
 ---------------------------------------------------------------------
 Center     Atomic      Atomic             Coordinates (Angstroms)
 Number     Number       Type             X           Y           Z
 ---------------------------------------------------------------------
      1         12           0       -5.870171    0.450667   -0.211522
      2          6           0       -3.608572   -2.192830   -0.135445
      3          6           0       -3.216536    2.574831    0.465321
      4          6           0       -8.071605    2.767185    0.514839
      5          6           0       -8.441636   -2.017388   -0.554668
      6          7           0       -3.737193    0.215061    0.189771
      7          6           0       -3.004562   -0.967060    0.058300
      8          6           0       -1.547181   -0.808772    0.260812
      9          6           0       -1.417062    0.710399    0.601458
     10          6           0       -2.900854    1.245258    0.413339
     11          6           0       -0.996229    1.041500    2.056844
     12          6           0       -0.765457   -1.205281   -1.011101
     13          6           0        0.472137   -2.043005   -0.870511
     14          6           0        1.746482   -1.473349   -1.614129
     15          8           0        1.860302   -1.179058   -2.785910
     16          8           0        2.758428   -1.440449   -0.667355
     17          7           0       -5.700139    2.418549    0.224524
     18          6           0       -4.527722    3.166347    0.476259
     19          6           0       -4.887207    4.524152    0.730936
     20          6           0       -6.288951    4.602520    0.636420
     21          6           0       -6.738575    3.223447    0.488470
     22          6           0       -3.812176    5.491748    1.116628
     23          6           0       -7.152533    5.832426    0.679769
     24          8           0       -8.417709    5.712140    0.691477
     25          6           0       -6.633671    7.234969    0.680558
     26          7           0       -7.981398    0.353674    0.024997
     27          6           0       -8.636948    1.503811    0.325753
     28          6           0      -10.135582    1.254458    0.622848
     29          6           0      -10.257457   -0.175782   -0.090099
     30          6           0       -8.810018   -0.673043   -0.202355
     31          6           0      -10.591560    1.068005    2.048874
     32          6           0      -10.824632   -0.068123   -1.503785
     33          6           0       -9.918907    0.296296   -2.697164
     34          7           0       -6.059184   -1.709066   -0.313294
     35          6           0       -7.127646   -2.532648   -0.569854
     36          6           0       -6.634333   -3.857010   -0.789578
     37          6           0       -5.325817   -3.809670   -0.509376
     38          6           0       -4.978230   -2.472669   -0.327852
     39          6           0       -7.480948   -5.013870   -1.261243
     40          6           0       -4.131446   -4.625076   -0.568275
     41          8           0       -4.018241   -5.821770   -0.817254
     42          6           0       -2.964607   -3.636912   -0.239350
     43          6           0       -2.417881   -4.206048    1.081798
     44          8           0       -3.055314   -4.189346    2.140590
     45          8           0       -1.126670   -4.693515    0.914643
     46          6           0       -0.487708   -4.911379    2.215423
     47          6           0        4.013374   -1.085979   -1.357946
     48          6           0        5.065991   -1.010198   -0.216940
     49          6           0        6.331938   -1.449044   -0.186149
     50          6           0        6.959060   -2.430596   -1.184724
     51          6           0        7.211967   -0.986913    1.006626
     52          6           0        8.104913    0.260912    0.814030
     53          6           0        7.840504    0.865496   -0.570959
     54          6           0        8.591163    2.361308   -0.674389
     55          6           0        7.561075    3.476599   -0.465076
     56          6           0        9.214026    2.573412   -2.040611
     57          6           0       10.663772    2.993738   -1.824981
     58          6           0       11.681755    1.920416   -2.168372
     59          6           0       13.041550    1.993538   -1.412163
     60          6           0       14.233579    2.332048   -2.364909
     61          6           0       13.472606    0.790037   -0.629682
     62          6           0       13.030310    0.754185    0.807576
     63          6           0       13.955033   -0.023889    1.826895
     64          6           0       13.426292   -1.400663    2.163103
     65          6           0       12.233532   -1.308870    3.131253
     66          6           0       14.568638   -2.261972    2.808316
     67          1           0       -2.306908    3.165285    0.587926
     68          1           0       -8.787705    3.571115    0.695441
     69          1           0       -9.282146   -2.687394   -0.749212
     70          1           0       -1.233016   -1.391752    1.126907
     71          1           0       -0.671921    1.224046   -0.007003
     72          1           0       -1.716749    1.617808    2.636707
     73          1           0       -0.064692    1.598813    1.966431
     74          1           0       -0.805279    0.103441    2.578574
     75          1           0       -0.502624   -0.241947   -1.450009
     76          1           0       -1.417739   -1.614904   -1.782288
     77          1           0        0.307284   -3.010923   -1.345757
     78          1           0        0.730429   -2.140036    0.183521
     79          1           0       -4.146671    6.081806    1.970064
     80          1           0       -3.493411    6.282173    0.436264
     81          1           0       -2.968310    4.930906    1.518338
     82          1           0       -6.085059    7.282112   -0.259455
     83          1           0       -5.908712    7.340994    1.487362
     84          1           0       -7.450222    7.955658    0.711102
     85          1           0      -10.940608    1.900869    0.274368
     86          1           0      -10.837523   -0.918253    0.458936
     87          1           0      -10.114977    0.100036    2.202425
     88          1           0      -11.680730    1.035403    2.018446
     89          1           0      -10.096952    1.642824    2.831866
     90          1           0      -11.511576    0.775311   -1.425317
     91          1           0      -11.316923   -0.972969   -1.861422
     92          1           0      -10.590981    0.741565   -3.430241
     93          1           0       -9.384423   -0.601454   -3.006229
     94          1           0       -9.188436    1.048666   -2.400838
     95          1           0       -8.487098   -4.833431   -0.881872
     96          1           0       -7.031653   -5.914565   -0.841768
     97          1           0       -7.467645   -5.076459   -2.348829
     98          1           0       -2.160394   -3.875946   -0.936189
     99          1           0       -1.007300   -5.626974    2.852518
    100          1           0       -0.323988   -4.013794    2.813425
    101          1           0        0.525098   -5.264150    2.020450
    102          1           0        3.844937   -0.067898   -1.708680
    103          1           0        4.360794   -1.610304   -2.247202
    104          1           0        4.847045   -0.351808    0.623967
    105          1           0        7.220474   -3.401529   -0.764059
    106          1           0        7.931752   -2.015655   -1.449694
    107          1           0        6.265920   -2.609490   -2.006038
    108          1           0        7.900446   -1.775427    1.311264
    109          1           0        6.508265   -0.839893    1.825458
    110          1           0        9.131171   -0.101562    0.881985
    111          1           0        8.041110    1.039281    1.573779
    112          1           0        6.779177    0.997920   -0.781856
    113          1           0        8.117636    0.190132   -1.380144
    114          1           0        9.291372    2.351602    0.160521
    115          1           0        7.899314    4.433152   -0.865294
    116          1           0        7.449319    3.663528    0.603127
    117          1           0        6.652145    3.178777   -0.987886
    118          1           0        8.656190    3.336080   -2.583201
    119          1           0        9.163806    1.637569   -2.597932
    120          1           0       10.925729    3.300961   -0.812537
    121          1           0       10.771073    3.871875   -2.462817
    122          1           0       11.937671    2.114286   -3.210040
    123          1           0       11.246951    0.937485   -1.991189
    124          1           0       12.902372    2.868050   -0.776689
    125          1           0       14.427424    3.402475   -2.427801
    126          1           0       14.070883    2.024720   -3.397758
    127          1           0       15.195600    1.910909   -2.072068
    128          1           0       14.562216    0.751639   -0.628216
    129          1           0       13.140832   -0.158642   -1.051936
    130          1           0       11.964318    0.540500    0.725876
    131          1           0       13.027732    1.779864    1.175974
    132          1           0       13.806405    0.566481    2.730721
    133          1           0       15.021648   -0.016878    1.603368
    134          1           0       12.951383   -1.893884    1.314822
    135          1           0       12.461861   -0.811324    4.073818
    136          1           0       11.778898   -2.282269    3.313218
    137          1           0       11.474999   -0.755740    2.577030
    138          1           0       14.526633   -3.258314    2.366976
    139          1           0       14.346552   -2.206865    3.873306
    140          1           0       15.485895   -1.679250    2.725349
 ---------------------------------------------------------------------

 SCF Done:  E(RPBE1PBE) =  -3005.35576129     A.U. after   16 cycles

 Excitation energies and oscillator strengths:

 Excited State   1:      Singlet-A      1.8706 eV  662.79 nm  f=0.3784  <S**2>=0.000
     245 -> 248        0.16672
     246 -> 247        0.69365
     246 <- 247       -0.11013
 This state for optimization and/or second-order correction.
 Total Energy, E(TD-HF/TD-DFT) =  -3005.28701636
 Copying the excited state density for this state as the 1-particle RhoCI density.

 Excited State   2:      Singlet-A      2.2647 eV  547.46 nm  f=0.1087  <S**2>=0.000
     245 -> 247        0.64684
     246 -> 248       -0.26676

 Excited State   3:      Singlet-A      2.8961 eV  428.11 nm  f=0.0011  <S**2>=0.000
     244 -> 247        0.66208
     244 -> 248        0.13096
     244 -> 249        0.12638
     244 -> 250        0.10305

 Excited State   4:      Singlet-A      3.0429 eV  407.45 nm  f=0.0011  <S**2>=0.000
     240 -> 247       -0.12415
     241 -> 247       -0.35427
     241 -> 249        0.11457
     242 -> 247       -0.16313
     243 -> 247        0.54090

 Excited State   5:      Singlet-A      3.1570 eV  392.73 nm  f=0.0008  <S**2>=0.000
     240 -> 247        0.21587
     241 -> 247        0.51004
     243 -> 247        0.39727

 The electronic state is 1-A.
 Alpha  occ. eigenvalues --  -46.92160 -19.26863 -19.26603 -19.21485 -19.20611
 Alpha  occ. eigenvalues --  -19.19592 -19.18362 -14.41858 -14.41682 -14.39402
 Alpha  occ. eigenvalues --  -14.38552 -10.37053 -10.37044 -10.32254 -10.32176
 Alpha  occ. eigenvalues --  -10.30026 -10.29086 -10.29035 -10.29002 -10.28626
 Alpha  occ. eigenvalues --  -10.28504 -10.27858 -10.27568 -10.27272 -10.26745
 Alpha  occ. eigenvalues --  -10.26243 -10.26203 -10.26134 -10.26095 -10.25860
 Alpha  occ. eigenvalues --  -10.25386 -10.25339 -10.25329 -10.25205 -10.25047
 Alpha  occ. eigenvalues --  -10.24960 -10.24819 -10.24566 -10.24543 -10.24502
 Alpha  occ. eigenvalues --  -10.23794 -10.23673 -10.23672 -10.23632 -10.23536
 Alpha  occ. eigenvalues --  -10.23434 -10.23434 -10.23405 -10.23399 -10.23326
 Alpha  occ. eigenvalues --  -10.23073 -10.23040 -10.22748 -10.22704 -10.22698
 Alpha  occ. eigenvalues --  -10.22333 -10.22165 -10.22114 -10.21982 -10.21982
 Alpha  occ. eigenvalues --  -10.21929 -10.21856 -10.21846 -10.21818 -10.21590
 Alpha  occ. eigenvalues --  -10.21463  -3.14311  -1.87151  -1.86685  -1.86534
 Alpha  occ. eigenvalues --   -1.11833  -1.10917  -1.04563  -1.03835  -1.02585
 Alpha  occ. eigenvalues --   -1.02017  -0.99924  -0.98795  -0.98397  -0.97462
 Alpha  occ. eigenvalues --   -0.86818  -0.84838  -0.84635  -0.84272  -0.83394
 Alpha  occ. eigenvalues --   -0.83141  -0.82959  -0.82243  -0.81823  -0.81590
 Alpha  occ. eigenvalues --   -0.81122  -0.80038  -0.78770  -0.78198  -0.77992
 Alpha  occ. eigenvalues --   -0.76916  -0.76562  -0.75620  -0.75201  -0.74841
 Alpha  occ. eigenvalues --   -0.74219  -0.73082  -0.72567  -0.71602  -0.70622
 Alpha  occ. eigenvalues --   -0.70222  -0.69686  -0.69605  -0.68825  -0.68776
 Alpha  occ. eigenvalues --   -0.67945  -0.67447  -0.65909  -0.64741  -0.63319
 Alpha  occ. eigenvalues --   -0.62961  -0.62373  -0.61682  -0.60754  -0.60326
 Alpha  occ. eigenvalues --   -0.60004  -0.59597  -0.59158  -0.58960  -0.58624
 Alpha  occ. eigenvalues --   -0.58181  -0.57622  -0.56987  -0.56912  -0.55205
 Alpha  occ. eigenvalues --   -0.54973  -0.54359  -0.53608  -0.53402  -0.52586
 Alpha  occ. eigenvalues --   -0.51967  -0.51257  -0.51044  -0.50484  -0.50385
 Alpha  occ. eigenvalues --   -0.50026  -0.49491  -0.49471  -0.49112  -0.48830
 Alpha  occ. eigenvalues --   -0.48543  -0.48418  -0.48247  -0.47941  -0.47350
 Alpha  occ. eigenvalues --   -0.47252  -0.47146  -0.46957  -0.46761  -0.46463
 Alpha  occ. eigenvalues --   -0.46329  -0.46168  -0.45849  -0.45765  -0.45619
 Alpha  occ. eigenvalues --   -0.45130  -0.44960  -0.44655  -0.44432  -0.44326
 Alpha  occ. eigenvalues --   -0.44104  -0.44100  -0.44045  -0.43856  -0.43484
 Alpha  occ. eigenvalues --   -0.43353  -0.43002  -0.42839  -0.42480  -0.42230
 Alpha  occ. eigenvalues --   -0.42149  -0.41899  -0.41620  -0.41421  -0.41313
 Alpha  occ. eigenvalues --   -0.41171  -0.41063  -0.40932  -0.40648  -0.40456
 Alpha  occ. eigenvalues --   -0.40394  -0.40300  -0.40044  -0.39889  -0.39845
 Alpha  occ. eigenvalues --   -0.39809  -0.39626  -0.39507  -0.39087  -0.38976
 Alpha  occ. eigenvalues --   -0.38651  -0.38413  -0.38359  -0.38309  -0.38200
 Alpha  occ. eigenvalues --   -0.38049  -0.37933  -0.37369  -0.37233  -0.37089
 Alpha  occ. eigenvalues --   -0.36906  -0.36771  -0.36455  -0.36131  -0.35992
 Alpha  occ. eigenvalues --   -0.35871  -0.35824  -0.35392  -0.35141  -0.34947
 Alpha  occ. eigenvalues --   -0.34653  -0.34233  -0.34154  -0.33836  -0.33757
 Alpha  occ. eigenvalues --   -0.33538  -0.33288  -0.32775  -0.32659  -0.32612
 Alpha  occ. eigenvalues --   -0.32423  -0.32330  -0.31840  -0.31770  -0.31588
 Alpha  occ. eigenvalues --   -0.31092  -0.30689  -0.29858  -0.29815  -0.29530
 Alpha  occ. eigenvalues --   -0.29336  -0.28726  -0.28228  -0.27382  -0.26343
 Alpha  occ. eigenvalues --   -0.26000  -0.25795  -0.25637  -0.25177  -0.21306
 Alpha  occ. eigenvalues --   -0.18921
 Alpha virt. eigenvalues --   -0.11314  -0.05500  -0.03898  -0.02099  -0.00520
 Alpha virt. eigenvalues --   -0.00176   0.00021   0.00791   0.01526   0.03137
 Alpha virt. eigenvalues --    0.03558   0.04175   0.04315   0.05125   0.05676

 Mulliken charges:
               1
     1  Mg   0.983420
     2  C    0.056497
     3  C   -0.070583
     4  C   -0.042045
     5  C   -0.064125
     6  N   -0.395783
     7  C   -0.000417
     8  C   -0.072468
     9  C   -0.163496
    10  C    0.068821
    11  C    0.008746
    12  C    0.018310
    13  C    0.009490
    14  C    0.200486
    15  O   -0.251686
    16  O   -0.358350
    17  N   -0.516027
    18  C    0.177472
    19  C   -0.150877
    20  C   -0.051832
    21  C    0.145423
    22  C    0.043286
    23  C    0.033119
    24  O   -0.291975
    25  C    0.015289
    26  N   -0.372043
    27  C    0.100545
    28  C   -0.112398
    29  C   -0.138428
    30  C    0.039507
    31  C    0.024768
    32  C   -0.046308
    33  C   -0.046623
    34  N   -0.420889
    35  C    0.131567
    36  C   -0.212361
    37  C    0.000713
    38  C    0.141869
    39  C    0.081412
    40  C    0.124317
    41  O   -0.216275
    42  C   -0.136360
    43  C    0.289569
    44  O   -0.260314
    45  O   -0.362032
    46  C    0.122839
    47  C    0.222221
    48  C   -0.072074
    49  C   -0.286731
    50  C    0.047103
    51  C    0.042384
    52  C   -0.072096
    53  C   -0.018770
    54  C   -0.221273
    55  C   -0.003111
    56  C    0.031255
    57  C   -0.074385
    58  C    0.036997
    59  C   -0.216564
    60  C   -0.026257
    61  C    0.027189
    62  C   -0.079092
    63  C    0.021189
    64  C   -0.261958
    65  C   -0.039653
    66  C    0.021801
    67  H    0.002006
    68  H    0.032462
    69  H    0.005200
    70  H    0.057744
    71  H    0.049693
    72  H    0.061304
    73  H    0.039868
    74  H    0.036984
    75  H    0.038488
    76  H    0.051068
    77  H    0.079381
    78  H    0.055173
    79  H    0.040153
    80  H    0.057432
    81  H    0.043070
    82  H    0.058103
    83  H    0.051794
    84  H    0.067290
    85  H    0.040918
    86  H    0.037966
    87  H    0.030910
    88  H    0.055946
    89  H    0.046357
    90  H    0.030664
    91  H    0.041405
    92  H    0.049345
    93  H    0.045316
    94  H    0.046393
    95  H    0.042174
    96  H    0.065913
    97  H    0.064923
    98  H    0.064542
    99  H    0.070543
   100  H    0.046714
   101  H    0.052908
   102  H    0.047179
   103  H    0.059202
   104  H    0.020557
   105  H    0.049887
   106  H    0.037673
   107  H    0.036575
   108  H    0.020175
   109  H    0.035939
   110  H    0.041900
   111  H    0.038845
   112  H    0.022494
   113  H    0.016469
   114  H    0.040345
   115  H    0.032270
   116  H    0.028988
   117  H    0.041679
   118  H    0.023270
   119  H    0.025788
   120  H    0.029738
   121  H    0.023626
   122  H    0.025803
   123  H    0.022873
   124  H    0.030595
   125  H    0.027245
   126  H    0.031469
   127  H    0.029898
   128  H    0.012055
   129  H    0.022405
   130  H    0.023053
   131  H    0.011943
   132  H    0.021347
   133  H    0.035100
   134  H    0.029420
   135  H    0.038628
   136  H    0.035658
   137  H    0.026290
   138  H    0.053305
   139  H    0.023966
   140  H    0.024254
 Sum of Mulliken charges =  -0.00000

 Dipole moment (field-independent basis, Debye):
    X=              3.6104    Y=              3.3263    Z=              0.5729  Tot=              4.9424
 Quadrupole moment (field-independent basis, Debye-Ang):
   XX=           -383.3186   YY=           -420.9676   ZZ=           -410.0330
   XY=              4.3748   XZ=             16.0057   YZ=              1.3277

 Normal termination of Gaussian 16 at Wed May  4 14:49:43 2022.
