 Gaussian 16, Revision A.03,
 Gaussian 16:  ES64L-G16RevA.03 25-Dec-2016

 --------------------------------
 #p wB97XD/Def2SVP td=(nstates=5)
 --------------------------------

 -----------------------------------------------------
 step_1851_chromophore_13 TDDFT with wB97XD functional
 -----------------------------------------------------
 Symbolic Z-matrix:
 Charge =  0 Multiplicity = 1

                         Standard orientation:
 ---------------------------------------------------------------------
 Center     Atomic      Atomic             Coordinates (Angstroms)
 Number     Number       Type             X           Y           Z
 ---------------------------------------------------------------------
      1         12           0       -5.870171    0.450667   -0.211522
      2          6           0       -3.608572   -2.192830   -0.135445
      3          6           0       -3.216536    2.574831    0.465321
      4          6           0       -8.071605    2.767185    0.514839
      5          6           0       -8.441636   -2.017388   -0.554668
      6          7           0       -3.737193    0.215061    0.189771
      7          6           0       -3.004562   -0.967060    0.058300
      8          6           0       -1.547181   -0.808772    0.260812
      9          6           0       -1.417062    0.710399    0.601458
     10          6           0       -2.900854    1.245258    0.413339
     11          6           0       -0.996229    1.041500    2.056844
     12          6           0       -0.765457   -1.205281   -1.011101
     13          6           0        0.472137   -2.043005   -0.870511
     14          6           0        1.746482   -1.473349   -1.614129
     15          8           0        1.860302   -1.179058   -2.785910
     16          8           0        2.758428   -1.440449   -0.667355
     17          7           0       -5.700139    2.418549    0.224524
     18          6           0       -4.527722    3.166347    0.476259
     19          6           0       -4.887207    4.524152    0.730936
     20          6           0       -6.288951    4.602520    0.636420
     21          6           0       -6.738575    3.223447    0.488470
     22          6           0       -3.812176    5.491748    1.116628
     23          6           0       -7.152533    5.832426    0.679769
     24          8           0       -8.417709    5.712140    0.691477
     25          6           0       -6.633671    7.234969    0.680558
     26          7           0       -7.981398    0.353674    0.024997
     27          6           0       -8.636948    1.503811    0.325753
     28          6           0      -10.135582    1.254458    0.622848
     29          6           0      -10.257457   -0.175782   -0.090099
     30          6           0       -8.810018   -0.673043   -0.202355
     31          6           0      -10.591560    1.068005    2.048874
     32          6           0      -10.824632   -0.068123   -1.503785
     33          6           0       -9.918907    0.296296   -2.697164
     34          7           0       -6.059184   -1.709066   -0.313294
     35          6           0       -7.127646   -2.532648   -0.569854
     36          6           0       -6.634333   -3.857010   -0.789578
     37          6           0       -5.325817   -3.809670   -0.509376
     38          6           0       -4.978230   -2.472669   -0.327852
     39          6           0       -7.480948   -5.013870   -1.261243
     40          6           0       -4.131446   -4.625076   -0.568275
     41          8           0       -4.018241   -5.821770   -0.817254
     42          6           0       -2.964607   -3.636912   -0.239350
     43          6           0       -2.417881   -4.206048    1.081798
     44          8           0       -3.055314   -4.189346    2.140590
     45          8           0       -1.126670   -4.693515    0.914643
     46          6           0       -0.487708   -4.911379    2.215423
     47          6           0        4.013374   -1.085979   -1.357946
     48          6           0        5.065991   -1.010198   -0.216940
     49          6           0        6.331938   -1.449044   -0.186149
     50          6           0        6.959060   -2.430596   -1.184724
     51          6           0        7.211967   -0.986913    1.006626
     52          6           0        8.104913    0.260912    0.814030
     53          6           0        7.840504    0.865496   -0.570959
     54          6           0        8.591163    2.361308   -0.674389
     55          6           0        7.561075    3.476599   -0.465076
     56          6           0        9.214026    2.573412   -2.040611
     57          6           0       10.663772    2.993738   -1.824981
     58          6           0       11.681755    1.920416   -2.168372
     59          6           0       13.041550    1.993538   -1.412163
     60          6           0       14.233579    2.332048   -2.364909
     61          6           0       13.472606    0.790037   -0.629682
     62          6           0       13.030310    0.754185    0.807576
     63          6           0       13.955033   -0.023889    1.826895
     64          6           0       13.426292   -1.400663    2.163103
     65          6           0       12.233532   -1.308870    3.131253
     66          6           0       14.568638   -2.261972    2.808316
     67          1           0       -2.306908    3.165285    0.587926
     68          1           0       -8.787705    3.571115    0.695441
     69          1           0       -9.282146   -2.687394   -0.749212
     70          1           0       -1.233016   -1.391752    1.126907
     71          1           0       -0.671921    1.224046   -0.007003
     72          1           0       -1.716749    1.617808    2.636707
     73          1           0       -0.064692    1.598813    1.966431
     74          1           0       -0.805279    0.103441    2.578574
     75          1           0       -0.502624   -0.241947   -1.450009
     76          1           0       -1.417739   -1.614904   -1.782288
     77          1           0        0.307284   -3.010923   -1.345757
     78          1           0        0.730429   -2.140036    0.183521
     79          1           0       -4.146671    6.081806    1.970064
     80          1           0       -3.493411    6.282173    0.436264
     81          1           0       -2.968310    4.930906    1.518338
     82          1           0       -6.085059    7.282112   -0.259455
     83          1           0       -5.908712    7.340994    1.487362
     84          1           0       -7.450222    7.955658    0.711102
     85          1           0      -10.940608    1.900869    0.274368
     86          1           0      -10.837523   -0.918253    0.458936
     87          1           0      -10.114977    0.100036    2.202425
     88          1           0      -11.680730    1.035403    2.018446
     89          1           0      -10.096952    1.642824    2.831866
     90          1           0      -11.511576    0.775311   -1.425317
     91          1           0      -11.316923   -0.972969   -1.861422
     92          1           0      -10.590981    0.741565   -3.430241
     93          1           0       -9.384423   -0.601454   -3.006229
     94          1           0       -9.188436    1.048666   -2.400838
     95          1           0       -8.487098   -4.833431   -0.881872
     96          1           0       -7.031653   -5.914565   -0.841768
     97          1           0       -7.467645   -5.076459   -2.348829
     98          1           0       -2.160394   -3.875946   -0.936189
     99          1           0       -1.007300   -5.626974    2.852518
    100          1           0       -0.323988   -4.013794    2.813425
    101          1           0        0.525098   -5.264150    2.020450
    102          1           0        3.844937   -0.067898   -1.708680
    103          1           0        4.360794   -1.610304   -2.247202
    104          1           0        4.847045   -0.351808    0.623967
    105          1           0        7.220474   -3.401529   -0.764059
    106          1           0        7.931752   -2.015655   -1.449694
    107          1           0        6.265920   -2.609490   -2.006038
    108          1           0        7.900446   -1.775427    1.311264
    109          1           0        6.508265   -0.839893    1.825458
    110          1           0        9.131171   -0.101562    0.881985
    111          1           0        8.041110    1.039281    1.573779
    112          1           0        6.779177    0.997920   -0.781856
    113          1           0        8.117636    0.190132   -1.380144
    114          1           0        9.291372    2.351602    0.160521
    115          1           0        7.899314    4.433152   -0.865294
    116          1           0        7.449319    3.663528    0.603127
    117          1           0        6.652145    3.178777   -0.987886
    118          1           0        8.656190    3.336080   -2.583201
    119          1           0        9.163806    1.637569   -2.597932
    120          1           0       10.925729    3.300961   -0.812537
    121          1           0       10.771073    3.871875   -2.462817
    122          1           0       11.937671    2.114286   -3.210040
    123          1           0       11.246951    0.937485   -1.991189
    124          1           0       12.902372    2.868050   -0.776689
    125          1           0       14.427424    3.402475   -2.427801
    126          1           0       14.070883    2.024720   -3.397758
    127          1           0       15.195600    1.910909   -2.072068
    128          1           0       14.562216    0.751639   -0.628216
    129          1           0       13.140832   -0.158642   -1.051936
    130          1           0       11.964318    0.540500    0.725876
    131          1           0       13.027732    1.779864    1.175974
    132          1           0       13.806405    0.566481    2.730721
    133          1           0       15.021648   -0.016878    1.603368
    134          1           0       12.951383   -1.893884    1.314822
    135          1           0       12.461861   -0.811324    4.073818
    136          1           0       11.778898   -2.282269    3.313218
    137          1           0       11.474999   -0.755740    2.577030
    138          1           0       14.526633   -3.258314    2.366976
    139          1           0       14.346552   -2.206865    3.873306
    140          1           0       15.485895   -1.679250    2.725349
 ---------------------------------------------------------------------

 SCF Done:  E(RwB97XD) =  -3007.86466832     A.U. after   19 cycles

 Excitation energies and oscillator strengths:

 Excited State   1:      Singlet-A      1.6590 eV  747.36 nm  f=0.3916  <S**2>=0.000
     245 -> 248       -0.17930
     246 -> 247        0.68413
     245 <- 248       -0.11261
 This state for optimization and/or second-order correction.
 Total Energy, E(TD-HF/TD-DFT) =  -3007.80370300
 Copying the excited state density for this state as the 1-particle RhoCI density.

 Excited State   2:      Singlet-A      2.2085 eV  561.39 nm  f=0.1052  <S**2>=0.000
     245 -> 247        0.63293
     246 -> 248        0.29879

 Excited State   3:      Singlet-A      3.4353 eV  360.91 nm  f=0.0076  <S**2>=0.000
     241 -> 247       -0.20482
     243 -> 247        0.12323
     243 -> 248       -0.15163
     243 -> 249       -0.18732
     243 -> 250       -0.17332
     244 -> 247        0.52189
     244 -> 248       -0.10600
     244 -> 249       -0.14244
     244 -> 250       -0.10091

 Excited State   4:      Singlet-A      3.4669 eV  357.62 nm  f=0.0829  <S**2>=0.000
     241 -> 247        0.30246
     241 -> 249        0.13198
     242 -> 247       -0.14560
     243 -> 247        0.44610
     244 -> 247       -0.12164
     246 -> 248       -0.26523

 Excited State   5:      Singlet-A      3.4910 eV  355.15 nm  f=0.3480  <S**2>=0.000
     241 -> 247       -0.13495
     242 -> 247       -0.11521
     243 -> 247        0.25455
     244 -> 247       -0.26052
     245 -> 247       -0.21985
     246 -> 248        0.51024

 The electronic state is 1-A.
 Alpha  occ. eigenvalues --  -46.95084 -19.31502 -19.31136 -19.26130 -19.25392
 Alpha  occ. eigenvalues --  -19.24575 -19.23029 -14.46849 -14.46822 -14.44257
 Alpha  occ. eigenvalues --  -14.43588 -10.43931 -10.43793 -10.39263 -10.38894
 Alpha  occ. eigenvalues --  -10.36512 -10.35649 -10.35467 -10.35332 -10.34777
 Alpha  occ. eigenvalues --  -10.34661 -10.33969 -10.33765 -10.33706 -10.33242
 Alpha  occ. eigenvalues --  -10.32780 -10.32407 -10.32372 -10.32360 -10.32096
 Alpha  occ. eigenvalues --  -10.31930 -10.31674 -10.31667 -10.31648 -10.31510
 Alpha  occ. eigenvalues --  -10.31245 -10.31019 -10.30919 -10.30872 -10.30764
 Alpha  occ. eigenvalues --  -10.30246 -10.30176 -10.30057 -10.29981 -10.29974
 Alpha  occ. eigenvalues --  -10.29891 -10.29836 -10.29696 -10.29695 -10.29690
 Alpha  occ. eigenvalues --  -10.29344 -10.29318 -10.29060 -10.29058 -10.29053
 Alpha  occ. eigenvalues --  -10.28770 -10.28537 -10.28505 -10.28487 -10.28416
 Alpha  occ. eigenvalues --  -10.28295 -10.28259 -10.28246 -10.28208 -10.28002
 Alpha  occ. eigenvalues --  -10.27838  -3.21095  -1.94685  -1.94218  -1.94064
 Alpha  occ. eigenvalues --   -1.19187  -1.18393  -1.12209  -1.11151  -1.10040
 Alpha  occ. eigenvalues --   -1.09410  -1.07403  -1.06195  -1.05725  -1.04718
 Alpha  occ. eigenvalues --   -0.94527  -0.92498  -0.92267  -0.91928  -0.90959
 Alpha  occ. eigenvalues --   -0.90799  -0.90496  -0.89899  -0.89476  -0.89189
 Alpha  occ. eigenvalues --   -0.88720  -0.87656  -0.86411  -0.85865  -0.85616
 Alpha  occ. eigenvalues --   -0.84567  -0.84218  -0.83285  -0.82815  -0.82503
 Alpha  occ. eigenvalues --   -0.81887  -0.80667  -0.80214  -0.79239  -0.78296
 Alpha  occ. eigenvalues --   -0.77898  -0.77307  -0.77230  -0.76491  -0.76442
 Alpha  occ. eigenvalues --   -0.75540  -0.75068  -0.73398  -0.72349  -0.70926
 Alpha  occ. eigenvalues --   -0.70508  -0.70003  -0.69185  -0.68385  -0.67807
 Alpha  occ. eigenvalues --   -0.67420  -0.67238  -0.66682  -0.66387  -0.66083
 Alpha  occ. eigenvalues --   -0.65861  -0.65278  -0.64561  -0.64464  -0.62537
 Alpha  occ. eigenvalues --   -0.62455  -0.61733  -0.61120  -0.60821  -0.59943
 Alpha  occ. eigenvalues --   -0.59593  -0.58684  -0.58437  -0.57978  -0.57786
 Alpha  occ. eigenvalues --   -0.57430  -0.56993  -0.56829  -0.56574  -0.56303
 Alpha  occ. eigenvalues --   -0.55924  -0.55877  -0.55589  -0.55351  -0.54688
 Alpha  occ. eigenvalues --   -0.54563  -0.54516  -0.54312  -0.54117  -0.53951
 Alpha  occ. eigenvalues --   -0.53836  -0.53505  -0.53258  -0.53169  -0.52908
 Alpha  occ. eigenvalues --   -0.52481  -0.52267  -0.51920  -0.51745  -0.51631
 Alpha  occ. eigenvalues --   -0.51492  -0.51416  -0.51335  -0.51202  -0.50830
 Alpha  occ. eigenvalues --   -0.50655  -0.50217  -0.50056  -0.49797  -0.49463
 Alpha  occ. eigenvalues --   -0.49400  -0.49142  -0.48897  -0.48702  -0.48601
 Alpha  occ. eigenvalues --   -0.48420  -0.48255  -0.48034  -0.47944  -0.47662
 Alpha  occ. eigenvalues --   -0.47603  -0.47492  -0.47260  -0.47162  -0.47052
 Alpha  occ. eigenvalues --   -0.46896  -0.46811  -0.46642  -0.46227  -0.46019
 Alpha  occ. eigenvalues --   -0.45799  -0.45659  -0.45496  -0.45432  -0.45367
 Alpha  occ. eigenvalues --   -0.45181  -0.44994  -0.44611  -0.44406  -0.44212
 Alpha  occ. eigenvalues --   -0.43947  -0.43900  -0.43448  -0.43132  -0.43082
 Alpha  occ. eigenvalues --   -0.42924  -0.42870  -0.42519  -0.42228  -0.41905
 Alpha  occ. eigenvalues --   -0.41729  -0.41232  -0.41131  -0.40879  -0.40705
 Alpha  occ. eigenvalues --   -0.40565  -0.40248  -0.39857  -0.39676  -0.39671
 Alpha  occ. eigenvalues --   -0.39500  -0.39442  -0.38859  -0.38815  -0.38420
 Alpha  occ. eigenvalues --   -0.38058  -0.37681  -0.36891  -0.36684  -0.36488
 Alpha  occ. eigenvalues --   -0.36336  -0.35410  -0.35097  -0.33983  -0.33374
 Alpha  occ. eigenvalues --   -0.32822  -0.32482  -0.32377  -0.32024  -0.26326
 Alpha  occ. eigenvalues --   -0.23064
 Alpha virt. eigenvalues --   -0.07190   0.00002   0.02350   0.04388   0.05456
 Alpha virt. eigenvalues --    0.06514   0.06857   0.07556   0.08257   0.09725
 Alpha virt. eigenvalues --    0.10233   0.10583   0.11132   0.11863   0.12404

 Mulliken charges:
               1
     1  Mg   0.973153
     2  C    0.042331
     3  C   -0.091035
     4  C   -0.054351
     5  C   -0.079975
     6  N   -0.363248
     7  C   -0.017400
     8  C   -0.046383
     9  C   -0.140173
    10  C    0.060040
    11  C    0.018798
    12  C    0.025241
    13  C    0.027254
    14  C    0.192878
    15  O   -0.250462
    16  O   -0.359249
    17  N   -0.484282
    18  C    0.168530
    19  C   -0.142649
    20  C   -0.044006
    21  C    0.133007
    22  C    0.053895
    23  C    0.027543
    24  O   -0.288237
    25  C    0.028163
    26  N   -0.334824
    27  C    0.082778
    28  C   -0.087590
    29  C   -0.107190
    30  C    0.022151
    31  C    0.034091
    32  C   -0.037936
    33  C   -0.021747
    34  N   -0.381527
    35  C    0.123536
    36  C   -0.204370
    37  C    0.002260
    38  C    0.126335
    39  C    0.092774
    40  C    0.108793
    41  O   -0.204756
    42  C   -0.096204
    43  C    0.265840
    44  O   -0.256308
    45  O   -0.360995
    46  C    0.137813
    47  C    0.236143
    48  C   -0.079783
    49  C   -0.266807
    50  C    0.060547
    51  C    0.054464
    52  C   -0.053483
    53  C    0.007309
    54  C   -0.190715
    55  C    0.009975
    56  C    0.046790
    57  C   -0.052317
    58  C    0.048357
    59  C   -0.187327
    60  C   -0.011997
    61  C    0.044284
    62  C   -0.057286
    63  C    0.038864
    64  C   -0.233602
    65  C   -0.024055
    66  C    0.034360
    67  H   -0.004753
    68  H    0.028499
    69  H    0.001834
    70  H    0.041362
    71  H    0.040426
    72  H    0.055048
    73  H    0.034543
    74  H    0.030526
    75  H    0.029795
    76  H    0.043176
    77  H    0.073576
    78  H    0.048757
    79  H    0.032468
    80  H    0.053296
    81  H    0.037479
    82  H    0.052160
    83  H    0.045045
    84  H    0.066426
    85  H    0.032327
    86  H    0.028560
    87  H    0.019877
    88  H    0.050776
    89  H    0.041799
    90  H    0.021234
    91  H    0.034199
    92  H    0.044856
    93  H    0.036098
    94  H    0.033874
    95  H    0.036502
    96  H    0.062866
    97  H    0.061568
    98  H    0.055603
    99  H    0.066780
   100  H    0.042298
   101  H    0.049969
   102  H    0.041093
   103  H    0.053823
   104  H    0.016896
   105  H    0.045080
   106  H    0.031115
   107  H    0.029869
   108  H    0.013544
   109  H    0.029021
   110  H    0.030351
   111  H    0.031084
   112  H    0.005610
   113  H   -0.000045
   114  H    0.024568
   115  H    0.025117
   116  H    0.023579
   117  H    0.034895
   118  H    0.015890
   119  H    0.015918
   120  H    0.016521
   121  H    0.016715
   122  H    0.016415
   123  H    0.011227
   124  H    0.015738
   125  H    0.021711
   126  H    0.024620
   127  H    0.023763
   128  H    0.000174
   129  H    0.013519
   130  H    0.007250
   131  H    0.002454
   132  H    0.010883
   133  H    0.027704
   134  H    0.017882
   135  H    0.031872
   136  H    0.029989
   137  H    0.015576
   138  H    0.049160
   139  H    0.016762
   140  H    0.017779
 Sum of Mulliken charges =  -0.00000

 Dipole moment (field-independent basis, Debye):
    X=              3.6424    Y=              3.0299    Z=              0.4938  Tot=              4.7635
 Quadrupole moment (field-independent basis, Debye-Ang):
   XX=           -383.1928   YY=           -419.2063   ZZ=           -409.7565
   XY=              5.7291   XZ=             16.7698   YZ=              1.3630

 Normal termination of Gaussian 16 at Wed May  4 15:16:19 2022.
