 Gaussian 16, Revision A.03,
 Gaussian 16:  ES64L-G16RevA.03 25-Dec-2016

 --------------------
 #p ZINDO=(nstates=5)
 --------------------

 ------------------------------
 step_1851_chromophore_13 ZINDO
 ------------------------------
 Symbolic Z-matrix:
 Charge =  0 Multiplicity = 1

                         Standard orientation:
 ---------------------------------------------------------------------
 Center     Atomic      Atomic             Coordinates (Angstroms)
 Number     Number       Type             X           Y           Z
 ---------------------------------------------------------------------
      1         12           0       -5.870171    0.450667   -0.211522
      2          6           0       -3.608572   -2.192830   -0.135445
      3          6           0       -3.216536    2.574831    0.465321
      4          6           0       -8.071605    2.767185    0.514839
      5          6           0       -8.441636   -2.017388   -0.554668
      6          7           0       -3.737193    0.215061    0.189771
      7          6           0       -3.004562   -0.967060    0.058300
      8          6           0       -1.547181   -0.808772    0.260812
      9          6           0       -1.417062    0.710399    0.601458
     10          6           0       -2.900854    1.245258    0.413339
     11          6           0       -0.996229    1.041500    2.056844
     12          6           0       -0.765457   -1.205281   -1.011101
     13          6           0        0.472137   -2.043005   -0.870511
     14          6           0        1.746482   -1.473349   -1.614129
     15          8           0        1.860302   -1.179058   -2.785910
     16          8           0        2.758428   -1.440449   -0.667355
     17          7           0       -5.700139    2.418549    0.224524
     18          6           0       -4.527722    3.166347    0.476259
     19          6           0       -4.887207    4.524152    0.730936
     20          6           0       -6.288951    4.602520    0.636420
     21          6           0       -6.738575    3.223447    0.488470
     22          6           0       -3.812176    5.491748    1.116628
     23          6           0       -7.152533    5.832426    0.679769
     24          8           0       -8.417709    5.712140    0.691477
     25          6           0       -6.633671    7.234969    0.680558
     26          7           0       -7.981398    0.353674    0.024997
     27          6           0       -8.636948    1.503811    0.325753
     28          6           0      -10.135582    1.254458    0.622848
     29          6           0      -10.257457   -0.175782   -0.090099
     30          6           0       -8.810018   -0.673043   -0.202355
     31          6           0      -10.591560    1.068005    2.048874
     32          6           0      -10.824632   -0.068123   -1.503785
     33          6           0       -9.918907    0.296296   -2.697164
     34          7           0       -6.059184   -1.709066   -0.313294
     35          6           0       -7.127646   -2.532648   -0.569854
     36          6           0       -6.634333   -3.857010   -0.789578
     37          6           0       -5.325817   -3.809670   -0.509376
     38          6           0       -4.978230   -2.472669   -0.327852
     39          6           0       -7.480948   -5.013870   -1.261243
     40          6           0       -4.131446   -4.625076   -0.568275
     41          8           0       -4.018241   -5.821770   -0.817254
     42          6           0       -2.964607   -3.636912   -0.239350
     43          6           0       -2.417881   -4.206048    1.081798
     44          8           0       -3.055314   -4.189346    2.140590
     45          8           0       -1.126670   -4.693515    0.914643
     46          6           0       -0.487708   -4.911379    2.215423
     47          6           0        4.013374   -1.085979   -1.357946
     48          6           0        5.065991   -1.010198   -0.216940
     49          6           0        6.331938   -1.449044   -0.186149
     50          6           0        6.959060   -2.430596   -1.184724
     51          6           0        7.211967   -0.986913    1.006626
     52          6           0        8.104913    0.260912    0.814030
     53          6           0        7.840504    0.865496   -0.570959
     54          6           0        8.591163    2.361308   -0.674389
     55          6           0        7.561075    3.476599   -0.465076
     56          6           0        9.214026    2.573412   -2.040611
     57          6           0       10.663772    2.993738   -1.824981
     58          6           0       11.681755    1.920416   -2.168372
     59          6           0       13.041550    1.993538   -1.412163
     60          6           0       14.233579    2.332048   -2.364909
     61          6           0       13.472606    0.790037   -0.629682
     62          6           0       13.030310    0.754185    0.807576
     63          6           0       13.955033   -0.023889    1.826895
     64          6           0       13.426292   -1.400663    2.163103
     65          6           0       12.233532   -1.308870    3.131253
     66          6           0       14.568638   -2.261972    2.808316
     67          1           0       -2.306908    3.165285    0.587926
     68          1           0       -8.787705    3.571115    0.695441
     69          1           0       -9.282146   -2.687394   -0.749212
     70          1           0       -1.233016   -1.391752    1.126907
     71          1           0       -0.671921    1.224046   -0.007003
     72          1           0       -1.716749    1.617808    2.636707
     73          1           0       -0.064692    1.598813    1.966431
     74          1           0       -0.805279    0.103441    2.578574
     75          1           0       -0.502624   -0.241947   -1.450009
     76          1           0       -1.417739   -1.614904   -1.782288
     77          1           0        0.307284   -3.010923   -1.345757
     78          1           0        0.730429   -2.140036    0.183521
     79          1           0       -4.146671    6.081806    1.970064
     80          1           0       -3.493411    6.282173    0.436264
     81          1           0       -2.968310    4.930906    1.518338
     82          1           0       -6.085059    7.282112   -0.259455
     83          1           0       -5.908712    7.340994    1.487362
     84          1           0       -7.450222    7.955658    0.711102
     85          1           0      -10.940608    1.900869    0.274368
     86          1           0      -10.837523   -0.918253    0.458936
     87          1           0      -10.114977    0.100036    2.202425
     88          1           0      -11.680730    1.035403    2.018446
     89          1           0      -10.096952    1.642824    2.831866
     90          1           0      -11.511576    0.775311   -1.425317
     91          1           0      -11.316923   -0.972969   -1.861422
     92          1           0      -10.590981    0.741565   -3.430241
     93          1           0       -9.384423   -0.601454   -3.006229
     94          1           0       -9.188436    1.048666   -2.400838
     95          1           0       -8.487098   -4.833431   -0.881872
     96          1           0       -7.031653   -5.914565   -0.841768
     97          1           0       -7.467645   -5.076459   -2.348829
     98          1           0       -2.160394   -3.875946   -0.936189
     99          1           0       -1.007300   -5.626974    2.852518
    100          1           0       -0.323988   -4.013794    2.813425
    101          1           0        0.525098   -5.264150    2.020450
    102          1           0        3.844937   -0.067898   -1.708680
    103          1           0        4.360794   -1.610304   -2.247202
    104          1           0        4.847045   -0.351808    0.623967
    105          1           0        7.220474   -3.401529   -0.764059
    106          1           0        7.931752   -2.015655   -1.449694
    107          1           0        6.265920   -2.609490   -2.006038
    108          1           0        7.900446   -1.775427    1.311264
    109          1           0        6.508265   -0.839893    1.825458
    110          1           0        9.131171   -0.101562    0.881985
    111          1           0        8.041110    1.039281    1.573779
    112          1           0        6.779177    0.997920   -0.781856
    113          1           0        8.117636    0.190132   -1.380144
    114          1           0        9.291372    2.351602    0.160521
    115          1           0        7.899314    4.433152   -0.865294
    116          1           0        7.449319    3.663528    0.603127
    117          1           0        6.652145    3.178777   -0.987886
    118          1           0        8.656190    3.336080   -2.583201
    119          1           0        9.163806    1.637569   -2.597932
    120          1           0       10.925729    3.300961   -0.812537
    121          1           0       10.771073    3.871875   -2.462817
    122          1           0       11.937671    2.114286   -3.210040
    123          1           0       11.246951    0.937485   -1.991189
    124          1           0       12.902372    2.868050   -0.776689
    125          1           0       14.427424    3.402475   -2.427801
    126          1           0       14.070883    2.024720   -3.397758
    127          1           0       15.195600    1.910909   -2.072068
    128          1           0       14.562216    0.751639   -0.628216
    129          1           0       13.140832   -0.158642   -1.051936
    130          1           0       11.964318    0.540500    0.725876
    131          1           0       13.027732    1.779864    1.175974
    132          1           0       13.806405    0.566481    2.730721
    133          1           0       15.021648   -0.016878    1.603368
    134          1           0       12.951383   -1.893884    1.314822
    135          1           0       12.461861   -0.811324    4.073818
    136          1           0       11.778898   -2.282269    3.313218
    137          1           0       11.474999   -0.755740    2.577030
    138          1           0       14.526633   -3.258314    2.366976
    139          1           0       14.346552   -2.206865    3.873306
    140          1           0       15.485895   -1.679250    2.725349
 ---------------------------------------------------------------------

 SCF Done:  E(RZINDO/S) =  -474.475392515     A.U. after   19 cycles

 Excitation energies and oscillator strengths:

 Excited State   1:      Singlet-A      1.2631 eV  981.61 nm  f=0.6204  <S**2>=0.000
     175 ->178         0.17787
     176 ->177         0.66641
 This state for optimization and/or second-order correction.
 Total Energy, E(CIS/TDA) =  -474.428975456
 Copying the excited state density for this state as the 1-particle RhoCI density.

 Excited State   2:      Singlet-A      1.9696 eV  629.50 nm  f=0.0284  <S**2>=0.000
     175 ->177         0.52871
     176 ->178        -0.43980

 Excited State   3:      Singlet-A      2.8712 eV  431.82 nm  f=0.0027  <S**2>=0.000
     171 ->177         0.27282
     171 ->178        -0.15636
     171 ->179         0.25346
     171 ->180         0.37905
     171 ->183        -0.18860
     171 ->186         0.17162
     171 ->188         0.18427

 Excited State   4:      Singlet-A      2.9594 eV  418.95 nm  f=0.0119  <S**2>=0.000
     168 ->177        -0.24745
     168 ->178         0.10425
     168 ->179         0.32071
     168 ->183         0.14381
     168 ->186         0.13957
     176 ->179         0.38905
     176 ->180         0.13477

 Excited State   5:      Singlet-A      2.9681 eV  417.72 nm  f=0.4274  <S**2>=0.000
     168 ->177         0.13519
     168 ->179        -0.17232
     175 ->177        -0.27229
     176 ->178        -0.31503
     176 ->179         0.37554
     176 ->180         0.24034

 The electronic state is 1-A.
 Alpha  occ. eigenvalues --   -1.87437  -1.82578  -1.81100  -1.74061  -1.72437
 Alpha  occ. eigenvalues --   -1.72045  -1.66531  -1.61708  -1.59206  -1.56998
 Alpha  occ. eigenvalues --   -1.56017  -1.51948  -1.49666  -1.48606  -1.46344
 Alpha  occ. eigenvalues --   -1.45020  -1.43842  -1.41069  -1.39224  -1.38259
 Alpha  occ. eigenvalues --   -1.37072  -1.34833  -1.32870  -1.31595  -1.30033
 Alpha  occ. eigenvalues --   -1.27916  -1.24823  -1.22053  -1.20674  -1.18558
 Alpha  occ. eigenvalues --   -1.17607  -1.16141  -1.15682  -1.14252  -1.12599
 Alpha  occ. eigenvalues --   -1.12375  -1.11307  -1.10942  -1.05458  -1.04478
 Alpha  occ. eigenvalues --   -1.03817  -1.01917  -0.98348  -0.97750  -0.95968
 Alpha  occ. eigenvalues --   -0.95693  -0.94584  -0.93443  -0.93356  -0.92676
 Alpha  occ. eigenvalues --   -0.90783  -0.89907  -0.88707  -0.88112  -0.86965
 Alpha  occ. eigenvalues --   -0.85569  -0.84684  -0.83901  -0.81870  -0.81550
 Alpha  occ. eigenvalues --   -0.79798  -0.78532  -0.77423  -0.77033  -0.76316
 Alpha  occ. eigenvalues --   -0.75950  -0.75293  -0.74974  -0.74498  -0.74324
 Alpha  occ. eigenvalues --   -0.73947  -0.73218  -0.72466  -0.71115  -0.70793
 Alpha  occ. eigenvalues --   -0.70489  -0.70101  -0.69441  -0.68418  -0.68204
 Alpha  occ. eigenvalues --   -0.67372  -0.67101  -0.66557  -0.65858  -0.65673
 Alpha  occ. eigenvalues --   -0.64693  -0.64520  -0.64369  -0.64057  -0.63843
 Alpha  occ. eigenvalues --   -0.63170  -0.62930  -0.62691  -0.61746  -0.61299
 Alpha  occ. eigenvalues --   -0.61165  -0.60866  -0.60208  -0.60124  -0.59896
 Alpha  occ. eigenvalues --   -0.59817  -0.59646  -0.58609  -0.58398  -0.58116
 Alpha  occ. eigenvalues --   -0.57784  -0.57761  -0.57381  -0.57069  -0.56734
 Alpha  occ. eigenvalues --   -0.56448  -0.56196  -0.55174  -0.54727  -0.54336
 Alpha  occ. eigenvalues --   -0.54026  -0.53944  -0.53664  -0.53091  -0.52967
 Alpha  occ. eigenvalues --   -0.52961  -0.51907  -0.51823  -0.51709  -0.51451
 Alpha  occ. eigenvalues --   -0.51371  -0.50912  -0.50821  -0.50333  -0.50191
 Alpha  occ. eigenvalues --   -0.49822  -0.49575  -0.49387  -0.49168  -0.49073
 Alpha  occ. eigenvalues --   -0.48960  -0.48672  -0.48466  -0.48233  -0.47744
 Alpha  occ. eigenvalues --   -0.47609  -0.47452  -0.47197  -0.46618  -0.46424
 Alpha  occ. eigenvalues --   -0.45889  -0.45712  -0.45575  -0.45452  -0.44897
 Alpha  occ. eigenvalues --   -0.44789  -0.44613  -0.44387  -0.43927  -0.43675
 Alpha  occ. eigenvalues --   -0.43321  -0.43098  -0.42817  -0.42730  -0.42372
 Alpha  occ. eigenvalues --   -0.42360  -0.42067  -0.40472  -0.39688  -0.39359
 Alpha  occ. eigenvalues --   -0.38545  -0.37132  -0.35757  -0.34728  -0.34253
 Alpha  occ. eigenvalues --   -0.34111  -0.32711  -0.32415  -0.32189  -0.27003
 Alpha  occ. eigenvalues --   -0.21661
 Alpha virt. eigenvalues --   -0.08467  -0.02002  -0.00955   0.01165   0.01522
 Alpha virt. eigenvalues --    0.01923   0.02406   0.03279   0.04710   0.04757
 Alpha virt. eigenvalues --    0.06349   0.06639   0.07763   0.08109   0.08368

 Mulliken charges:
               1
     1  Mg   0.429189
     2  C   -0.069696
     3  C   -0.080930
     4  C   -0.052203
     5  C   -0.067462
     6  N   -0.297212
     7  C    0.158139
     8  C    0.011211
     9  C   -0.009631
    10  C    0.116165
    11  C   -0.054213
    12  C   -0.021945
    13  C    0.007554
    14  C    0.459068
    15  O   -0.502738
    16  O   -0.262736
    17  N   -0.316683
    18  C    0.072488
    19  C   -0.004914
    20  C   -0.046028
    21  C    0.136275
    22  C   -0.045951
    23  C    0.319389
    24  O   -0.564229
    25  C   -0.023611
    26  N   -0.253392
    27  C    0.111439
    28  C   -0.000791
    29  C    0.002124
    30  C    0.157796
    31  C   -0.059456
    32  C   -0.033006
    33  C   -0.056473
    34  N   -0.334122
    35  C    0.111768
    36  C    0.064505
    37  C   -0.033077
    38  C    0.149284
    39  C   -0.040903
    40  C    0.335359
    41  O   -0.517050
    42  C    0.041600
    43  C    0.480970
    44  O   -0.517155
    45  O   -0.261405
    46  C    0.077075
    47  C    0.101028
    48  C   -0.100374
    49  C   -0.001754
    50  C   -0.045667
    51  C   -0.024333
    52  C   -0.025808
    53  C   -0.053322
    54  C   -0.028018
    55  C   -0.055340
    56  C   -0.028247
    57  C   -0.034702
    58  C   -0.035654
    59  C   -0.010278
    60  C   -0.063433
    61  C   -0.024688
    62  C   -0.045850
    63  C   -0.029089
    64  C   -0.014722
    65  C   -0.057465
    66  C   -0.069231
    67  H    0.023970
    68  H    0.049953
    69  H    0.030765
    70  H    0.039407
    71  H    0.033376
    72  H    0.031616
    73  H    0.016130
    74  H    0.017764
    75  H    0.024426
    76  H    0.026014
    77  H    0.046866
    78  H    0.038185
    79  H    0.013736
    80  H    0.033883
    81  H    0.024515
    82  H    0.036015
    83  H    0.037387
    84  H    0.046788
    85  H    0.037803
    86  H    0.027570
    87  H    0.013325
    88  H    0.030954
    89  H    0.031936
    90  H    0.015429
    91  H    0.018075
    92  H    0.022040
    93  H    0.023534
    94  H    0.023898
    95  H    0.027218
    96  H    0.039674
    97  H    0.040882
    98  H    0.054883
    99  H    0.053653
   100  H    0.037130
   101  H    0.023304
   102  H    0.040327
   103  H    0.064302
   104  H    0.027996
   105  H    0.028026
   106  H    0.029283
   107  H    0.027507
   108  H    0.014564
   109  H    0.020117
   110  H    0.015927
   111  H    0.027031
   112  H    0.021859
   113  H    0.023293
   114  H    0.026575
   115  H    0.013581
   116  H    0.012335
   117  H    0.025560
   118  H    0.021507
   119  H    0.018260
   120  H    0.022583
   121  H    0.010563
   122  H    0.020381
   123  H    0.023216
   124  H    0.021397
   125  H    0.009394
   126  H    0.016272
   127  H    0.017130
   128  H    0.013092
   129  H    0.015419
   130  H    0.024610
   131  H    0.003623
   132  H    0.012417
   133  H    0.030906
   134  H    0.020337
   135  H    0.023925
   136  H    0.012787
   137  H    0.008188
   138  H    0.031890
   139  H    0.020043
   140  H    0.024236
 Sum of Mulliken charges =   0.00000

 Dipole moment (field-independent basis, Debye):
    X=              4.2085    Y=              1.4792    Z=             -0.0240  Tot=              4.4610
 N-N= 4.304372743894D+03 E-N= 0.000000000000D+00  KE=-9.282958049625D+03
 Leave Link  601 at Wed May  4 15:29:02 2022, MaxMem=  6710886400 cpu:               0.8 elap:               0.1
 (Enter /sw/apps/gaussian-16.0/g16/l9999.exe)
 1\1\GINC-BP1-COMPUTE123\SP\RZINDO CIS\STO-3G\C55H74Mg1N4O6\OF15641\04-
 May-2022\0\\#p ZINDO=(nstates=5)\\step_1851_chromophore_13 ZINDO\\0,1\
 Mg,0,46.964,24.899,28.468\C,0,47.658,27.195,30.989\C,0,45.752,22.767,3
 0.917\C,0,47.076,22.489,26.25\C,0,48.595,27.165,26.226\N,0,46.806,24.9
 42,30.645\C,0,47.058,26.046,31.463\C,0,46.737,25.834,32.892\C,0,46.252
 ,24.349,32.912\C,0,46.259,23.952,31.374\C,0,47.181,23.346,33.644\C,0,4
 5.651,26.824,33.368\C,0,45.82,27.503,34.696\C,0,44.568,27.401,35.657\O

 Normal termination of Gaussian 16 at Wed May  4 15:29:02 2022.
