 Gaussian 16, Revision A.03,
 Gaussian 16:  ES64L-G16RevA.03 25-Dec-2016

 ------------------------------
 #p blyp/Def2SVP td=(nstates=5)
 ------------------------------

 --------------------------------------------------
 step_951_chromophore_22 TDDFT with blyp functional
 --------------------------------------------------
 Symbolic Z-matrix:
 Charge =  0 Multiplicity = 1

                         Standard orientation:
 ---------------------------------------------------------------------
 Center     Atomic      Atomic             Coordinates (Angstroms)
 Number     Number       Type             X           Y           Z
 ---------------------------------------------------------------------
      1         12           0       -6.101671    0.524878    0.038839
      2          6           0       -3.936054   -2.091380    0.335199
      3          6           0       -3.642062    2.626747    1.587743
      4          6           0       -8.120253    3.084781   -0.280651
      5          6           0       -8.660348   -1.742201   -0.620949
      6          7           0       -3.943136    0.272842    0.775405
      7          6           0       -3.239918   -0.896822    0.758457
      8          6           0       -1.856426   -0.711461    1.468404
      9          6           0       -2.009025    0.670147    2.214832
     10          6           0       -3.273357    1.267019    1.516628
     11          6           0       -2.081104    0.673346    3.709370
     12          6           0       -0.640886   -0.816404    0.471515
     13          6           0        0.354083   -2.015390    0.692237
     14          6           0        1.669812   -1.982916   -0.086687
     15          8           0        1.759230   -1.792922   -1.302700
     16          8           0        2.691475   -2.406037    0.721656
     17          7           0       -5.900516    2.535882    0.514701
     18          6           0       -4.853729    3.147398    1.210970
     19          6           0       -5.175758    4.603799    1.274818
     20          6           0       -6.368716    4.819828    0.493129
     21          6           0       -6.855733    3.455714    0.281860
     22          6           0       -4.082185    5.623033    1.785562
     23          6           0       -7.101489    6.090426    0.112909
     24          8           0       -8.092251    6.062454   -0.611465
     25          6           0       -6.698325    7.412988    0.388615
     26          7           0       -8.132143    0.604180   -0.419362
     27          6           0       -8.673485    1.829043   -0.688532
     28          6           0      -10.025349    1.673930   -1.324812
     29          6           0      -10.383320    0.136651   -1.079454
     30          6           0       -9.007112   -0.397267   -0.705365
     31          6           0      -11.131426    2.696545   -0.963715
     32          6           0      -11.165340   -0.647791   -2.185684
     33          6           0      -12.453641   -1.270286   -1.917399
     34          7           0       -6.294753   -1.503526   -0.167337
     35          6           0       -7.425241   -2.233950   -0.472346
     36          6           0       -7.050078   -3.574391   -0.561075
     37          6           0       -5.649236   -3.611761   -0.272808
     38          6           0       -5.297445   -2.310200   -0.117956
     39          6           0       -8.103829   -4.650708   -0.672263
     40          6           0       -4.493128   -4.418108   -0.040297
     41          8           0       -4.416410   -5.621942   -0.025395
     42          6           0       -3.357036   -3.481053    0.329406
     43          6           0       -2.364088   -3.653930   -0.661566
     44          8           0       -2.086439   -3.018514   -1.706551
     45          8           0       -1.816497   -4.857544   -0.492868
     46          6           0       -0.712229   -5.180934   -1.489979
     47          6           0        4.042075   -2.335628    0.191659
     48          6           0        4.980331   -1.625076    1.106223
     49          6           0        6.361044   -1.698790    1.096960
     50          6           0        7.216486   -2.413937   -0.000912
     51          6           0        7.176997   -0.901276    2.076097
     52          6           0        8.516467   -1.588204    2.569832
     53          6           0        9.752437   -0.738717    2.215040
     54          6           0       10.634591   -1.546678    1.302142
     55          6           0       11.463339   -2.693375    2.068600
     56          6           0       11.571791   -0.677853    0.476019
     57          6           0       10.995299    0.165819   -0.601850
     58          6           0       10.837215    1.663760   -0.388813
     59          6           0       11.110131    2.532863   -1.654367
     60          6           0        9.865880    3.373120   -1.974826
     61          6           0       12.282226    3.537797   -1.424562
     62          6           0       13.545199    3.053402   -2.152496
     63          6           0       14.609340    2.539310   -1.127650
     64          6           0       15.549423    1.435581   -1.639893
     65          6           0       15.342599    0.155858   -0.853080
     66          6           0       16.959747    1.926200   -1.934493
     67          1           0       -2.996505    3.304450    2.150343
     68          1           0       -8.744923    3.953706   -0.499709
     69          1           0       -9.549065   -2.342721   -0.824405
     70          1           0       -1.777257   -1.551613    2.158661
     71          1           0       -1.206751    1.363699    1.963566
     72          1           0       -1.176455    0.758687    4.310802
     73          1           0       -2.574367   -0.256438    3.992726
     74          1           0       -2.748447    1.440556    4.103006
     75          1           0       -0.004051    0.061936    0.577087
     76          1           0       -1.061246   -0.917261   -0.528655
     77          1           0       -0.194257   -2.893370    0.352912
     78          1           0        0.724854   -2.112369    1.713071
     79          1           0       -4.139603    6.481404    1.116984
     80          1           0       -3.039987    5.306670    1.728828
     81          1           0       -4.223588    6.104277    2.753422
     82          1           0       -6.596666    7.415664    1.473835
     83          1           0       -7.359753    8.247563    0.155596
     84          1           0       -5.699284    7.541740   -0.025518
     85          1           0       -9.760141    1.749345   -2.378502
     86          1           0      -10.963457    0.015455   -0.164100
     87          1           0      -10.972999    3.314187   -0.079701
     88          1           0      -12.122339    2.244334   -0.916103
     89          1           0      -11.210094    3.336575   -1.841801
     90          1           0      -10.531117   -1.415698   -2.630148
     91          1           0      -11.373793   -0.060853   -3.081150
     92          1           0      -13.241213   -1.002040   -2.620570
     93          1           0      -12.732405   -1.089807   -0.878807
     94          1           0      -12.331611   -2.351319   -1.985430
     95          1           0       -7.690921   -5.472158   -0.086804
     96          1           0       -8.337680   -4.894771   -1.708857
     97          1           0       -9.022710   -4.446647   -0.122518
     98          1           0       -3.001942   -3.773929    1.317676
     99          1           0        0.016483   -4.394166   -1.296349
    100          1           0       -1.005447   -5.225181   -2.538576
    101          1           0       -0.220064   -6.069254   -1.095150
    102          1           0        3.986819   -1.673731   -0.672294
    103          1           0        4.339296   -3.380525    0.102643
    104          1           0        4.478974   -1.076378    1.904253
    105          1           0        8.071595   -1.836745   -0.352610
    106          1           0        6.632958   -2.685767   -0.879899
    107          1           0        7.608557   -3.382450    0.306882
    108          1           0        6.521920   -0.796771    2.940429
    109          1           0        7.365634    0.077752    1.635291
    110          1           0        8.744161   -2.620405    2.304141
    111          1           0        8.513758   -1.729626    3.650552
    112          1           0       10.219621   -0.665904    3.197240
    113          1           0        9.633307    0.234104    1.737715
    114          1           0       10.024653   -2.069570    0.565255
    115          1           0       11.495841   -2.481917    3.137372
    116          1           0       12.493395   -2.811415    1.731351
    117          1           0       10.953968   -3.648619    1.941561
    118          1           0       12.242631   -1.336302   -0.078031
    119          1           0       12.090513   -0.009408    1.163419
    120          1           0        9.972061   -0.167387   -0.773906
    121          1           0       11.417147    0.015465   -1.595192
    122          1           0       11.460342    2.058900    0.413652
    123          1           0        9.792165    1.841258   -0.137969
    124          1           0       11.259536    1.874941   -2.510278
    125          1           0        9.527663    3.870124   -1.065839
    126          1           0        9.041016    2.726331   -2.272749
    127          1           0        9.980464    4.244113   -2.618412
    128          1           0       12.492315    3.708441   -0.368525
    129          1           0       11.951944    4.478481   -1.863819
    130          1           0       13.916378    3.986741   -2.575498
    131          1           0       13.411043    2.220474   -2.842107
    132          1           0       14.147196    2.360807   -0.157189
    133          1           0       15.252980    3.398054   -0.933971
    134          1           0       15.196860    0.996008   -2.572232
    135          1           0       14.721705    0.282994    0.032895
    136          1           0       16.261596   -0.359852   -0.572632
    137          1           0       14.753407   -0.559040   -1.427228
    138          1           0       17.231301    2.907641   -1.547592
    139          1           0       16.988863    2.015838   -3.020790
    140          1           0       17.781286    1.302850   -1.581350
 ---------------------------------------------------------------------

 SCF Done:  E(RB-LYP) =  -3007.30161684     A.U. after   21 cycles

 Excitation energies and oscillator strengths:

 Excited State   1:      Singlet-A      1.7968 eV  690.04 nm  f=0.2746  <S**2>=0.000
     244 -> 247        0.14279
     245 -> 248        0.19225
     246 -> 247        0.66989
     246 <- 247       -0.13853
 This state for optimization and/or second-order correction.
 Total Energy, E(TD-HF/TD-DFT) =  -3007.23558707
 Copying the excited state density for this state as the 1-particle RhoCI density.

 Excited State   2:      Singlet-A      1.8111 eV  684.59 nm  f=0.0144  <S**2>=0.000
     244 -> 247        0.63200
     245 -> 247       -0.26567
     246 -> 247       -0.14481

 Excited State   3:      Singlet-A      1.9248 eV  644.15 nm  f=0.0110  <S**2>=0.000
     243 -> 247        0.61195
     244 -> 247        0.18466
     245 -> 247        0.28433

 Excited State   4:      Singlet-A      2.0243 eV  612.49 nm  f=0.0621  <S**2>=0.000
     243 -> 247       -0.34379
     244 -> 247        0.20516
     245 -> 247        0.52463
     246 -> 248       -0.22410

 Excited State   5:      Singlet-A      2.2380 eV  554.00 nm  f=0.0000  <S**2>=0.000
     242 -> 247        0.70708

 The electronic state is 1-A.
 Alpha  occ. eigenvalues --  -46.26625 -18.82161 -18.80820 -18.76487 -18.75085
 Alpha  occ. eigenvalues --  -18.74978 -18.74892 -14.03299 -14.02693 -14.01295
 Alpha  occ. eigenvalues --  -13.99849 -10.03950 -10.02379  -9.99550  -9.98923
 Alpha  occ. eigenvalues --   -9.97770  -9.97046  -9.96942  -9.96842  -9.96602
 Alpha  occ. eigenvalues --   -9.96122  -9.95971  -9.95765  -9.95118  -9.94791
 Alpha  occ. eigenvalues --   -9.94451  -9.94250  -9.94087  -9.93947  -9.93809
 Alpha  occ. eigenvalues --   -9.93800  -9.93680  -9.93569  -9.93522  -9.93249
 Alpha  occ. eigenvalues --   -9.93205  -9.93072  -9.92924  -9.92811  -9.92449
 Alpha  occ. eigenvalues --   -9.92414  -9.92342  -9.92283  -9.92124  -9.92103
 Alpha  occ. eigenvalues --   -9.91969  -9.91937  -9.91856  -9.91824  -9.91808
 Alpha  occ. eigenvalues --   -9.91717  -9.91601  -9.91562  -9.91374  -9.91233
 Alpha  occ. eigenvalues --   -9.91010  -9.90824  -9.90742  -9.90721  -9.90634
 Alpha  occ. eigenvalues --   -9.90632  -9.90528  -9.90506  -9.90469  -9.90323
 Alpha  occ. eigenvalues --   -9.90250  -2.91305  -1.71745  -1.71195  -1.71000
 Alpha  occ. eigenvalues --   -0.97736  -0.97301  -0.91821  -0.91760  -0.89428
 Alpha  occ. eigenvalues --   -0.87850  -0.86653  -0.85979  -0.85265  -0.84219
 Alpha  occ. eigenvalues --   -0.76377  -0.74030  -0.72969  -0.72576  -0.72314
 Alpha  occ. eigenvalues --   -0.72041  -0.71860  -0.71399  -0.71155  -0.70204
 Alpha  occ. eigenvalues --   -0.69794  -0.69456  -0.68448  -0.68383  -0.67312
 Alpha  occ. eigenvalues --   -0.66846  -0.66619  -0.65671  -0.65142  -0.64572
 Alpha  occ. eigenvalues --   -0.63843  -0.62753  -0.62510  -0.62128  -0.60914
 Alpha  occ. eigenvalues --   -0.60684  -0.60592  -0.60137  -0.59626  -0.58682
 Alpha  occ. eigenvalues --   -0.58191  -0.57742  -0.56979  -0.55460  -0.54506
 Alpha  occ. eigenvalues --   -0.54218  -0.53685  -0.52889  -0.52371  -0.51726
 Alpha  occ. eigenvalues --   -0.51146  -0.50707  -0.50702  -0.50343  -0.50154
 Alpha  occ. eigenvalues --   -0.49200  -0.48992  -0.48965  -0.47797  -0.46885
 Alpha  occ. eigenvalues --   -0.46708  -0.46082  -0.45545  -0.44943  -0.44813
 Alpha  occ. eigenvalues --   -0.44231  -0.43768  -0.43414  -0.43166  -0.42405
 Alpha  occ. eigenvalues --   -0.42141  -0.41600  -0.41383  -0.41290  -0.41066
 Alpha  occ. eigenvalues --   -0.40957  -0.40690  -0.40566  -0.40438  -0.40023
 Alpha  occ. eigenvalues --   -0.39938  -0.39795  -0.39645  -0.39407  -0.39091
 Alpha  occ. eigenvalues --   -0.39002  -0.38879  -0.38752  -0.38393  -0.38315
 Alpha  occ. eigenvalues --   -0.37861  -0.37801  -0.37707  -0.37555  -0.37474
 Alpha  occ. eigenvalues --   -0.37112  -0.36929  -0.36634  -0.36531  -0.36309
 Alpha  occ. eigenvalues --   -0.36183  -0.36119  -0.35956  -0.35691  -0.35514
 Alpha  occ. eigenvalues --   -0.35400  -0.35206  -0.35136  -0.35099  -0.34997
 Alpha  occ. eigenvalues --   -0.34673  -0.34308  -0.34200  -0.34149  -0.33829
 Alpha  occ. eigenvalues --   -0.33729  -0.33445  -0.33191  -0.33087  -0.32826
 Alpha  occ. eigenvalues --   -0.32781  -0.32661  -0.32462  -0.32346  -0.32264
 Alpha  occ. eigenvalues --   -0.32024  -0.31947  -0.31649  -0.31547  -0.31499
 Alpha  occ. eigenvalues --   -0.31183  -0.30894  -0.30648  -0.30596  -0.30475
 Alpha  occ. eigenvalues --   -0.30219  -0.30094  -0.29896  -0.29740  -0.29657
 Alpha  occ. eigenvalues --   -0.29462  -0.29407  -0.29123  -0.29049  -0.28888
 Alpha  occ. eigenvalues --   -0.28727  -0.28706  -0.28182  -0.28136  -0.27835
 Alpha  occ. eigenvalues --   -0.27439  -0.27385  -0.27000  -0.26423  -0.26152
 Alpha  occ. eigenvalues --   -0.26089  -0.26050  -0.25465  -0.25421  -0.24942
 Alpha  occ. eigenvalues --   -0.24589  -0.24332  -0.24152  -0.23836  -0.23278
 Alpha  occ. eigenvalues --   -0.23253  -0.21664  -0.21463  -0.20812  -0.20338
 Alpha  occ. eigenvalues --   -0.20258  -0.19681  -0.18493  -0.18077  -0.17011
 Alpha  occ. eigenvalues --   -0.15797
 Alpha virt. eigenvalues --   -0.11457  -0.06909  -0.06239  -0.04731  -0.03348
 Alpha virt. eigenvalues --   -0.02259  -0.01607  -0.01549  -0.00969  -0.00102
 Alpha virt. eigenvalues --    0.01551   0.01694   0.01714   0.02329   0.02645

 Mulliken charges:
               1
     1  Mg   0.702181
     2  C    0.011208
     3  C   -0.063044
     4  C   -0.053505
     5  C   -0.121614
     6  N   -0.216243
     7  C   -0.056091
     8  C    0.037152
     9  C    0.039360
    10  C    0.002381
    11  C    0.137177
    12  C    0.121086
    13  C    0.098514
    14  C    0.069725
    15  O   -0.199674
    16  O   -0.269637
    17  N   -0.289731
    18  C    0.148491
    19  C   -0.125074
    20  C    0.034146
    21  C    0.094091
    22  C    0.125025
    23  C   -0.061025
    24  O   -0.184671
    25  C    0.164435
    26  N   -0.238953
    27  C    0.010547
    28  C    0.063256
    29  C    0.069732
    30  C   -0.061814
    31  C    0.154255
    32  C    0.072827
    33  C    0.079390
    34  N   -0.231845
    35  C    0.231521
    36  C   -0.204954
    37  C    0.123395
    38  C    0.055028
    39  C    0.174484
    40  C   -0.137885
    41  O   -0.099068
    42  C    0.101890
    43  C    0.089665
    44  O   -0.222253
    45  O   -0.261888
    46  C    0.235936
    47  C    0.329870
    48  C   -0.130622
    49  C   -0.145336
    50  C    0.123292
    51  C    0.165082
    52  C    0.069761
    53  C    0.117852
    54  C   -0.100683
    55  C    0.093538
    56  C    0.131990
    57  C    0.063304
    58  C    0.103022
    59  C   -0.077228
    60  C    0.092140
    61  C    0.115316
    62  C    0.086870
    63  C    0.081733
    64  C   -0.080045
    65  C    0.089464
    66  C    0.114658
    67  H   -0.053229
    68  H   -0.046178
    69  H   -0.072657
    70  H   -0.031501
    71  H   -0.033509
    72  H   -0.003459
    73  H   -0.020571
    74  H   -0.016640
    75  H   -0.022083
    76  H    0.021343
    77  H    0.006562
    78  H   -0.013427
    79  H   -0.027849
    80  H    0.005736
    81  H    0.001873
    82  H   -0.015240
    83  H    0.000080
    84  H    0.020094
    85  H   -0.017225
    86  H   -0.019876
    87  H    0.012439
    88  H   -0.016537
    89  H   -0.012814
    90  H   -0.027048
    91  H   -0.035243
    92  H   -0.004657
    93  H   -0.017891
    94  H   -0.016977
    95  H    0.001050
    96  H    0.004980
    97  H   -0.009718
    98  H    0.002230
    99  H    0.005933
   100  H    0.037734
   101  H    0.005165
   102  H    0.015783
   103  H    0.012377
   104  H   -0.036827
   105  H    0.007652
   106  H   -0.020853
   107  H   -0.001407
   108  H   -0.028370
   109  H   -0.000828
   110  H   -0.033777
   111  H   -0.045214
   112  H   -0.036990
   113  H   -0.021978
   114  H   -0.049176
   115  H   -0.021692
   116  H   -0.013617
   117  H   -0.012084
   118  H   -0.038655
   119  H   -0.030612
   120  H   -0.055126
   121  H   -0.039550
   122  H   -0.036036
   123  H   -0.032518
   124  H   -0.031449
   125  H   -0.031245
   126  H   -0.021637
   127  H   -0.017033
   128  H   -0.028266
   129  H   -0.050110
   130  H   -0.030165
   131  H   -0.019796
   132  H   -0.029646
   133  H   -0.046427
   134  H   -0.031817
   135  H   -0.021334
   136  H   -0.025684
   137  H   -0.022279
   138  H   -0.021003
   139  H   -0.014055
   140  H   -0.021352
 Sum of Mulliken charges =  -0.00000

 Dipole moment (field-independent basis, Debye):
    X=              1.1961    Y=              2.9698    Z=              3.4040  Tot=              4.6731
 Quadrupole moment (field-independent basis, Debye-Ang):
   XX=           -361.3989   YY=           -416.3935   ZZ=           -402.6191
   XY=             -5.1157   XZ=              1.9007   YZ=              9.2060

 Normal termination of Gaussian 16 at Thu May  5 15:57:40 2022.
