 Gaussian 16, Revision A.03,
 Gaussian 16:  ES64L-G16RevA.03 25-Dec-2016

 -----------------------------------
 #p cam-b3lyp/Def2SVP td=(nstates=5)
 -----------------------------------

 -------------------------------------------------------
 step_951_chromophore_22 TDDFT with cam-b3lyp functional
 -------------------------------------------------------
 Symbolic Z-matrix:
 Charge =  0 Multiplicity = 1

                         Standard orientation:
 ---------------------------------------------------------------------
 Center     Atomic      Atomic             Coordinates (Angstroms)
 Number     Number       Type             X           Y           Z
 ---------------------------------------------------------------------
      1         12           0       -6.101671    0.524878    0.038839
      2          6           0       -3.936054   -2.091380    0.335199
      3          6           0       -3.642062    2.626747    1.587743
      4          6           0       -8.120253    3.084781   -0.280651
      5          6           0       -8.660348   -1.742201   -0.620949
      6          7           0       -3.943136    0.272842    0.775405
      7          6           0       -3.239918   -0.896822    0.758457
      8          6           0       -1.856426   -0.711461    1.468404
      9          6           0       -2.009025    0.670147    2.214832
     10          6           0       -3.273357    1.267019    1.516628
     11          6           0       -2.081104    0.673346    3.709370
     12          6           0       -0.640886   -0.816404    0.471515
     13          6           0        0.354083   -2.015390    0.692237
     14          6           0        1.669812   -1.982916   -0.086687
     15          8           0        1.759230   -1.792922   -1.302700
     16          8           0        2.691475   -2.406037    0.721656
     17          7           0       -5.900516    2.535882    0.514701
     18          6           0       -4.853729    3.147398    1.210970
     19          6           0       -5.175758    4.603799    1.274818
     20          6           0       -6.368716    4.819828    0.493129
     21          6           0       -6.855733    3.455714    0.281860
     22          6           0       -4.082185    5.623033    1.785562
     23          6           0       -7.101489    6.090426    0.112909
     24          8           0       -8.092251    6.062454   -0.611465
     25          6           0       -6.698325    7.412988    0.388615
     26          7           0       -8.132143    0.604180   -0.419362
     27          6           0       -8.673485    1.829043   -0.688532
     28          6           0      -10.025349    1.673930   -1.324812
     29          6           0      -10.383320    0.136651   -1.079454
     30          6           0       -9.007112   -0.397267   -0.705365
     31          6           0      -11.131426    2.696545   -0.963715
     32          6           0      -11.165340   -0.647791   -2.185684
     33          6           0      -12.453641   -1.270286   -1.917399
     34          7           0       -6.294753   -1.503526   -0.167337
     35          6           0       -7.425241   -2.233950   -0.472346
     36          6           0       -7.050078   -3.574391   -0.561075
     37          6           0       -5.649236   -3.611761   -0.272808
     38          6           0       -5.297445   -2.310200   -0.117956
     39          6           0       -8.103829   -4.650708   -0.672263
     40          6           0       -4.493128   -4.418108   -0.040297
     41          8           0       -4.416410   -5.621942   -0.025395
     42          6           0       -3.357036   -3.481053    0.329406
     43          6           0       -2.364088   -3.653930   -0.661566
     44          8           0       -2.086439   -3.018514   -1.706551
     45          8           0       -1.816497   -4.857544   -0.492868
     46          6           0       -0.712229   -5.180934   -1.489979
     47          6           0        4.042075   -2.335628    0.191659
     48          6           0        4.980331   -1.625076    1.106223
     49          6           0        6.361044   -1.698790    1.096960
     50          6           0        7.216486   -2.413937   -0.000912
     51          6           0        7.176997   -0.901276    2.076097
     52          6           0        8.516467   -1.588204    2.569832
     53          6           0        9.752437   -0.738717    2.215040
     54          6           0       10.634591   -1.546678    1.302142
     55          6           0       11.463339   -2.693375    2.068600
     56          6           0       11.571791   -0.677853    0.476019
     57          6           0       10.995299    0.165819   -0.601850
     58          6           0       10.837215    1.663760   -0.388813
     59          6           0       11.110131    2.532863   -1.654367
     60          6           0        9.865880    3.373120   -1.974826
     61          6           0       12.282226    3.537797   -1.424562
     62          6           0       13.545199    3.053402   -2.152496
     63          6           0       14.609340    2.539310   -1.127650
     64          6           0       15.549423    1.435581   -1.639893
     65          6           0       15.342599    0.155858   -0.853080
     66          6           0       16.959747    1.926200   -1.934493
     67          1           0       -2.996505    3.304450    2.150343
     68          1           0       -8.744923    3.953706   -0.499709
     69          1           0       -9.549065   -2.342721   -0.824405
     70          1           0       -1.777257   -1.551613    2.158661
     71          1           0       -1.206751    1.363699    1.963566
     72          1           0       -1.176455    0.758687    4.310802
     73          1           0       -2.574367   -0.256438    3.992726
     74          1           0       -2.748447    1.440556    4.103006
     75          1           0       -0.004051    0.061936    0.577087
     76          1           0       -1.061246   -0.917261   -0.528655
     77          1           0       -0.194257   -2.893370    0.352912
     78          1           0        0.724854   -2.112369    1.713071
     79          1           0       -4.139603    6.481404    1.116984
     80          1           0       -3.039987    5.306670    1.728828
     81          1           0       -4.223588    6.104277    2.753422
     82          1           0       -6.596666    7.415664    1.473835
     83          1           0       -7.359753    8.247563    0.155596
     84          1           0       -5.699284    7.541740   -0.025518
     85          1           0       -9.760141    1.749345   -2.378502
     86          1           0      -10.963457    0.015455   -0.164100
     87          1           0      -10.972999    3.314187   -0.079701
     88          1           0      -12.122339    2.244334   -0.916103
     89          1           0      -11.210094    3.336575   -1.841801
     90          1           0      -10.531117   -1.415698   -2.630148
     91          1           0      -11.373793   -0.060853   -3.081150
     92          1           0      -13.241213   -1.002040   -2.620570
     93          1           0      -12.732405   -1.089807   -0.878807
     94          1           0      -12.331611   -2.351319   -1.985430
     95          1           0       -7.690921   -5.472158   -0.086804
     96          1           0       -8.337680   -4.894771   -1.708857
     97          1           0       -9.022710   -4.446647   -0.122518
     98          1           0       -3.001942   -3.773929    1.317676
     99          1           0        0.016483   -4.394166   -1.296349
    100          1           0       -1.005447   -5.225181   -2.538576
    101          1           0       -0.220064   -6.069254   -1.095150
    102          1           0        3.986819   -1.673731   -0.672294
    103          1           0        4.339296   -3.380525    0.102643
    104          1           0        4.478974   -1.076378    1.904253
    105          1           0        8.071595   -1.836745   -0.352610
    106          1           0        6.632958   -2.685767   -0.879899
    107          1           0        7.608557   -3.382450    0.306882
    108          1           0        6.521920   -0.796771    2.940429
    109          1           0        7.365634    0.077752    1.635291
    110          1           0        8.744161   -2.620405    2.304141
    111          1           0        8.513758   -1.729626    3.650552
    112          1           0       10.219621   -0.665904    3.197240
    113          1           0        9.633307    0.234104    1.737715
    114          1           0       10.024653   -2.069570    0.565255
    115          1           0       11.495841   -2.481917    3.137372
    116          1           0       12.493395   -2.811415    1.731351
    117          1           0       10.953968   -3.648619    1.941561
    118          1           0       12.242631   -1.336302   -0.078031
    119          1           0       12.090513   -0.009408    1.163419
    120          1           0        9.972061   -0.167387   -0.773906
    121          1           0       11.417147    0.015465   -1.595192
    122          1           0       11.460342    2.058900    0.413652
    123          1           0        9.792165    1.841258   -0.137969
    124          1           0       11.259536    1.874941   -2.510278
    125          1           0        9.527663    3.870124   -1.065839
    126          1           0        9.041016    2.726331   -2.272749
    127          1           0        9.980464    4.244113   -2.618412
    128          1           0       12.492315    3.708441   -0.368525
    129          1           0       11.951944    4.478481   -1.863819
    130          1           0       13.916378    3.986741   -2.575498
    131          1           0       13.411043    2.220474   -2.842107
    132          1           0       14.147196    2.360807   -0.157189
    133          1           0       15.252980    3.398054   -0.933971
    134          1           0       15.196860    0.996008   -2.572232
    135          1           0       14.721705    0.282994    0.032895
    136          1           0       16.261596   -0.359852   -0.572632
    137          1           0       14.753407   -0.559040   -1.427228
    138          1           0       17.231301    2.907641   -1.547592
    139          1           0       16.988863    2.015838   -3.020790
    140          1           0       17.781286    1.302850   -1.581350
 ---------------------------------------------------------------------

 SCF Done:  E(RCAM-B3LYP) =  -3007.10337019     A.U. after   19 cycles

 Excitation energies and oscillator strengths:

 Excited State   1:      Singlet-A      1.7138 eV  723.45 nm  f=0.3540  <S**2>=0.000
     245 -> 248        0.18910
     246 -> 247        0.68242
     245 <- 248        0.10976
 This state for optimization and/or second-order correction.
 Total Energy, E(TD-HF/TD-DFT) =  -3007.04038916
 Copying the excited state density for this state as the 1-particle RhoCI density.

 Excited State   2:      Singlet-A      2.1977 eV  564.14 nm  f=0.1119  <S**2>=0.000
     245 -> 247        0.63937
     246 -> 248       -0.29052

 Excited State   3:      Singlet-A      3.4179 eV  362.75 nm  f=0.0010  <S**2>=0.000
     242 -> 247       -0.21543
     243 -> 247        0.63827
     244 -> 247        0.10392

 Excited State   4:      Singlet-A      3.4936 eV  354.89 nm  f=0.2693  <S**2>=0.000
     239 -> 247        0.18352
     240 -> 247       -0.32223
     240 -> 249       -0.22764
     240 -> 250        0.12439
     241 -> 247        0.18576
     242 -> 247        0.10732
     245 -> 247        0.17452
     246 -> 248        0.41443

 Excited State   5:      Singlet-A      3.5155 eV  352.68 nm  f=0.1735  <S**2>=0.000
     240 -> 247        0.39819
     240 -> 249        0.24048
     240 -> 250       -0.11611
     241 -> 247        0.27803
     241 -> 249       -0.10944
     245 -> 247        0.14275
     246 -> 248        0.33463

 The electronic state is 1-A.
 Alpha  occ. eigenvalues --  -46.88088 -19.25062 -19.23770 -19.19475 -19.18273
 Alpha  occ. eigenvalues --  -19.18034 -19.17932 -14.42289 -14.41450 -14.39882
 Alpha  occ. eigenvalues --  -14.37966 -10.39312 -10.37796 -10.34855 -10.33907
 Alpha  occ. eigenvalues --  -10.31798 -10.31608 -10.31448 -10.31225 -10.31012
 Alpha  occ. eigenvalues --  -10.30811 -10.30441 -10.30265 -10.30096 -10.28924
 Alpha  occ. eigenvalues --  -10.28547 -10.28338 -10.28075 -10.28071 -10.27962
 Alpha  occ. eigenvalues --  -10.27930 -10.27790 -10.27741 -10.27674 -10.27378
 Alpha  occ. eigenvalues --  -10.27316 -10.27313 -10.26882 -10.26807 -10.26208
 Alpha  occ. eigenvalues --  -10.26179 -10.26158 -10.26099 -10.26043 -10.26025
 Alpha  occ. eigenvalues --  -10.25852 -10.25780 -10.25647 -10.25559 -10.25486
 Alpha  occ. eigenvalues --  -10.25341 -10.25314 -10.25054 -10.25024 -10.24914
 Alpha  occ. eigenvalues --  -10.24678 -10.24474 -10.24447 -10.24407 -10.24283
 Alpha  occ. eigenvalues --  -10.24209 -10.24174 -10.24173 -10.24086 -10.23991
 Alpha  occ. eigenvalues --  -10.23844  -3.16677  -1.91592  -1.91139  -1.90971
 Alpha  occ. eigenvalues --   -1.16197  -1.15863  -1.10361  -1.09955  -1.07333
 Alpha  occ. eigenvalues --   -1.05322  -1.04474  -1.03623  -1.02994  -1.01838
 Alpha  occ. eigenvalues --   -0.93448  -0.90957  -0.89804  -0.89197  -0.89067
 Alpha  occ. eigenvalues --   -0.88713  -0.88542  -0.88024  -0.87774  -0.86937
 Alpha  occ. eigenvalues --   -0.86379  -0.85870  -0.84782  -0.84543  -0.83519
 Alpha  occ. eigenvalues --   -0.83140  -0.82784  -0.81674  -0.81040  -0.80385
 Alpha  occ. eigenvalues --   -0.79626  -0.78587  -0.78128  -0.77638  -0.76353
 Alpha  occ. eigenvalues --   -0.76108  -0.75948  -0.75366  -0.74951  -0.73928
 Alpha  occ. eigenvalues --   -0.73229  -0.72667  -0.71934  -0.70309  -0.69057
 Alpha  occ. eigenvalues --   -0.68779  -0.68196  -0.67474  -0.66778  -0.65800
 Alpha  occ. eigenvalues --   -0.65330  -0.64926  -0.64592  -0.64352  -0.64250
 Alpha  occ. eigenvalues --   -0.63159  -0.62938  -0.62781  -0.61535  -0.60642
 Alpha  occ. eigenvalues --   -0.60275  -0.59626  -0.59084  -0.58485  -0.58122
 Alpha  occ. eigenvalues --   -0.57570  -0.57095  -0.56580  -0.56412  -0.55674
 Alpha  occ. eigenvalues --   -0.55379  -0.54734  -0.54437  -0.54060  -0.53860
 Alpha  occ. eigenvalues --   -0.53786  -0.53425  -0.53316  -0.53108  -0.52866
 Alpha  occ. eigenvalues --   -0.52776  -0.52456  -0.52363  -0.52006  -0.51682
 Alpha  occ. eigenvalues --   -0.51548  -0.51304  -0.51230  -0.50930  -0.50734
 Alpha  occ. eigenvalues --   -0.50692  -0.50233  -0.50117  -0.50074  -0.49859
 Alpha  occ. eigenvalues --   -0.49492  -0.49250  -0.48949  -0.48872  -0.48537
 Alpha  occ. eigenvalues --   -0.48488  -0.48298  -0.48157  -0.47853  -0.47686
 Alpha  occ. eigenvalues --   -0.47541  -0.47345  -0.47297  -0.47037  -0.46978
 Alpha  occ. eigenvalues --   -0.46751  -0.46068  -0.45946  -0.45935  -0.45702
 Alpha  occ. eigenvalues --   -0.45530  -0.45111  -0.45029  -0.44739  -0.44648
 Alpha  occ. eigenvalues --   -0.44546  -0.44274  -0.44176  -0.43959  -0.43880
 Alpha  occ. eigenvalues --   -0.43806  -0.43619  -0.43202  -0.43125  -0.42930
 Alpha  occ. eigenvalues --   -0.42795  -0.42212  -0.42176  -0.42042  -0.41893
 Alpha  occ. eigenvalues --   -0.41578  -0.41504  -0.41317  -0.41198  -0.41054
 Alpha  occ. eigenvalues --   -0.40880  -0.40655  -0.40338  -0.40298  -0.40245
 Alpha  occ. eigenvalues --   -0.40009  -0.39807  -0.39243  -0.39145  -0.38776
 Alpha  occ. eigenvalues --   -0.38410  -0.38330  -0.37917  -0.37420  -0.36972
 Alpha  occ. eigenvalues --   -0.36876  -0.36699  -0.36471  -0.36173  -0.36046
 Alpha  occ. eigenvalues --   -0.35597  -0.35223  -0.34687  -0.34167  -0.33735
 Alpha  occ. eigenvalues --   -0.33683  -0.33512  -0.32837  -0.31120  -0.30682
 Alpha  occ. eigenvalues --   -0.30245  -0.30010  -0.29366  -0.29344  -0.23705
 Alpha  occ. eigenvalues --   -0.21119
 Alpha virt. eigenvalues --   -0.08513  -0.01766   0.00153   0.02266   0.03799
 Alpha virt. eigenvalues --    0.04237   0.05087   0.05490   0.06167   0.06295
 Alpha virt. eigenvalues --    0.07895   0.08379   0.08597   0.08917   0.09072

 Mulliken charges:
               1
     1  Mg   0.836255
     2  C   -0.011508
     3  C   -0.079290
     4  C   -0.078260
     5  C   -0.126423
     6  N   -0.280256
     7  C   -0.018562
     8  C   -0.012092
     9  C   -0.015857
    10  C    0.021865
    11  C    0.076586
    12  C    0.067993
    13  C    0.035934
    14  C    0.153380
    15  O   -0.239593
    16  O   -0.335484
    17  N   -0.377242
    18  C    0.161662
    19  C   -0.127409
    20  C   -0.026218
    21  C    0.120351
    22  C    0.069860
    23  C    0.011269
    24  O   -0.223513
    25  C    0.078624
    26  N   -0.316566
    27  C    0.045388
    28  C   -0.001737
    29  C    0.014017
    30  C   -0.034803
    31  C    0.090020
    32  C    0.009745
    33  C    0.017105
    34  N   -0.325824
    35  C    0.224930
    36  C   -0.191043
    37  C    0.038615
    38  C    0.097280
    39  C    0.118023
    40  C   -0.037014
    41  O   -0.139205
    42  C    0.012577
    43  C    0.171699
    44  O   -0.258294
    45  O   -0.322151
    46  C    0.201112
    47  C    0.290441
    48  C   -0.151511
    49  C   -0.160953
    50  C    0.062324
    51  C    0.105458
    52  C    0.009226
    53  C    0.063904
    54  C   -0.152313
    55  C    0.037239
    56  C    0.077019
    57  C    0.010746
    58  C    0.051295
    59  C   -0.131857
    60  C    0.032456
    61  C    0.059709
    62  C    0.032939
    63  C    0.030892
    64  C   -0.146142
    65  C    0.038089
    66  C    0.055997
    67  H   -0.018122
    68  H   -0.004634
    69  H   -0.036507
    70  H    0.003640
    71  H    0.001855
    72  H    0.022562
    73  H    0.005125
    74  H    0.010140
    75  H    0.006688
    76  H    0.055320
    77  H    0.028154
    78  H    0.021346
    79  H   -0.000972
    80  H    0.033593
    81  H    0.030387
    82  H    0.012652
    83  H    0.036793
    84  H    0.045439
    85  H    0.018090
    86  H    0.013797
    87  H    0.036947
    88  H    0.009232
    89  H    0.012973
    90  H    0.005088
    91  H   -0.004428
    92  H    0.019905
    93  H    0.005444
    94  H    0.006609
    95  H    0.027236
    96  H    0.030487
    97  H    0.015178
    98  H    0.046670
    99  H    0.023254
   100  H    0.062782
   101  H    0.030983
   102  H    0.049912
   103  H    0.038978
   104  H   -0.001855
   105  H    0.027412
   106  H    0.006117
   107  H    0.023352
   108  H    0.002576
   109  H    0.026918
   110  H   -0.005281
   111  H   -0.012584
   112  H   -0.006293
   113  H    0.002708
   114  H   -0.019142
   115  H    0.001743
   116  H    0.012051
   117  H    0.010608
   118  H   -0.009133
   119  H   -0.004905
   120  H   -0.027816
   121  H   -0.010321
   122  H   -0.009810
   123  H   -0.004679
   124  H   -0.000544
   125  H   -0.007056
   126  H    0.003755
   127  H    0.008347
   128  H   -0.000639
   129  H   -0.018040
   130  H   -0.000820
   131  H    0.005314
   132  H   -0.004337
   133  H   -0.016717
   134  H    0.000616
   135  H   -0.000085
   136  H   -0.000492
   137  H   -0.000832
   138  H    0.003166
   139  H    0.009708
   140  H    0.003492
 Sum of Mulliken charges =  -0.00000

 Dipole moment (field-independent basis, Debye):
    X=              1.5735    Y=              4.0074    Z=              3.8533  Tot=              5.7778
 Quadrupole moment (field-independent basis, Debye-Ang):
   XX=           -361.8657   YY=           -411.6915   ZZ=           -402.1564
   XY=            -10.7617   XZ=              1.3364   YZ=             10.7706

 Normal termination of Gaussian 16 at Thu May  5 14:36:46 2022.
