 Gaussian 16, Revision A.03,
 Gaussian 16:  ES64L-G16RevA.03 25-Dec-2016

 ---------------------------------
 #p PBE1PBE/Def2SVP td=(nstates=5)
 ---------------------------------

 -----------------------------------------------------
 step_951_chromophore_22 TDDFT with PBE1PBE functional
 -----------------------------------------------------
 Symbolic Z-matrix:
 Charge =  0 Multiplicity = 1

                         Standard orientation:
 ---------------------------------------------------------------------
 Center     Atomic      Atomic             Coordinates (Angstroms)
 Number     Number       Type             X           Y           Z
 ---------------------------------------------------------------------
      1         12           0       -6.101671    0.524878    0.038839
      2          6           0       -3.936054   -2.091380    0.335199
      3          6           0       -3.642062    2.626747    1.587743
      4          6           0       -8.120253    3.084781   -0.280651
      5          6           0       -8.660348   -1.742201   -0.620949
      6          7           0       -3.943136    0.272842    0.775405
      7          6           0       -3.239918   -0.896822    0.758457
      8          6           0       -1.856426   -0.711461    1.468404
      9          6           0       -2.009025    0.670147    2.214832
     10          6           0       -3.273357    1.267019    1.516628
     11          6           0       -2.081104    0.673346    3.709370
     12          6           0       -0.640886   -0.816404    0.471515
     13          6           0        0.354083   -2.015390    0.692237
     14          6           0        1.669812   -1.982916   -0.086687
     15          8           0        1.759230   -1.792922   -1.302700
     16          8           0        2.691475   -2.406037    0.721656
     17          7           0       -5.900516    2.535882    0.514701
     18          6           0       -4.853729    3.147398    1.210970
     19          6           0       -5.175758    4.603799    1.274818
     20          6           0       -6.368716    4.819828    0.493129
     21          6           0       -6.855733    3.455714    0.281860
     22          6           0       -4.082185    5.623033    1.785562
     23          6           0       -7.101489    6.090426    0.112909
     24          8           0       -8.092251    6.062454   -0.611465
     25          6           0       -6.698325    7.412988    0.388615
     26          7           0       -8.132143    0.604180   -0.419362
     27          6           0       -8.673485    1.829043   -0.688532
     28          6           0      -10.025349    1.673930   -1.324812
     29          6           0      -10.383320    0.136651   -1.079454
     30          6           0       -9.007112   -0.397267   -0.705365
     31          6           0      -11.131426    2.696545   -0.963715
     32          6           0      -11.165340   -0.647791   -2.185684
     33          6           0      -12.453641   -1.270286   -1.917399
     34          7           0       -6.294753   -1.503526   -0.167337
     35          6           0       -7.425241   -2.233950   -0.472346
     36          6           0       -7.050078   -3.574391   -0.561075
     37          6           0       -5.649236   -3.611761   -0.272808
     38          6           0       -5.297445   -2.310200   -0.117956
     39          6           0       -8.103829   -4.650708   -0.672263
     40          6           0       -4.493128   -4.418108   -0.040297
     41          8           0       -4.416410   -5.621942   -0.025395
     42          6           0       -3.357036   -3.481053    0.329406
     43          6           0       -2.364088   -3.653930   -0.661566
     44          8           0       -2.086439   -3.018514   -1.706551
     45          8           0       -1.816497   -4.857544   -0.492868
     46          6           0       -0.712229   -5.180934   -1.489979
     47          6           0        4.042075   -2.335628    0.191659
     48          6           0        4.980331   -1.625076    1.106223
     49          6           0        6.361044   -1.698790    1.096960
     50          6           0        7.216486   -2.413937   -0.000912
     51          6           0        7.176997   -0.901276    2.076097
     52          6           0        8.516467   -1.588204    2.569832
     53          6           0        9.752437   -0.738717    2.215040
     54          6           0       10.634591   -1.546678    1.302142
     55          6           0       11.463339   -2.693375    2.068600
     56          6           0       11.571791   -0.677853    0.476019
     57          6           0       10.995299    0.165819   -0.601850
     58          6           0       10.837215    1.663760   -0.388813
     59          6           0       11.110131    2.532863   -1.654367
     60          6           0        9.865880    3.373120   -1.974826
     61          6           0       12.282226    3.537797   -1.424562
     62          6           0       13.545199    3.053402   -2.152496
     63          6           0       14.609340    2.539310   -1.127650
     64          6           0       15.549423    1.435581   -1.639893
     65          6           0       15.342599    0.155858   -0.853080
     66          6           0       16.959747    1.926200   -1.934493
     67          1           0       -2.996505    3.304450    2.150343
     68          1           0       -8.744923    3.953706   -0.499709
     69          1           0       -9.549065   -2.342721   -0.824405
     70          1           0       -1.777257   -1.551613    2.158661
     71          1           0       -1.206751    1.363699    1.963566
     72          1           0       -1.176455    0.758687    4.310802
     73          1           0       -2.574367   -0.256438    3.992726
     74          1           0       -2.748447    1.440556    4.103006
     75          1           0       -0.004051    0.061936    0.577087
     76          1           0       -1.061246   -0.917261   -0.528655
     77          1           0       -0.194257   -2.893370    0.352912
     78          1           0        0.724854   -2.112369    1.713071
     79          1           0       -4.139603    6.481404    1.116984
     80          1           0       -3.039987    5.306670    1.728828
     81          1           0       -4.223588    6.104277    2.753422
     82          1           0       -6.596666    7.415664    1.473835
     83          1           0       -7.359753    8.247563    0.155596
     84          1           0       -5.699284    7.541740   -0.025518
     85          1           0       -9.760141    1.749345   -2.378502
     86          1           0      -10.963457    0.015455   -0.164100
     87          1           0      -10.972999    3.314187   -0.079701
     88          1           0      -12.122339    2.244334   -0.916103
     89          1           0      -11.210094    3.336575   -1.841801
     90          1           0      -10.531117   -1.415698   -2.630148
     91          1           0      -11.373793   -0.060853   -3.081150
     92          1           0      -13.241213   -1.002040   -2.620570
     93          1           0      -12.732405   -1.089807   -0.878807
     94          1           0      -12.331611   -2.351319   -1.985430
     95          1           0       -7.690921   -5.472158   -0.086804
     96          1           0       -8.337680   -4.894771   -1.708857
     97          1           0       -9.022710   -4.446647   -0.122518
     98          1           0       -3.001942   -3.773929    1.317676
     99          1           0        0.016483   -4.394166   -1.296349
    100          1           0       -1.005447   -5.225181   -2.538576
    101          1           0       -0.220064   -6.069254   -1.095150
    102          1           0        3.986819   -1.673731   -0.672294
    103          1           0        4.339296   -3.380525    0.102643
    104          1           0        4.478974   -1.076378    1.904253
    105          1           0        8.071595   -1.836745   -0.352610
    106          1           0        6.632958   -2.685767   -0.879899
    107          1           0        7.608557   -3.382450    0.306882
    108          1           0        6.521920   -0.796771    2.940429
    109          1           0        7.365634    0.077752    1.635291
    110          1           0        8.744161   -2.620405    2.304141
    111          1           0        8.513758   -1.729626    3.650552
    112          1           0       10.219621   -0.665904    3.197240
    113          1           0        9.633307    0.234104    1.737715
    114          1           0       10.024653   -2.069570    0.565255
    115          1           0       11.495841   -2.481917    3.137372
    116          1           0       12.493395   -2.811415    1.731351
    117          1           0       10.953968   -3.648619    1.941561
    118          1           0       12.242631   -1.336302   -0.078031
    119          1           0       12.090513   -0.009408    1.163419
    120          1           0        9.972061   -0.167387   -0.773906
    121          1           0       11.417147    0.015465   -1.595192
    122          1           0       11.460342    2.058900    0.413652
    123          1           0        9.792165    1.841258   -0.137969
    124          1           0       11.259536    1.874941   -2.510278
    125          1           0        9.527663    3.870124   -1.065839
    126          1           0        9.041016    2.726331   -2.272749
    127          1           0        9.980464    4.244113   -2.618412
    128          1           0       12.492315    3.708441   -0.368525
    129          1           0       11.951944    4.478481   -1.863819
    130          1           0       13.916378    3.986741   -2.575498
    131          1           0       13.411043    2.220474   -2.842107
    132          1           0       14.147196    2.360807   -0.157189
    133          1           0       15.252980    3.398054   -0.933971
    134          1           0       15.196860    0.996008   -2.572232
    135          1           0       14.721705    0.282994    0.032895
    136          1           0       16.261596   -0.359852   -0.572632
    137          1           0       14.753407   -0.559040   -1.427228
    138          1           0       17.231301    2.907641   -1.547592
    139          1           0       16.988863    2.015838   -3.020790
    140          1           0       17.781286    1.302850   -1.581350
 ---------------------------------------------------------------------

 SCF Done:  E(RPBE1PBE) =  -3005.29342240     A.U. after   16 cycles

 Excitation energies and oscillator strengths:

 Excited State   1:      Singlet-A      1.8561 eV  667.99 nm  f=0.3427  <S**2>=0.000
     245 -> 248        0.18299
     246 -> 247        0.68922
     246 <- 247       -0.10049
 This state for optimization and/or second-order correction.
 Total Energy, E(TD-HF/TD-DFT) =  -3005.22521301
 Copying the excited state density for this state as the 1-particle RhoCI density.

 Excited State   2:      Singlet-A      2.2049 eV  562.30 nm  f=0.1096  <S**2>=0.000
     245 -> 247        0.65170
     246 -> 248       -0.26339

 Excited State   3:      Singlet-A      2.9707 eV  417.36 nm  f=0.0007  <S**2>=0.000
     241 -> 249        0.10296
     242 -> 247        0.47042
     242 -> 249       -0.13749
     243 -> 247       -0.46967

 Excited State   4:      Singlet-A      2.9839 eV  415.51 nm  f=0.0006  <S**2>=0.000
     241 -> 247        0.57495
     242 -> 247       -0.27720
     243 -> 247       -0.21716
     243 -> 249       -0.10074

 Excited State   5:      Singlet-A      3.0895 eV  401.31 nm  f=0.0004  <S**2>=0.000
     240 -> 247        0.13359
     241 -> 247        0.35516
     242 -> 247        0.37287
     243 -> 247        0.45350

 The electronic state is 1-A.
 Alpha  occ. eigenvalues --  -46.91506 -19.25782 -19.24412 -19.19768 -19.18376
 Alpha  occ. eigenvalues --  -19.18342 -19.18317 -14.41780 -14.41040 -14.39469
 Alpha  occ. eigenvalues --  -14.37716 -10.36360 -10.34783 -10.31813 -10.31184
 Alpha  occ. eigenvalues --  -10.29329 -10.29235 -10.29192 -10.28847 -10.28317
 Alpha  occ. eigenvalues --  -10.28254 -10.28003 -10.27935 -10.27737 -10.26752
 Alpha  occ. eigenvalues --  -10.26284 -10.25999 -10.25952 -10.25838 -10.25786
 Alpha  occ. eigenvalues --  -10.25576 -10.25551 -10.25462 -10.25217 -10.24979
 Alpha  occ. eigenvalues --  -10.24888 -10.24824 -10.24749 -10.24525 -10.23762
 Alpha  occ. eigenvalues --  -10.23699 -10.23655 -10.23601 -10.23574 -10.23537
 Alpha  occ. eigenvalues --  -10.23367 -10.23257 -10.23196 -10.23169 -10.23145
 Alpha  occ. eigenvalues --  -10.23062 -10.22911 -10.22681 -10.22516 -10.22350
 Alpha  occ. eigenvalues --  -10.22233 -10.22014 -10.22009 -10.21990 -10.21925
 Alpha  occ. eigenvalues --  -10.21797 -10.21736 -10.21701 -10.21580 -10.21489
 Alpha  occ. eigenvalues --  -10.21210  -3.13674  -1.86531  -1.86056  -1.85891
 Alpha  occ. eigenvalues --   -1.11034  -1.10626  -1.04956  -1.04874  -1.02197
 Alpha  occ. eigenvalues --   -1.00202  -0.99278  -0.98260  -0.97561  -0.96410
 Alpha  occ. eigenvalues --   -0.87911  -0.85043  -0.83912  -0.83538  -0.83230
 Alpha  occ. eigenvalues --   -0.82966  -0.82797  -0.82370  -0.81907  -0.81105
 Alpha  occ. eigenvalues --   -0.80713  -0.80112  -0.78953  -0.78924  -0.77759
 Alpha  occ. eigenvalues --   -0.77304  -0.77006  -0.75924  -0.75318  -0.74731
 Alpha  occ. eigenvalues --   -0.73809  -0.72798  -0.72401  -0.71982  -0.70486
 Alpha  occ. eigenvalues --   -0.70267  -0.70191  -0.69753  -0.69096  -0.68090
 Alpha  occ. eigenvalues --   -0.67590  -0.67132  -0.66371  -0.64586  -0.63445
 Alpha  occ. eigenvalues --   -0.63235  -0.62596  -0.61850  -0.61015  -0.60227
 Alpha  occ. eigenvalues --   -0.59738  -0.59201  -0.59159  -0.58949  -0.58329
 Alpha  occ. eigenvalues --   -0.57349  -0.57249  -0.57132  -0.56124  -0.55130
 Alpha  occ. eigenvalues --   -0.54615  -0.54248  -0.53676  -0.52898  -0.52770
 Alpha  occ. eigenvalues --   -0.52207  -0.51514  -0.51090  -0.50925  -0.50184
 Alpha  occ. eigenvalues --   -0.49910  -0.49312  -0.48895  -0.48459  -0.48367
 Alpha  occ. eigenvalues --   -0.48281  -0.47863  -0.47762  -0.47635  -0.47478
 Alpha  occ. eigenvalues --   -0.47335  -0.46952  -0.46928  -0.46600  -0.46319
 Alpha  occ. eigenvalues --   -0.46096  -0.45913  -0.45736  -0.45610  -0.45245
 Alpha  occ. eigenvalues --   -0.45193  -0.44968  -0.44647  -0.44584  -0.44389
 Alpha  occ. eigenvalues --   -0.44072  -0.43774  -0.43582  -0.43466  -0.43197
 Alpha  occ. eigenvalues --   -0.43086  -0.42961  -0.42767  -0.42521  -0.42338
 Alpha  occ. eigenvalues --   -0.42140  -0.41995  -0.41865  -0.41671  -0.41625
 Alpha  occ. eigenvalues --   -0.41475  -0.40811  -0.40637  -0.40546  -0.40478
 Alpha  occ. eigenvalues --   -0.40313  -0.39797  -0.39718  -0.39464  -0.39424
 Alpha  occ. eigenvalues --   -0.39245  -0.39039  -0.38843  -0.38784  -0.38602
 Alpha  occ. eigenvalues --   -0.38531  -0.38377  -0.38046  -0.37846  -0.37786
 Alpha  occ. eigenvalues --   -0.37627  -0.37119  -0.37093  -0.36934  -0.36665
 Alpha  occ. eigenvalues --   -0.36389  -0.36201  -0.36128  -0.35976  -0.35870
 Alpha  occ. eigenvalues --   -0.35758  -0.35452  -0.35271  -0.35133  -0.35121
 Alpha  occ. eigenvalues --   -0.34891  -0.34600  -0.34153  -0.33959  -0.33601
 Alpha  occ. eigenvalues --   -0.33383  -0.33107  -0.32681  -0.32440  -0.31850
 Alpha  occ. eigenvalues --   -0.31785  -0.31724  -0.31501  -0.31083  -0.30894
 Alpha  occ. eigenvalues --   -0.30526  -0.30128  -0.29565  -0.29442  -0.29196
 Alpha  occ. eigenvalues --   -0.28619  -0.28372  -0.27524  -0.26635  -0.25749
 Alpha  occ. eigenvalues --   -0.25267  -0.25262  -0.25139  -0.24641  -0.20678
 Alpha  occ. eigenvalues --   -0.18744
 Alpha virt. eigenvalues --   -0.11022  -0.05260  -0.04008  -0.02154  -0.00340
 Alpha virt. eigenvalues --    0.00676   0.01112   0.01355   0.01665   0.02618
 Alpha virt. eigenvalues --    0.04371   0.04578   0.04914   0.05219   0.05599

 Mulliken charges:
               1
     1  Mg   0.989039
     2  C   -0.033205
     3  C   -0.070833
     4  C   -0.067160
     5  C   -0.114580
     6  N   -0.376104
     7  C    0.059816
     8  C   -0.083589
     9  C   -0.094216
    10  C    0.055509
    11  C    0.020617
    12  C    0.021076
    13  C   -0.055107
    14  C    0.224738
    15  O   -0.272446
    16  O   -0.368762
    17  N   -0.491090
    18  C    0.179263
    19  C   -0.146076
    20  C   -0.073160
    21  C    0.144927
    22  C    0.010068
    23  C    0.051468
    24  O   -0.260036
    25  C    0.006831
    26  N   -0.425243
    27  C    0.085420
    28  C   -0.088167
    29  C   -0.066365
    30  C    0.017190
    31  C    0.028318
    32  C   -0.048626
    33  C   -0.053826
    34  N   -0.461998
    35  C    0.234955
    36  C   -0.194134
    37  C   -0.019262
    38  C    0.161284
    39  C    0.061291
    40  C    0.064447
    41  O   -0.183961
    42  C   -0.096176
    43  C    0.255097
    44  O   -0.290859
    45  O   -0.352671
    46  C    0.140609
    47  C    0.249473
    48  C   -0.167990
    49  C   -0.194882
    50  C   -0.005312
    51  C    0.038360
    52  C   -0.050924
    53  C    0.005790
    54  C   -0.246343
    55  C   -0.018528
    56  C    0.017141
    57  C   -0.054302
    58  C    0.002717
    59  C   -0.216802
    60  C   -0.031389
    61  C    0.005473
    62  C   -0.033202
    63  C   -0.020707
    64  C   -0.239775
    65  C   -0.020008
    66  C   -0.002750
    67  H    0.011813
    68  H    0.028951
    69  H   -0.002506
    70  H    0.041858
    71  H    0.038824
    72  H    0.049398
    73  H    0.033312
    74  H    0.038727
    75  H    0.040652
    76  H    0.087115
    77  H    0.074586
    78  H    0.053163
    79  H    0.028467
    80  H    0.057392
    81  H    0.056619
    82  H    0.040808
    83  H    0.063008
    84  H    0.071035
    85  H    0.057644
    86  H    0.053115
    87  H    0.063249
    88  H    0.037949
    89  H    0.041159
    90  H    0.037587
    91  H    0.028936
    92  H    0.047273
    93  H    0.033165
    94  H    0.034003
    95  H    0.056365
    96  H    0.059517
    97  H    0.042235
    98  H    0.082072
    99  H    0.048975
   100  H    0.084240
   101  H    0.053104
   102  H    0.076670
   103  H    0.065193
   104  H    0.027606
   105  H    0.059157
   106  H    0.034343
   107  H    0.050371
   108  H    0.035462
   109  H    0.059052
   110  H    0.026624
   111  H    0.020486
   112  H    0.027515
   113  H    0.039780
   114  H    0.023597
   115  H    0.028937
   116  H    0.038588
   117  H    0.036927
   118  H    0.024726
   119  H    0.028611
   120  H    0.011850
   121  H    0.021510
   122  H    0.020592
   123  H    0.026573
   124  H    0.035628
   125  H    0.022045
   126  H    0.033239
   127  H    0.036166
   128  H    0.029938
   129  H    0.015374
   130  H    0.032889
   131  H    0.036756
   132  H    0.026524
   133  H    0.017257
   134  H    0.037428
   135  H    0.028909
   136  H    0.026725
   137  H    0.026146
   138  H    0.029429
   139  H    0.037028
   140  H    0.030192
 Sum of Mulliken charges =  -0.00000

 Dipole moment (field-independent basis, Debye):
    X=              1.3642    Y=              3.5991    Z=              3.7672  Tot=              5.3858
 Quadrupole moment (field-independent basis, Debye-Ang):
   XX=           -354.1639   YY=           -409.4229   ZZ=           -399.4492
   XY=             -7.8686   XZ=              2.8600   YZ=             10.6681

 Normal termination of Gaussian 16 at Thu May  5 14:57:13 2022.
