 Gaussian 16, Revision A.03,
 Gaussian 16:  ES64L-G16RevA.03 25-Dec-2016

 --------------------------------
 #p wB97XD/Def2SVP td=(nstates=5)
 --------------------------------

 ----------------------------------------------------
 step_951_chromophore_22 TDDFT with wB97XD functional
 ----------------------------------------------------
 Symbolic Z-matrix:
 Charge =  0 Multiplicity = 1

                         Standard orientation:
 ---------------------------------------------------------------------
 Center     Atomic      Atomic             Coordinates (Angstroms)
 Number     Number       Type             X           Y           Z
 ---------------------------------------------------------------------
      1         12           0       -6.101671    0.524878    0.038839
      2          6           0       -3.936054   -2.091380    0.335199
      3          6           0       -3.642062    2.626747    1.587743
      4          6           0       -8.120253    3.084781   -0.280651
      5          6           0       -8.660348   -1.742201   -0.620949
      6          7           0       -3.943136    0.272842    0.775405
      7          6           0       -3.239918   -0.896822    0.758457
      8          6           0       -1.856426   -0.711461    1.468404
      9          6           0       -2.009025    0.670147    2.214832
     10          6           0       -3.273357    1.267019    1.516628
     11          6           0       -2.081104    0.673346    3.709370
     12          6           0       -0.640886   -0.816404    0.471515
     13          6           0        0.354083   -2.015390    0.692237
     14          6           0        1.669812   -1.982916   -0.086687
     15          8           0        1.759230   -1.792922   -1.302700
     16          8           0        2.691475   -2.406037    0.721656
     17          7           0       -5.900516    2.535882    0.514701
     18          6           0       -4.853729    3.147398    1.210970
     19          6           0       -5.175758    4.603799    1.274818
     20          6           0       -6.368716    4.819828    0.493129
     21          6           0       -6.855733    3.455714    0.281860
     22          6           0       -4.082185    5.623033    1.785562
     23          6           0       -7.101489    6.090426    0.112909
     24          8           0       -8.092251    6.062454   -0.611465
     25          6           0       -6.698325    7.412988    0.388615
     26          7           0       -8.132143    0.604180   -0.419362
     27          6           0       -8.673485    1.829043   -0.688532
     28          6           0      -10.025349    1.673930   -1.324812
     29          6           0      -10.383320    0.136651   -1.079454
     30          6           0       -9.007112   -0.397267   -0.705365
     31          6           0      -11.131426    2.696545   -0.963715
     32          6           0      -11.165340   -0.647791   -2.185684
     33          6           0      -12.453641   -1.270286   -1.917399
     34          7           0       -6.294753   -1.503526   -0.167337
     35          6           0       -7.425241   -2.233950   -0.472346
     36          6           0       -7.050078   -3.574391   -0.561075
     37          6           0       -5.649236   -3.611761   -0.272808
     38          6           0       -5.297445   -2.310200   -0.117956
     39          6           0       -8.103829   -4.650708   -0.672263
     40          6           0       -4.493128   -4.418108   -0.040297
     41          8           0       -4.416410   -5.621942   -0.025395
     42          6           0       -3.357036   -3.481053    0.329406
     43          6           0       -2.364088   -3.653930   -0.661566
     44          8           0       -2.086439   -3.018514   -1.706551
     45          8           0       -1.816497   -4.857544   -0.492868
     46          6           0       -0.712229   -5.180934   -1.489979
     47          6           0        4.042075   -2.335628    0.191659
     48          6           0        4.980331   -1.625076    1.106223
     49          6           0        6.361044   -1.698790    1.096960
     50          6           0        7.216486   -2.413937   -0.000912
     51          6           0        7.176997   -0.901276    2.076097
     52          6           0        8.516467   -1.588204    2.569832
     53          6           0        9.752437   -0.738717    2.215040
     54          6           0       10.634591   -1.546678    1.302142
     55          6           0       11.463339   -2.693375    2.068600
     56          6           0       11.571791   -0.677853    0.476019
     57          6           0       10.995299    0.165819   -0.601850
     58          6           0       10.837215    1.663760   -0.388813
     59          6           0       11.110131    2.532863   -1.654367
     60          6           0        9.865880    3.373120   -1.974826
     61          6           0       12.282226    3.537797   -1.424562
     62          6           0       13.545199    3.053402   -2.152496
     63          6           0       14.609340    2.539310   -1.127650
     64          6           0       15.549423    1.435581   -1.639893
     65          6           0       15.342599    0.155858   -0.853080
     66          6           0       16.959747    1.926200   -1.934493
     67          1           0       -2.996505    3.304450    2.150343
     68          1           0       -8.744923    3.953706   -0.499709
     69          1           0       -9.549065   -2.342721   -0.824405
     70          1           0       -1.777257   -1.551613    2.158661
     71          1           0       -1.206751    1.363699    1.963566
     72          1           0       -1.176455    0.758687    4.310802
     73          1           0       -2.574367   -0.256438    3.992726
     74          1           0       -2.748447    1.440556    4.103006
     75          1           0       -0.004051    0.061936    0.577087
     76          1           0       -1.061246   -0.917261   -0.528655
     77          1           0       -0.194257   -2.893370    0.352912
     78          1           0        0.724854   -2.112369    1.713071
     79          1           0       -4.139603    6.481404    1.116984
     80          1           0       -3.039987    5.306670    1.728828
     81          1           0       -4.223588    6.104277    2.753422
     82          1           0       -6.596666    7.415664    1.473835
     83          1           0       -7.359753    8.247563    0.155596
     84          1           0       -5.699284    7.541740   -0.025518
     85          1           0       -9.760141    1.749345   -2.378502
     86          1           0      -10.963457    0.015455   -0.164100
     87          1           0      -10.972999    3.314187   -0.079701
     88          1           0      -12.122339    2.244334   -0.916103
     89          1           0      -11.210094    3.336575   -1.841801
     90          1           0      -10.531117   -1.415698   -2.630148
     91          1           0      -11.373793   -0.060853   -3.081150
     92          1           0      -13.241213   -1.002040   -2.620570
     93          1           0      -12.732405   -1.089807   -0.878807
     94          1           0      -12.331611   -2.351319   -1.985430
     95          1           0       -7.690921   -5.472158   -0.086804
     96          1           0       -8.337680   -4.894771   -1.708857
     97          1           0       -9.022710   -4.446647   -0.122518
     98          1           0       -3.001942   -3.773929    1.317676
     99          1           0        0.016483   -4.394166   -1.296349
    100          1           0       -1.005447   -5.225181   -2.538576
    101          1           0       -0.220064   -6.069254   -1.095150
    102          1           0        3.986819   -1.673731   -0.672294
    103          1           0        4.339296   -3.380525    0.102643
    104          1           0        4.478974   -1.076378    1.904253
    105          1           0        8.071595   -1.836745   -0.352610
    106          1           0        6.632958   -2.685767   -0.879899
    107          1           0        7.608557   -3.382450    0.306882
    108          1           0        6.521920   -0.796771    2.940429
    109          1           0        7.365634    0.077752    1.635291
    110          1           0        8.744161   -2.620405    2.304141
    111          1           0        8.513758   -1.729626    3.650552
    112          1           0       10.219621   -0.665904    3.197240
    113          1           0        9.633307    0.234104    1.737715
    114          1           0       10.024653   -2.069570    0.565255
    115          1           0       11.495841   -2.481917    3.137372
    116          1           0       12.493395   -2.811415    1.731351
    117          1           0       10.953968   -3.648619    1.941561
    118          1           0       12.242631   -1.336302   -0.078031
    119          1           0       12.090513   -0.009408    1.163419
    120          1           0        9.972061   -0.167387   -0.773906
    121          1           0       11.417147    0.015465   -1.595192
    122          1           0       11.460342    2.058900    0.413652
    123          1           0        9.792165    1.841258   -0.137969
    124          1           0       11.259536    1.874941   -2.510278
    125          1           0        9.527663    3.870124   -1.065839
    126          1           0        9.041016    2.726331   -2.272749
    127          1           0        9.980464    4.244113   -2.618412
    128          1           0       12.492315    3.708441   -0.368525
    129          1           0       11.951944    4.478481   -1.863819
    130          1           0       13.916378    3.986741   -2.575498
    131          1           0       13.411043    2.220474   -2.842107
    132          1           0       14.147196    2.360807   -0.157189
    133          1           0       15.252980    3.398054   -0.933971
    134          1           0       15.196860    0.996008   -2.572232
    135          1           0       14.721705    0.282994    0.032895
    136          1           0       16.261596   -0.359852   -0.572632
    137          1           0       14.753407   -0.559040   -1.427228
    138          1           0       17.231301    2.907641   -1.547592
    139          1           0       16.988863    2.015838   -3.020790
    140          1           0       17.781286    1.302850   -1.581350
 ---------------------------------------------------------------------

 SCF Done:  E(RwB97XD) =  -3007.80106614     A.U. after   20 cycles

 Excitation energies and oscillator strengths:

 Excited State   1:      Singlet-A      1.6638 eV  745.19 nm  f=0.3523  <S**2>=0.000
     245 -> 248        0.19385
     246 -> 247        0.68051
     245 <- 248        0.11880
 This state for optimization and/or second-order correction.
 Total Energy, E(TD-HF/TD-DFT) =  -3007.73992325
 Copying the excited state density for this state as the 1-particle RhoCI density.

 Excited State   2:      Singlet-A      2.1444 eV  578.17 nm  f=0.1089  <S**2>=0.000
     245 -> 247        0.63723
     246 -> 248       -0.29293

 Excited State   3:      Singlet-A      3.4445 eV  359.95 nm  f=0.0003  <S**2>=0.000
     241 -> 247       -0.22404
     242 -> 247        0.14253
     243 -> 247        0.62079

 Excited State   4:      Singlet-A      3.5008 eV  354.16 nm  f=0.1430  <S**2>=0.000
     239 -> 247       -0.11707
     240 -> 247        0.40657
     240 -> 249       -0.30572
     240 -> 250       -0.15325
     241 -> 247       -0.19265
     245 -> 247       -0.12578
     246 -> 248       -0.30036

 Excited State   5:      Singlet-A      3.5256 eV  351.66 nm  f=0.3644  <S**2>=0.000
     239 -> 247        0.12788
     240 -> 247        0.32807
     240 -> 249       -0.18778
     241 -> 247        0.17627
     245 -> 247        0.19899
     246 -> 248        0.48723

 The electronic state is 1-A.
 Alpha  occ. eigenvalues --  -46.94436 -19.30325 -19.28952 -19.24426 -19.23344
 Alpha  occ. eigenvalues --  -19.22971 -19.22947 -14.46925 -14.46039 -14.44517
 Alpha  occ. eigenvalues --  -14.42526 -10.43141 -10.41596 -10.38830 -10.37872
 Alpha  occ. eigenvalues --  -10.35712 -10.35682 -10.35491 -10.35302 -10.34920
 Alpha  occ. eigenvalues --  -10.34764 -10.34558 -10.34530 -10.34051 -10.33011
 Alpha  occ. eigenvalues --  -10.32612 -10.32511 -10.32244 -10.32116 -10.32001
 Alpha  occ. eigenvalues --  -10.31932 -10.31833 -10.31673 -10.31596 -10.31451
 Alpha  occ. eigenvalues --  -10.31313 -10.31267 -10.30884 -10.30860 -10.30146
 Alpha  occ. eigenvalues --  -10.30113 -10.30068 -10.30056 -10.30047 -10.29889
 Alpha  occ. eigenvalues --  -10.29763 -10.29653 -10.29600 -10.29513 -10.29487
 Alpha  occ. eigenvalues --  -10.29333 -10.29159 -10.28965 -10.28834 -10.28778
 Alpha  occ. eigenvalues --  -10.28615 -10.28385 -10.28380 -10.28340 -10.28187
 Alpha  occ. eigenvalues --  -10.28098 -10.28092 -10.28013 -10.27983 -10.27924
 Alpha  occ. eigenvalues --  -10.27642  -3.20454  -1.94060  -1.93586  -1.93420
 Alpha  occ. eigenvalues --   -1.18404  -1.18000  -1.12605  -1.12160  -1.09536
 Alpha  occ. eigenvalues --   -1.07336  -1.06626  -1.05652  -1.05047  -1.03869
 Alpha  occ. eigenvalues --   -0.95426  -0.92724  -0.91593  -0.91087  -0.90891
 Alpha  occ. eigenvalues --   -0.90572  -0.90425  -0.89955  -0.89562  -0.88917
 Alpha  occ. eigenvalues --   -0.88304  -0.87756  -0.86623  -0.86439  -0.85444
 Alpha  occ. eigenvalues --   -0.85089  -0.84670  -0.83553  -0.82946  -0.82336
 Alpha  occ. eigenvalues --   -0.81484  -0.80567  -0.80030  -0.79556  -0.78192
 Alpha  occ. eigenvalues --   -0.77887  -0.77876  -0.77297  -0.76780  -0.75756
 Alpha  occ. eigenvalues --   -0.75175  -0.74643  -0.73919  -0.72239  -0.70991
 Alpha  occ. eigenvalues --   -0.70721  -0.70138  -0.69495  -0.68654  -0.67711
 Alpha  occ. eigenvalues --   -0.67290  -0.66792  -0.66597  -0.66362  -0.66037
 Alpha  occ. eigenvalues --   -0.64980  -0.64776  -0.64748  -0.63527  -0.62684
 Alpha  occ. eigenvalues --   -0.62171  -0.61619  -0.61044  -0.60399  -0.60108
 Alpha  occ. eigenvalues --   -0.59549  -0.58988  -0.58502  -0.58389  -0.57660
 Alpha  occ. eigenvalues --   -0.57303  -0.56733  -0.56337  -0.55907  -0.55758
 Alpha  occ. eigenvalues --   -0.55701  -0.55386  -0.55204  -0.55059  -0.54811
 Alpha  occ. eigenvalues --   -0.54715  -0.54322  -0.54285  -0.53917  -0.53595
 Alpha  occ. eigenvalues --   -0.53457  -0.53213  -0.53097  -0.52885  -0.52700
 Alpha  occ. eigenvalues --   -0.52581  -0.52164  -0.52036  -0.51998  -0.51771
 Alpha  occ. eigenvalues --   -0.51436  -0.51127  -0.50926  -0.50776  -0.50436
 Alpha  occ. eigenvalues --   -0.50369  -0.50187  -0.50048  -0.49769  -0.49606
 Alpha  occ. eigenvalues --   -0.49452  -0.49289  -0.49265  -0.48904  -0.48884
 Alpha  occ. eigenvalues --   -0.48695  -0.47916  -0.47857  -0.47797  -0.47625
 Alpha  occ. eigenvalues --   -0.47476  -0.47008  -0.46953  -0.46618  -0.46578
 Alpha  occ. eigenvalues --   -0.46440  -0.46196  -0.46052  -0.45875  -0.45834
 Alpha  occ. eigenvalues --   -0.45706  -0.45564  -0.45147  -0.44999  -0.44859
 Alpha  occ. eigenvalues --   -0.44730  -0.44127  -0.44062  -0.43958  -0.43769
 Alpha  occ. eigenvalues --   -0.43490  -0.43360  -0.43293  -0.43160  -0.42984
 Alpha  occ. eigenvalues --   -0.42801  -0.42533  -0.42240  -0.42181  -0.42163
 Alpha  occ. eigenvalues --   -0.41908  -0.41665  -0.41165  -0.41009  -0.40639
 Alpha  occ. eigenvalues --   -0.40385  -0.40186  -0.39768  -0.39340  -0.38894
 Alpha  occ. eigenvalues --   -0.38816  -0.38724  -0.38393  -0.38094  -0.37905
 Alpha  occ. eigenvalues --   -0.37589  -0.37069  -0.36522  -0.36177  -0.35873
 Alpha  occ. eigenvalues --   -0.35577  -0.35463  -0.34701  -0.33345  -0.32661
 Alpha  occ. eigenvalues --   -0.32325  -0.32123  -0.31513  -0.31399  -0.25645
 Alpha  occ. eigenvalues --   -0.22946
 Alpha virt. eigenvalues --   -0.06864   0.00140   0.02204   0.04382   0.06418
 Alpha virt. eigenvalues --    0.06961   0.07340   0.08060   0.08463   0.08893
 Alpha virt. eigenvalues --    0.10964   0.11242   0.11796   0.11856   0.12497

 Mulliken charges:
               1
     1  Mg   0.977514
     2  C   -0.023554
     3  C   -0.088920
     4  C   -0.084452
     5  C   -0.132535
     6  N   -0.344464
     7  C    0.021209
     8  C   -0.058235
     9  C   -0.066389
    10  C    0.044485
    11  C    0.028965
    12  C    0.030414
    13  C   -0.021471
    14  C    0.210791
    15  O   -0.269038
    16  O   -0.367388
    17  N   -0.460680
    18  C    0.176812
    19  C   -0.140739
    20  C   -0.066538
    21  C    0.141272
    22  C    0.025277
    23  C    0.054013
    24  O   -0.253513
    25  C    0.014556
    26  N   -0.392785
    27  C    0.072825
    28  C   -0.059844
    29  C   -0.037461
    30  C   -0.001097
    31  C    0.038903
    32  C   -0.036686
    33  C   -0.038067
    34  N   -0.420649
    35  C    0.232067
    36  C   -0.196333
    37  C   -0.012477
    38  C    0.136129
    39  C    0.072339
    40  C    0.043594
    41  O   -0.176726
    42  C   -0.059450
    43  C    0.232825
    44  O   -0.284819
    45  O   -0.352061
    46  C    0.160540
    47  C    0.261715
    48  C   -0.173158
    49  C   -0.186540
    50  C    0.012641
    51  C    0.057160
    52  C   -0.032740
    53  C    0.022799
    54  C   -0.205420
    55  C   -0.008978
    56  C    0.037181
    57  C   -0.031832
    58  C    0.015856
    59  C   -0.188220
    60  C   -0.015242
    61  C    0.020969
    62  C   -0.013952
    63  C   -0.003347
    64  C   -0.210524
    65  C   -0.004931
    66  C    0.008828
    67  H    0.005847
    68  H    0.020428
    69  H   -0.012408
    70  H    0.028686
    71  H    0.029014
    72  H    0.045691
    73  H    0.026862
    74  H    0.031898
    75  H    0.031771
    76  H    0.080025
    77  H    0.050818
    78  H    0.047625
    79  H    0.020475
    80  H    0.054710
    81  H    0.054016
    82  H    0.034639
    83  H    0.063746
    84  H    0.066160
    85  H    0.046405
    86  H    0.039648
    87  H    0.057858
    88  H    0.032223
    89  H    0.035733
    90  H    0.028909
    91  H    0.021177
    92  H    0.042385
    93  H    0.025792
    94  H    0.028023
    95  H    0.051026
    96  H    0.054492
    97  H    0.035755
    98  H    0.076965
    99  H    0.039990
   100  H    0.081551
   101  H    0.050396
   102  H    0.071907
   103  H    0.061076
   104  H    0.025063
   105  H    0.047072
   106  H    0.029753
   107  H    0.044743
   108  H    0.028237
   109  H    0.051084
   110  H    0.013427
   111  H    0.014394
   112  H    0.018374
   113  H    0.023132
   114  H    0.002297
   115  H    0.022274
   116  H    0.033788
   117  H    0.031569
   118  H    0.015571
   119  H    0.016064
   120  H   -0.003034
   121  H    0.012305
   122  H    0.009295
   123  H    0.016074
   124  H    0.022764
   125  H    0.013431
   126  H    0.027206
   127  H    0.030128
   128  H    0.020839
   129  H    0.006829
   130  H    0.025761
   131  H    0.025005
   132  H    0.013364
   133  H    0.007129
   134  H    0.025598
   135  H    0.018354
   136  H    0.021413
   137  H    0.019618
   138  H    0.023176
   139  H    0.031179
   140  H    0.024989
 Sum of Mulliken charges =  -0.00000

 Dipole moment (field-independent basis, Debye):
    X=              1.6016    Y=              4.1859    Z=              3.9240  Tot=              5.9569
 Quadrupole moment (field-independent basis, Debye-Ang):
   XX=           -356.9143   YY=           -406.9359   ZZ=           -399.1275
   XY=            -11.7802   XZ=              1.8508   YZ=             11.1120

 Normal termination of Gaussian 16 at Thu May  5 15:40:20 2022.
