 Gaussian 16, Revision A.03,
 Gaussian 16:  ES64L-G16RevA.03 25-Dec-2016

 --------------------
 #p ZINDO=(nstates=5)
 --------------------

 -----------------------------
 step_951_chromophore_22 ZINDO
 -----------------------------
 Symbolic Z-matrix:
 Charge =  0 Multiplicity = 1

                         Standard orientation:
 ---------------------------------------------------------------------
 Center     Atomic      Atomic             Coordinates (Angstroms)
 Number     Number       Type             X           Y           Z
 ---------------------------------------------------------------------
      1         12           0       -6.101671    0.524878    0.038839
      2          6           0       -3.936054   -2.091380    0.335199
      3          6           0       -3.642062    2.626747    1.587743
      4          6           0       -8.120253    3.084781   -0.280651
      5          6           0       -8.660348   -1.742201   -0.620949
      6          7           0       -3.943136    0.272842    0.775405
      7          6           0       -3.239918   -0.896822    0.758457
      8          6           0       -1.856426   -0.711461    1.468404
      9          6           0       -2.009025    0.670147    2.214832
     10          6           0       -3.273357    1.267019    1.516628
     11          6           0       -2.081104    0.673346    3.709370
     12          6           0       -0.640886   -0.816404    0.471515
     13          6           0        0.354083   -2.015390    0.692237
     14          6           0        1.669812   -1.982916   -0.086687
     15          8           0        1.759230   -1.792922   -1.302700
     16          8           0        2.691475   -2.406037    0.721656
     17          7           0       -5.900516    2.535882    0.514701
     18          6           0       -4.853729    3.147398    1.210970
     19          6           0       -5.175758    4.603799    1.274818
     20          6           0       -6.368716    4.819828    0.493129
     21          6           0       -6.855733    3.455714    0.281860
     22          6           0       -4.082185    5.623033    1.785562
     23          6           0       -7.101489    6.090426    0.112909
     24          8           0       -8.092251    6.062454   -0.611465
     25          6           0       -6.698325    7.412988    0.388615
     26          7           0       -8.132143    0.604180   -0.419362
     27          6           0       -8.673485    1.829043   -0.688532
     28          6           0      -10.025349    1.673930   -1.324812
     29          6           0      -10.383320    0.136651   -1.079454
     30          6           0       -9.007112   -0.397267   -0.705365
     31          6           0      -11.131426    2.696545   -0.963715
     32          6           0      -11.165340   -0.647791   -2.185684
     33          6           0      -12.453641   -1.270286   -1.917399
     34          7           0       -6.294753   -1.503526   -0.167337
     35          6           0       -7.425241   -2.233950   -0.472346
     36          6           0       -7.050078   -3.574391   -0.561075
     37          6           0       -5.649236   -3.611761   -0.272808
     38          6           0       -5.297445   -2.310200   -0.117956
     39          6           0       -8.103829   -4.650708   -0.672263
     40          6           0       -4.493128   -4.418108   -0.040297
     41          8           0       -4.416410   -5.621942   -0.025395
     42          6           0       -3.357036   -3.481053    0.329406
     43          6           0       -2.364088   -3.653930   -0.661566
     44          8           0       -2.086439   -3.018514   -1.706551
     45          8           0       -1.816497   -4.857544   -0.492868
     46          6           0       -0.712229   -5.180934   -1.489979
     47          6           0        4.042075   -2.335628    0.191659
     48          6           0        4.980331   -1.625076    1.106223
     49          6           0        6.361044   -1.698790    1.096960
     50          6           0        7.216486   -2.413937   -0.000912
     51          6           0        7.176997   -0.901276    2.076097
     52          6           0        8.516467   -1.588204    2.569832
     53          6           0        9.752437   -0.738717    2.215040
     54          6           0       10.634591   -1.546678    1.302142
     55          6           0       11.463339   -2.693375    2.068600
     56          6           0       11.571791   -0.677853    0.476019
     57          6           0       10.995299    0.165819   -0.601850
     58          6           0       10.837215    1.663760   -0.388813
     59          6           0       11.110131    2.532863   -1.654367
     60          6           0        9.865880    3.373120   -1.974826
     61          6           0       12.282226    3.537797   -1.424562
     62          6           0       13.545199    3.053402   -2.152496
     63          6           0       14.609340    2.539310   -1.127650
     64          6           0       15.549423    1.435581   -1.639893
     65          6           0       15.342599    0.155858   -0.853080
     66          6           0       16.959747    1.926200   -1.934493
     67          1           0       -2.996505    3.304450    2.150343
     68          1           0       -8.744923    3.953706   -0.499709
     69          1           0       -9.549065   -2.342721   -0.824405
     70          1           0       -1.777257   -1.551613    2.158661
     71          1           0       -1.206751    1.363699    1.963566
     72          1           0       -1.176455    0.758687    4.310802
     73          1           0       -2.574367   -0.256438    3.992726
     74          1           0       -2.748447    1.440556    4.103006
     75          1           0       -0.004051    0.061936    0.577087
     76          1           0       -1.061246   -0.917261   -0.528655
     77          1           0       -0.194257   -2.893370    0.352912
     78          1           0        0.724854   -2.112369    1.713071
     79          1           0       -4.139603    6.481404    1.116984
     80          1           0       -3.039987    5.306670    1.728828
     81          1           0       -4.223588    6.104277    2.753422
     82          1           0       -6.596666    7.415664    1.473835
     83          1           0       -7.359753    8.247563    0.155596
     84          1           0       -5.699284    7.541740   -0.025518
     85          1           0       -9.760141    1.749345   -2.378502
     86          1           0      -10.963457    0.015455   -0.164100
     87          1           0      -10.972999    3.314187   -0.079701
     88          1           0      -12.122339    2.244334   -0.916103
     89          1           0      -11.210094    3.336575   -1.841801
     90          1           0      -10.531117   -1.415698   -2.630148
     91          1           0      -11.373793   -0.060853   -3.081150
     92          1           0      -13.241213   -1.002040   -2.620570
     93          1           0      -12.732405   -1.089807   -0.878807
     94          1           0      -12.331611   -2.351319   -1.985430
     95          1           0       -7.690921   -5.472158   -0.086804
     96          1           0       -8.337680   -4.894771   -1.708857
     97          1           0       -9.022710   -4.446647   -0.122518
     98          1           0       -3.001942   -3.773929    1.317676
     99          1           0        0.016483   -4.394166   -1.296349
    100          1           0       -1.005447   -5.225181   -2.538576
    101          1           0       -0.220064   -6.069254   -1.095150
    102          1           0        3.986819   -1.673731   -0.672294
    103          1           0        4.339296   -3.380525    0.102643
    104          1           0        4.478974   -1.076378    1.904253
    105          1           0        8.071595   -1.836745   -0.352610
    106          1           0        6.632958   -2.685767   -0.879899
    107          1           0        7.608557   -3.382450    0.306882
    108          1           0        6.521920   -0.796771    2.940429
    109          1           0        7.365634    0.077752    1.635291
    110          1           0        8.744161   -2.620405    2.304141
    111          1           0        8.513758   -1.729626    3.650552
    112          1           0       10.219621   -0.665904    3.197240
    113          1           0        9.633307    0.234104    1.737715
    114          1           0       10.024653   -2.069570    0.565255
    115          1           0       11.495841   -2.481917    3.137372
    116          1           0       12.493395   -2.811415    1.731351
    117          1           0       10.953968   -3.648619    1.941561
    118          1           0       12.242631   -1.336302   -0.078031
    119          1           0       12.090513   -0.009408    1.163419
    120          1           0        9.972061   -0.167387   -0.773906
    121          1           0       11.417147    0.015465   -1.595192
    122          1           0       11.460342    2.058900    0.413652
    123          1           0        9.792165    1.841258   -0.137969
    124          1           0       11.259536    1.874941   -2.510278
    125          1           0        9.527663    3.870124   -1.065839
    126          1           0        9.041016    2.726331   -2.272749
    127          1           0        9.980464    4.244113   -2.618412
    128          1           0       12.492315    3.708441   -0.368525
    129          1           0       11.951944    4.478481   -1.863819
    130          1           0       13.916378    3.986741   -2.575498
    131          1           0       13.411043    2.220474   -2.842107
    132          1           0       14.147196    2.360807   -0.157189
    133          1           0       15.252980    3.398054   -0.933971
    134          1           0       15.196860    0.996008   -2.572232
    135          1           0       14.721705    0.282994    0.032895
    136          1           0       16.261596   -0.359852   -0.572632
    137          1           0       14.753407   -0.559040   -1.427228
    138          1           0       17.231301    2.907641   -1.547592
    139          1           0       16.988863    2.015838   -3.020790
    140          1           0       17.781286    1.302850   -1.581350
 ---------------------------------------------------------------------

 SCF Done:  E(RZINDO/S) =  -474.598459109     A.U. after   19 cycles

 Excitation energies and oscillator strengths:

 Excited State   1:      Singlet-A      1.2810 eV  967.88 nm  f=0.5647  <S**2>=0.000
     175 ->178        -0.18881
     176 ->177         0.66401
 This state for optimization and/or second-order correction.
 Total Energy, E(CIS/TDA) =  -474.551383631
 Copying the excited state density for this state as the 1-particle RhoCI density.

 Excited State   2:      Singlet-A      1.8857 eV  657.50 nm  f=0.0520  <S**2>=0.000
     175 ->177         0.55820
     176 ->178         0.40392

 Excited State   3:      Singlet-A      2.6957 eV  459.93 nm  f=0.0034  <S**2>=0.000
     169 ->177         0.30355
     169 ->179        -0.41846
     169 ->180         0.22720
     169 ->184        -0.17189
     169 ->186        -0.22055
     171 ->177        -0.12414
     171 ->179         0.13783

 Excited State   4:      Singlet-A      2.9796 eV  416.11 nm  f=0.6611  <S**2>=0.000
     170 ->177        -0.15734
     170 ->179        -0.15593
     170 ->180        -0.19835
     175 ->177        -0.30988
     176 ->178         0.45238
     176 ->179        -0.13821
     176 ->180        -0.10010

 Excited State   5:      Singlet-A      2.9972 eV  413.67 nm  f=0.2893  <S**2>=0.000
     170 ->177         0.27125
     170 ->178        -0.10109
     170 ->179         0.22986
     170 ->180         0.32185
     170 ->186         0.12551
     170 ->187         0.12045
     175 ->177        -0.19409
     176 ->178         0.28166

 The electronic state is 1-A.
 Alpha  occ. eigenvalues --   -1.88517  -1.80864  -1.79032  -1.75320  -1.72917
 Alpha  occ. eigenvalues --   -1.70057  -1.67694  -1.62753  -1.62218  -1.59920
 Alpha  occ. eigenvalues --   -1.55042  -1.50704  -1.49026  -1.48814  -1.47366
 Alpha  occ. eigenvalues --   -1.42765  -1.40846  -1.39485  -1.39268  -1.38578
 Alpha  occ. eigenvalues --   -1.36713  -1.34342  -1.33085  -1.31923  -1.28634
 Alpha  occ. eigenvalues --   -1.27875  -1.25759  -1.22910  -1.21102  -1.18490
 Alpha  occ. eigenvalues --   -1.18108  -1.17308  -1.16364  -1.14802  -1.12901
 Alpha  occ. eigenvalues --   -1.12685  -1.11806  -1.09962  -1.05391  -1.03782
 Alpha  occ. eigenvalues --   -1.02924  -1.01525  -0.99565  -0.97378  -0.96709
 Alpha  occ. eigenvalues --   -0.95390  -0.94410  -0.93302  -0.93049  -0.91791
 Alpha  occ. eigenvalues --   -0.90762  -0.90351  -0.88919  -0.87846  -0.87730
 Alpha  occ. eigenvalues --   -0.86614  -0.84607  -0.82417  -0.80871  -0.80654
 Alpha  occ. eigenvalues --   -0.80342  -0.78235  -0.76799  -0.76422  -0.75642
 Alpha  occ. eigenvalues --   -0.75507  -0.74912  -0.74576  -0.73790  -0.73698
 Alpha  occ. eigenvalues --   -0.73207  -0.72951  -0.72258  -0.71711  -0.70838
 Alpha  occ. eigenvalues --   -0.70388  -0.69674  -0.69217  -0.68866  -0.68207
 Alpha  occ. eigenvalues --   -0.67696  -0.66711  -0.66509  -0.66360  -0.65705
 Alpha  occ. eigenvalues --   -0.65083  -0.64642  -0.64177  -0.63757  -0.63604
 Alpha  occ. eigenvalues --   -0.63004  -0.62715  -0.62563  -0.62509  -0.61840
 Alpha  occ. eigenvalues --   -0.61348  -0.61022  -0.60854  -0.60383  -0.60343
 Alpha  occ. eigenvalues --   -0.59506  -0.59411  -0.59105  -0.58662  -0.58091
 Alpha  occ. eigenvalues --   -0.57641  -0.57293  -0.57051  -0.56371  -0.56074
 Alpha  occ. eigenvalues --   -0.55992  -0.55321  -0.55078  -0.54608  -0.54395
 Alpha  occ. eigenvalues --   -0.53922  -0.53493  -0.53271  -0.53065  -0.52481
 Alpha  occ. eigenvalues --   -0.52174  -0.51937  -0.51845  -0.51748  -0.50877
 Alpha  occ. eigenvalues --   -0.50632  -0.50591  -0.50505  -0.50092  -0.49890
 Alpha  occ. eigenvalues --   -0.49606  -0.49525  -0.49499  -0.49084  -0.48850
 Alpha  occ. eigenvalues --   -0.48635  -0.48480  -0.47962  -0.47545  -0.47428
 Alpha  occ. eigenvalues --   -0.47284  -0.47019  -0.46796  -0.46502  -0.45979
 Alpha  occ. eigenvalues --   -0.45912  -0.45378  -0.45306  -0.45216  -0.44551
 Alpha  occ. eigenvalues --   -0.44439  -0.44375  -0.44159  -0.43793  -0.43520
 Alpha  occ. eigenvalues --   -0.43397  -0.42582  -0.42556  -0.41902  -0.41854
 Alpha  occ. eigenvalues --   -0.41124  -0.40746  -0.40456  -0.38964  -0.38282
 Alpha  occ. eigenvalues --   -0.37158  -0.36368  -0.35412  -0.34885  -0.33997
 Alpha  occ. eigenvalues --   -0.33853  -0.31780  -0.31690  -0.31604  -0.26320
 Alpha  occ. eigenvalues --   -0.21837
 Alpha virt. eigenvalues --   -0.08422  -0.02115  -0.00776   0.00861   0.02022
 Alpha virt. eigenvalues --    0.02886   0.03112   0.03339   0.04317   0.05079
 Alpha virt. eigenvalues --    0.05999   0.06477   0.07248   0.07257   0.07993

 Mulliken charges:
               1
     1  Mg   0.428559
     2  C   -0.050942
     3  C   -0.066411
     4  C   -0.090372
     5  C   -0.052610
     6  N   -0.291186
     7  C    0.094796
     8  C    0.011369
     9  C    0.016781
    10  C    0.137993
    11  C   -0.044828
    12  C   -0.022769
    13  C   -0.002095
    14  C    0.462825
    15  O   -0.516001
    16  O   -0.277645
    17  N   -0.327029
    18  C    0.123492
    19  C    0.004618
    20  C   -0.028889
    21  C    0.162111
    22  C   -0.051134
    23  C    0.342265
    24  O   -0.535190
    25  C   -0.010293
    26  N   -0.273539
    27  C    0.162913
    28  C    0.013614
    29  C    0.002443
    30  C    0.094927
    31  C   -0.051938
    32  C   -0.027369
    33  C   -0.048324
    34  N   -0.314668
    35  C    0.087703
    36  C    0.006065
    37  C   -0.062226
    38  C    0.130962
    39  C   -0.044578
    40  C    0.346133
    41  O   -0.528539
    42  C    0.068900
    43  C    0.495111
    44  O   -0.558680
    45  O   -0.267532
    46  C    0.071204
    47  C    0.104328
    48  C   -0.082209
    49  C   -0.024874
    50  C   -0.048518
    51  C   -0.016947
    52  C   -0.040952
    53  C   -0.034610
    54  C   -0.011476
    55  C   -0.065809
    56  C   -0.028006
    57  C   -0.035695
    58  C   -0.036012
    59  C   -0.015491
    60  C   -0.061067
    61  C   -0.035907
    62  C   -0.043682
    63  C   -0.039948
    64  C   -0.007348
    65  C   -0.055039
    66  C   -0.052208
    67  H    0.031475
    68  H    0.043495
    69  H    0.025642
    70  H    0.023371
    71  H    0.026158
    72  H    0.025403
    73  H    0.014685
    74  H    0.017137
    75  H    0.023802
    76  H    0.052219
    77  H    0.057296
    78  H    0.030789
    79  H    0.015873
    80  H    0.032816
    81  H    0.034458
    82  H    0.021797
    83  H    0.048031
    84  H    0.040994
    85  H    0.040343
    86  H    0.031946
    87  H    0.035015
    88  H    0.017654
    89  H    0.018147
    90  H    0.017907
    91  H    0.012387
    92  H    0.023788
    93  H    0.016356
    94  H    0.012560
    95  H    0.024980
    96  H    0.037702
    97  H    0.020924
    98  H    0.058675
    99  H    0.037804
   100  H    0.066964
   101  H    0.027771
   102  H    0.069005
   103  H    0.054134
   104  H    0.033659
   105  H    0.029768
   106  H    0.014777
   107  H    0.027253
   108  H    0.017880
   109  H    0.036726
   110  H    0.030611
   111  H    0.009013
   112  H    0.017772
   113  H    0.031900
   114  H    0.018262
   115  H    0.017721
   116  H    0.021750
   117  H    0.016751
   118  H    0.012714
   119  H    0.018325
   120  H    0.005669
   121  H    0.018492
   122  H    0.020819
   123  H    0.016121
   124  H    0.027178
   125  H    0.006663
   126  H    0.013014
   127  H    0.019935
   128  H    0.027107
   129  H    0.014497
   130  H    0.020412
   131  H    0.033325
   132  H    0.024879
   133  H    0.007205
   134  H    0.017795
   135  H    0.014466
   136  H    0.016283
   137  H    0.011006
   138  H    0.017735
   139  H    0.015447
   140  H    0.019043
 Sum of Mulliken charges =  -0.00000

 Dipole moment (field-independent basis, Debye):
    X=              2.1014    Y=              7.2067    Z=              7.8810  Tot=             10.8841
 N-N= 4.226891979073D+03 E-N= 0.000000000000D+00  KE=-9.128885970174D+03
 Leave Link  601 at Thu May  5 15:57:49 2022, MaxMem=  6710886400 cpu:               1.9 elap:               0.1
 (Enter /sw/apps/gaussian-16.0/g16/l9999.exe)
 1\1\GINC-BP1-COMPUTE176\SP\RZINDO CIS\STO-3G\C55H74Mg1N4O6\OF15641\05-
 May-2022\0\\#p ZINDO=(nstates=5)\\step_951_chromophore_22 ZINDO\\0,1\M
 g,0,8.469,47.632,24.829\C,0,6.447,47.897,27.561\C,0,11.229,48.659,26.8
 77\C,0,10.466,47.331,22.25\C,0,5.633,47.511,22.813\N,0,8.787,48.113,27
 .05\C,0,7.807,48.117,28.\C,0,8.375,48.628,29.367\C,0,9.768,49.256,28.9
 74\C,0,9.985,48.669,27.542\C,0,9.933,50.741,29.054\C,0,8.422,47.501,30
 .467\C,0,7.506,47.706,31.73\C,0,7.734,46.769,32.917\O,0,7.793,45.539,3

 Normal termination of Gaussian 16 at Thu May  5 15:57:50 2022.
