 Gaussian 16, Revision A.03,
 Gaussian 16:  ES64L-G16RevA.03 25-Dec-2016

 ------------------------------
 #p blyp/Def2SVP td=(nstates=5)
 ------------------------------

 --------------------------------------------------
 step_251_chromophore_11 TDDFT with blyp functional
 --------------------------------------------------
 Symbolic Z-matrix:
 Charge =  0 Multiplicity = 1

                         Standard orientation:
 ---------------------------------------------------------------------
 Center     Atomic      Atomic             Coordinates (Angstroms)
 Number     Number       Type             X           Y           Z
 ---------------------------------------------------------------------
      1         12           0       -4.554886    1.383956    0.617204
      2          6           0       -5.439437   -1.973497    0.073814
      3          6           0       -2.378842    0.338281    3.065376
      4          6           0       -3.252130    4.423779    0.528573
      5          6           0       -6.642209    2.300789   -2.106827
      6          7           0       -3.807862   -0.588027    1.275183
      7          6           0       -4.316969   -1.864167    0.921089
      8          6           0       -3.904626   -2.924370    1.857021
      9          6           0       -2.987431   -2.128700    2.882918
     10          6           0       -3.080541   -0.685827    2.412248
     11          6           0       -3.360852   -2.412859    4.357987
     12          6           0       -3.061951   -4.003757    1.248952
     13          6           0       -2.048052   -3.569632    0.179978
     14          6           0       -0.640156   -4.270910    0.048732
     15          8           0       -0.302002   -5.162071   -0.747379
     16          8           0        0.268268   -3.752174    1.006869
     17          7           0       -3.031186    2.315768    1.679033
     18          6           0       -2.371263    1.740654    2.702462
     19          6           0       -1.537373    2.738525    3.324428
     20          6           0       -1.818378    3.959118    2.662435
     21          6           0       -2.761277    3.629105    1.581656
     22          6           0       -0.547927    2.496834    4.432512
     23          6           0       -1.231181    5.323711    3.021730
     24          8           0       -0.440024    5.444694    3.936552
     25          6           0       -1.421247    6.619267    2.289925
     26          7           0       -4.703766    3.033070   -0.762399
     27          6           0       -4.083454    4.234079   -0.542970
     28          6           0       -4.683262    5.361761   -1.445774
     29          6           0       -5.532843    4.544191   -2.465296
     30          6           0       -5.655048    3.222959   -1.738236
     31          6           0       -5.560623    6.405200   -0.712844
     32          6           0       -4.812197    4.177718   -3.847604
     33          6           0       -5.592941    4.402938   -5.091534
     34          7           0       -5.835945    0.473047   -0.655499
     35          6           0       -6.707018    0.993539   -1.530449
     36          6           0       -7.785309   -0.015867   -1.851796
     37          6           0       -7.310807   -1.182175   -1.171340
     38          6           0       -6.052069   -0.871210   -0.583502
     39          6           0       -9.035617    0.111199   -2.710196
     40          6           0       -7.558246   -2.588017   -1.029603
     41          8           0       -8.440132   -3.291169   -1.496934
     42          6           0       -6.349353   -3.149310   -0.177422
     43          6           0       -5.562661   -4.073025   -1.084057
     44          8           0       -4.913737   -3.778693   -2.032874
     45          8           0       -5.628643   -5.343825   -0.553548
     46          6           0       -4.682769   -6.285681   -1.160634
     47          6           0        1.492767   -4.504167    1.163889
     48          6           0        2.538568   -3.922518    0.259271
     49          6           0        3.832468   -4.219342    0.127029
     50          6           0        4.349005   -5.400940    0.859401
     51          6           0        4.815416   -3.496999   -0.866513
     52          6           0        5.447827   -2.237561   -0.310832
     53          6           0        5.807346   -1.275915   -1.484803
     54          6           0        5.888186    0.272441   -1.036469
     55          6           0        4.903280    1.202387   -1.665755
     56          6           0        7.303339    0.777641   -1.319247
     57          6           0        8.373122   -0.012454   -0.457187
     58          6           0        9.154735    0.933349    0.492372
     59          6           0       10.664676    0.475880    0.585424
     60          6           0       11.062272    0.418341    2.087030
     61          6           0       11.645265    1.235001   -0.347721
     62          6           0       12.720105    0.240982   -0.904046
     63          6           0       13.713903    1.005318   -1.845811
     64          6           0       15.170127    0.758765   -1.420009
     65          6           0       15.560584    1.643720   -0.265392
     66          6           0       16.211096    0.930323   -2.511688
     67          1           0       -1.845138    0.024768    3.964790
     68          1           0       -2.964125    5.474001    0.599045
     69          1           0       -7.355094    2.686095   -2.838786
     70          1           0       -4.809706   -3.365358    2.274690
     71          1           0       -1.912439   -2.272815    2.775116
     72          1           0       -2.374080   -2.617711    4.773599
     73          1           0       -4.030853   -3.272698    4.355591
     74          1           0       -3.769080   -1.541524    4.870454
     75          1           0       -3.625448   -4.886302    0.944991
     76          1           0       -2.409529   -4.523090    1.951252
     77          1           0       -1.913431   -2.499897    0.343674
     78          1           0       -2.630704   -3.668863   -0.736035
     79          1           0        0.404580    2.983411    4.219972
     80          1           0       -0.450075    1.426552    4.613828
     81          1           0       -1.006237    2.969731    5.301416
     82          1           0       -0.998169    6.657359    1.286620
     83          1           0       -0.771976    7.279005    2.865702
     84          1           0       -2.413236    7.050144    2.429737
     85          1           0       -3.851067    5.893316   -1.907119
     86          1           0       -6.517782    4.973225   -2.651289
     87          1           0       -6.592441    6.281086   -1.041059
     88          1           0       -5.112077    7.398263   -0.734411
     89          1           0       -5.562241    6.167988    0.350429
     90          1           0       -4.442492    3.152650   -3.836484
     91          1           0       -3.934692    4.824427   -3.859642
     92          1           0       -5.084666    5.054733   -5.801810
     93          1           0       -6.595047    4.793157   -4.912243
     94          1           0       -5.743702    3.477713   -5.647053
     95          1           0       -8.949386   -0.644238   -3.491227
     96          1           0       -9.140120    1.159987   -2.990809
     97          1           0       -9.856509   -0.225007   -2.076920
     98          1           0       -6.681593   -3.657582    0.727496
     99          1           0       -3.774239   -5.804151   -1.522041
    100          1           0       -5.246576   -6.707421   -1.992772
    101          1           0       -4.578749   -7.100731   -0.444926
    102          1           0        1.316830   -5.541197    0.876854
    103          1           0        1.718972   -4.391173    2.224589
    104          1           0        2.173855   -3.079899   -0.327426
    105          1           0        5.432881   -5.477562    0.774724
    106          1           0        3.900584   -6.263666    0.365823
    107          1           0        4.097882   -5.446027    1.919200
    108          1           0        4.220222   -3.287232   -1.754710
    109          1           0        5.607758   -4.206474   -1.102402
    110          1           0        6.380259   -2.579393    0.139329
    111          1           0        4.833806   -1.719247    0.424890
    112          1           0        5.085041   -1.379529   -2.293117
    113          1           0        6.776356   -1.562318   -1.893530
    114          1           0        5.670128    0.368016    0.027547
    115          1           0        4.140427    1.537753   -0.964153
    116          1           0        4.520341    0.751786   -2.581569
    117          1           0        5.357423    2.174834   -1.856414
    118          1           0        7.283864    1.844839   -1.096944
    119          1           0        7.647791    0.564754   -2.331078
    120          1           0        9.020256   -0.610567   -1.098566
    121          1           0        7.872334   -0.769344    0.147386
    122          1           0        8.703478    0.907017    1.484203
    123          1           0        9.116755    1.934376    0.064625
    124          1           0       10.895311   -0.547174    0.289290
    125          1           0       10.185939    0.473639    2.733922
    126          1           0       11.919914    1.057154    2.298704
    127          1           0       11.395079   -0.579469    2.372013
    128          1           0       12.313135    1.966457    0.108070
    129          1           0       11.185669    1.557999   -1.281193
    130          1           0       12.274633   -0.514096   -1.551641
    131          1           0       13.246155   -0.290959   -0.110691
    132          1           0       13.518875    2.076798   -1.803630
    133          1           0       13.590648    0.717406   -2.888909
    134          1           0       15.232022   -0.305045   -1.188025
    135          1           0       14.808014    1.584711    0.521491
    136          1           0       15.728003    2.672106   -0.585958
    137          1           0       16.491681    1.236681    0.129584
    138          1           0       17.055416    1.546811   -2.202151
    139          1           0       15.773095    1.399619   -3.393396
    140          1           0       16.679202   -0.034556   -2.706861
 ---------------------------------------------------------------------

 SCF Done:  E(RB-LYP) =  -3007.37292810     A.U. after   20 cycles

 Excitation energies and oscillator strengths:

 Excited State   1:      Singlet-A      1.7635 eV  703.06 nm  f=0.0002  <S**2>=0.000
     244 -> 247        0.70239
 This state for optimization and/or second-order correction.
 Total Energy, E(TD-HF/TD-DFT) =  -3007.30812077
 Copying the excited state density for this state as the 1-particle RhoCI density.

 Excited State   2:      Singlet-A      1.7950 eV  690.72 nm  f=0.2907  <S**2>=0.000
     245 -> 248       -0.18614
     246 -> 247        0.69349
     246 <- 247       -0.15657

 Excited State   3:      Singlet-A      2.0131 eV  615.89 nm  f=0.0004  <S**2>=0.000
     243 -> 247        0.70456

 Excited State   4:      Singlet-A      2.0764 eV  597.11 nm  f=0.0760  <S**2>=0.000
     245 -> 247        0.63245
     246 -> 248        0.27892

 Excited State   5:      Singlet-A      2.1249 eV  583.49 nm  f=0.0000  <S**2>=0.000
     242 -> 247        0.70709

 The electronic state is 1-A.
 Alpha  occ. eigenvalues --  -46.27110 -18.81881 -18.81657 -18.77708 -18.77281
 Alpha  occ. eigenvalues --  -18.75957 -18.75064 -14.03555 -14.03108 -14.01261
 Alpha  occ. eigenvalues --  -14.01129 -10.05050 -10.03826  -9.99680  -9.99524
 Alpha  occ. eigenvalues --   -9.97731  -9.97247  -9.96806  -9.96513  -9.96457
 Alpha  occ. eigenvalues --   -9.96380  -9.96362  -9.96077  -9.95676  -9.95074
 Alpha  occ. eigenvalues --   -9.94587  -9.94472  -9.94258  -9.94184  -9.94144
 Alpha  occ. eigenvalues --   -9.94126  -9.93931  -9.93667  -9.93345  -9.93240
 Alpha  occ. eigenvalues --   -9.93115  -9.93088  -9.92967  -9.92914  -9.92888
 Alpha  occ. eigenvalues --   -9.92800  -9.92524  -9.92471  -9.91921  -9.91873
 Alpha  occ. eigenvalues --   -9.91825  -9.91781  -9.91529  -9.91498  -9.91431
 Alpha  occ. eigenvalues --   -9.91407  -9.91264  -9.91238  -9.91137  -9.91114
 Alpha  occ. eigenvalues --   -9.91036  -9.90917  -9.90901  -9.90593  -9.90585
 Alpha  occ. eigenvalues --   -9.90581  -9.90528  -9.90509  -9.90375  -9.90159
 Alpha  occ. eigenvalues --   -9.90045  -2.91850  -1.72235  -1.71750  -1.71568
 Alpha  occ. eigenvalues --   -0.98605  -0.96806  -0.92004  -0.91564  -0.90988
 Alpha  occ. eigenvalues --   -0.89399  -0.86940  -0.86450  -0.85769  -0.85185
 Alpha  occ. eigenvalues --   -0.76076  -0.73876  -0.73128  -0.72808  -0.72704
 Alpha  occ. eigenvalues --   -0.71972  -0.71825  -0.71038  -0.70679  -0.69851
 Alpha  occ. eigenvalues --   -0.69379  -0.69018  -0.68265  -0.68038  -0.67349
 Alpha  occ. eigenvalues --   -0.66533  -0.66081  -0.65077  -0.64939  -0.64484
 Alpha  occ. eigenvalues --   -0.64055  -0.62535  -0.62371  -0.61746  -0.60722
 Alpha  occ. eigenvalues --   -0.60038  -0.59864  -0.59733  -0.59154  -0.58647
 Alpha  occ. eigenvalues --   -0.58202  -0.57573  -0.56879  -0.55858  -0.54397
 Alpha  occ. eigenvalues --   -0.54257  -0.52974  -0.52828  -0.51949  -0.51837
 Alpha  occ. eigenvalues --   -0.51320  -0.51073  -0.50981  -0.50529  -0.49618
 Alpha  occ. eigenvalues --   -0.49372  -0.48673  -0.48281  -0.48097  -0.46404
 Alpha  occ. eigenvalues --   -0.46041  -0.45969  -0.45647  -0.45527  -0.45132
 Alpha  occ. eigenvalues --   -0.44753  -0.44102  -0.43205  -0.42743  -0.42316
 Alpha  occ. eigenvalues --   -0.42158  -0.41956  -0.41787  -0.41439  -0.41120
 Alpha  occ. eigenvalues --   -0.40816  -0.40452  -0.40316  -0.40040  -0.39931
 Alpha  occ. eigenvalues --   -0.39849  -0.39740  -0.39688  -0.39614  -0.39249
 Alpha  occ. eigenvalues --   -0.38918  -0.38789  -0.38702  -0.38505  -0.38246
 Alpha  occ. eigenvalues --   -0.38139  -0.37919  -0.37785  -0.37717  -0.37430
 Alpha  occ. eigenvalues --   -0.37255  -0.37105  -0.36848  -0.36750  -0.36632
 Alpha  occ. eigenvalues --   -0.36374  -0.36193  -0.35876  -0.35809  -0.35510
 Alpha  occ. eigenvalues --   -0.35340  -0.35239  -0.35150  -0.34996  -0.34828
 Alpha  occ. eigenvalues --   -0.34706  -0.34511  -0.34306  -0.34096  -0.33972
 Alpha  occ. eigenvalues --   -0.33882  -0.33825  -0.33486  -0.33359  -0.33226
 Alpha  occ. eigenvalues --   -0.33117  -0.32777  -0.32514  -0.32329  -0.32158
 Alpha  occ. eigenvalues --   -0.32048  -0.31888  -0.31850  -0.31695  -0.31385
 Alpha  occ. eigenvalues --   -0.31182  -0.31103  -0.30975  -0.30959  -0.30766
 Alpha  occ. eigenvalues --   -0.30602  -0.30496  -0.30441  -0.30190  -0.29986
 Alpha  occ. eigenvalues --   -0.29656  -0.29450  -0.29423  -0.29330  -0.28939
 Alpha  occ. eigenvalues --   -0.28855  -0.28133  -0.28122  -0.28061  -0.27667
 Alpha  occ. eigenvalues --   -0.27406  -0.27252  -0.26592  -0.26542  -0.26413
 Alpha  occ. eigenvalues --   -0.26252  -0.26003  -0.25542  -0.25477  -0.25069
 Alpha  occ. eigenvalues --   -0.24830  -0.24682  -0.24586  -0.23840  -0.23498
 Alpha  occ. eigenvalues --   -0.22937  -0.22915  -0.22346  -0.22117  -0.20618
 Alpha  occ. eigenvalues --   -0.20459  -0.19539  -0.19018  -0.18157  -0.17611
 Alpha  occ. eigenvalues --   -0.15896
 Alpha virt. eigenvalues --   -0.11730  -0.07123  -0.06355  -0.04554  -0.04144
 Alpha virt. eigenvalues --   -0.03561  -0.02089  -0.01576  -0.00938   0.00238
 Alpha virt. eigenvalues --    0.01090   0.01725   0.02396   0.02893   0.03088

 Mulliken charges:
               1
     1  Mg   0.698684
     2  C   -0.043373
     3  C   -0.070437
     4  C   -0.022644
     5  C   -0.079794
     6  N   -0.231995
     7  C   -0.068004
     8  C    0.083156
     9  C   -0.037634
    10  C    0.013929
    11  C    0.145470
    12  C    0.079720
    13  C    0.105952
    14  C    0.117819
    15  O   -0.189180
    16  O   -0.293875
    17  N   -0.261243
    18  C    0.131689
    19  C   -0.181579
    20  C    0.076646
    21  C    0.105926
    22  C    0.214871
    23  C   -0.112896
    24  O   -0.168375
    25  C    0.145096
    26  N   -0.220785
    27  C   -0.010469
    28  C    0.026551
    29  C   -0.005585
    30  C    0.001394
    31  C    0.150169
    32  C    0.108461
    33  C    0.075586
    34  N   -0.254129
    35  C    0.134613
    36  C   -0.202229
    37  C    0.071729
    38  C    0.100060
    39  C    0.195336
    40  C   -0.042326
    41  O   -0.130451
    42  C    0.089726
    43  C    0.093650
    44  O   -0.144855
    45  O   -0.284287
    46  C    0.218914
    47  C    0.351012
    48  C   -0.136706
    49  C   -0.160764
    50  C    0.131083
    51  C    0.138253
    52  C    0.082125
    53  C    0.095306
    54  C   -0.080250
    55  C    0.144877
    56  C    0.083493
    57  C    0.030878
    58  C    0.145152
    59  C   -0.063445
    60  C    0.105066
    61  C    0.098880
    62  C    0.003591
    63  C    0.116577
    64  C   -0.110676
    65  C    0.114029
    66  C    0.118333
    67  H   -0.061744
    68  H   -0.090869
    69  H   -0.059636
    70  H   -0.021501
    71  H   -0.000826
    72  H   -0.006598
    73  H   -0.000573
    74  H   -0.001307
    75  H   -0.032082
    76  H   -0.040619
    77  H    0.005065
    78  H    0.011391
    79  H    0.013772
    80  H   -0.025874
    81  H    0.004558
    82  H    0.015679
    83  H   -0.019934
    84  H    0.003125
    85  H   -0.028475
    86  H   -0.026706
    87  H   -0.006068
    88  H   -0.000421
    89  H   -0.019604
    90  H    0.003848
    91  H   -0.028381
    92  H   -0.008281
    93  H   -0.017174
    94  H   -0.010485
    95  H    0.020796
    96  H   -0.006490
    97  H    0.008449
    98  H   -0.011545
    99  H    0.039451
   100  H    0.010102
   101  H    0.012764
   102  H    0.000444
   103  H    0.000476
   104  H   -0.039247
   105  H   -0.023331
   106  H    0.009321
   107  H   -0.006879
   108  H   -0.018268
   109  H   -0.037051
   110  H   -0.021420
   111  H   -0.014750
   112  H   -0.034043
   113  H   -0.030306
   114  H   -0.041519
   115  H   -0.026619
   116  H   -0.014425
   117  H   -0.038170
   118  H   -0.027913
   119  H   -0.028382
   120  H   -0.029800
   121  H   -0.033147
   122  H   -0.032693
   123  H   -0.023489
   124  H   -0.029273
   125  H   -0.025001
   126  H   -0.015022
   127  H   -0.035361
   128  H   -0.022289
   129  H   -0.026710
   130  H   -0.029951
   131  H   -0.019961
   132  H   -0.039743
   133  H   -0.041502
   134  H   -0.038670
   135  H   -0.021545
   136  H   -0.010228
   137  H   -0.019674
   138  H   -0.032842
   139  H   -0.019025
   140  H   -0.021615
 Sum of Mulliken charges =  -0.00000

 Dipole moment (field-independent basis, Debye):
    X=             -0.4099    Y=              1.9801    Z=              1.3551  Tot=              2.4342
 Quadrupole moment (field-independent basis, Debye-Ang):
   XX=           -406.7778   YY=           -396.6470   ZZ=           -409.1125
   XY=            -45.3230   XZ=            -12.6806   YZ=            -38.6515

 Normal termination of Gaussian 16 at Fri Apr 29 10:12:43 2022.
