 Gaussian 16, Revision A.03,
 Gaussian 16:  ES64L-G16RevA.03 25-Dec-2016

 -----------------------------------
 #p cam-b3lyp/Def2SVP td=(nstates=5)
 -----------------------------------

 -------------------------------------------------------
 step_251_chromophore_11 TDDFT with cam-b3lyp functional
 -------------------------------------------------------
 Symbolic Z-matrix:
 Charge =  0 Multiplicity = 1

                         Standard orientation:
 ---------------------------------------------------------------------
 Center     Atomic      Atomic             Coordinates (Angstroms)
 Number     Number       Type             X           Y           Z
 ---------------------------------------------------------------------
      1         12           0       -4.554886    1.383956    0.617204
      2          6           0       -5.439437   -1.973497    0.073814
      3          6           0       -2.378842    0.338281    3.065376
      4          6           0       -3.252130    4.423779    0.528573
      5          6           0       -6.642209    2.300789   -2.106827
      6          7           0       -3.807862   -0.588027    1.275183
      7          6           0       -4.316969   -1.864167    0.921089
      8          6           0       -3.904626   -2.924370    1.857021
      9          6           0       -2.987431   -2.128700    2.882918
     10          6           0       -3.080541   -0.685827    2.412248
     11          6           0       -3.360852   -2.412859    4.357987
     12          6           0       -3.061951   -4.003757    1.248952
     13          6           0       -2.048052   -3.569632    0.179978
     14          6           0       -0.640156   -4.270910    0.048732
     15          8           0       -0.302002   -5.162071   -0.747379
     16          8           0        0.268268   -3.752174    1.006869
     17          7           0       -3.031186    2.315768    1.679033
     18          6           0       -2.371263    1.740654    2.702462
     19          6           0       -1.537373    2.738525    3.324428
     20          6           0       -1.818378    3.959118    2.662435
     21          6           0       -2.761277    3.629105    1.581656
     22          6           0       -0.547927    2.496834    4.432512
     23          6           0       -1.231181    5.323711    3.021730
     24          8           0       -0.440024    5.444694    3.936552
     25          6           0       -1.421247    6.619267    2.289925
     26          7           0       -4.703766    3.033070   -0.762399
     27          6           0       -4.083454    4.234079   -0.542970
     28          6           0       -4.683262    5.361761   -1.445774
     29          6           0       -5.532843    4.544191   -2.465296
     30          6           0       -5.655048    3.222959   -1.738236
     31          6           0       -5.560623    6.405200   -0.712844
     32          6           0       -4.812197    4.177718   -3.847604
     33          6           0       -5.592941    4.402938   -5.091534
     34          7           0       -5.835945    0.473047   -0.655499
     35          6           0       -6.707018    0.993539   -1.530449
     36          6           0       -7.785309   -0.015867   -1.851796
     37          6           0       -7.310807   -1.182175   -1.171340
     38          6           0       -6.052069   -0.871210   -0.583502
     39          6           0       -9.035617    0.111199   -2.710196
     40          6           0       -7.558246   -2.588017   -1.029603
     41          8           0       -8.440132   -3.291169   -1.496934
     42          6           0       -6.349353   -3.149310   -0.177422
     43          6           0       -5.562661   -4.073025   -1.084057
     44          8           0       -4.913737   -3.778693   -2.032874
     45          8           0       -5.628643   -5.343825   -0.553548
     46          6           0       -4.682769   -6.285681   -1.160634
     47          6           0        1.492767   -4.504167    1.163889
     48          6           0        2.538568   -3.922518    0.259271
     49          6           0        3.832468   -4.219342    0.127029
     50          6           0        4.349005   -5.400940    0.859401
     51          6           0        4.815416   -3.496999   -0.866513
     52          6           0        5.447827   -2.237561   -0.310832
     53          6           0        5.807346   -1.275915   -1.484803
     54          6           0        5.888186    0.272441   -1.036469
     55          6           0        4.903280    1.202387   -1.665755
     56          6           0        7.303339    0.777641   -1.319247
     57          6           0        8.373122   -0.012454   -0.457187
     58          6           0        9.154735    0.933349    0.492372
     59          6           0       10.664676    0.475880    0.585424
     60          6           0       11.062272    0.418341    2.087030
     61          6           0       11.645265    1.235001   -0.347721
     62          6           0       12.720105    0.240982   -0.904046
     63          6           0       13.713903    1.005318   -1.845811
     64          6           0       15.170127    0.758765   -1.420009
     65          6           0       15.560584    1.643720   -0.265392
     66          6           0       16.211096    0.930323   -2.511688
     67          1           0       -1.845138    0.024768    3.964790
     68          1           0       -2.964125    5.474001    0.599045
     69          1           0       -7.355094    2.686095   -2.838786
     70          1           0       -4.809706   -3.365358    2.274690
     71          1           0       -1.912439   -2.272815    2.775116
     72          1           0       -2.374080   -2.617711    4.773599
     73          1           0       -4.030853   -3.272698    4.355591
     74          1           0       -3.769080   -1.541524    4.870454
     75          1           0       -3.625448   -4.886302    0.944991
     76          1           0       -2.409529   -4.523090    1.951252
     77          1           0       -1.913431   -2.499897    0.343674
     78          1           0       -2.630704   -3.668863   -0.736035
     79          1           0        0.404580    2.983411    4.219972
     80          1           0       -0.450075    1.426552    4.613828
     81          1           0       -1.006237    2.969731    5.301416
     82          1           0       -0.998169    6.657359    1.286620
     83          1           0       -0.771976    7.279005    2.865702
     84          1           0       -2.413236    7.050144    2.429737
     85          1           0       -3.851067    5.893316   -1.907119
     86          1           0       -6.517782    4.973225   -2.651289
     87          1           0       -6.592441    6.281086   -1.041059
     88          1           0       -5.112077    7.398263   -0.734411
     89          1           0       -5.562241    6.167988    0.350429
     90          1           0       -4.442492    3.152650   -3.836484
     91          1           0       -3.934692    4.824427   -3.859642
     92          1           0       -5.084666    5.054733   -5.801810
     93          1           0       -6.595047    4.793157   -4.912243
     94          1           0       -5.743702    3.477713   -5.647053
     95          1           0       -8.949386   -0.644238   -3.491227
     96          1           0       -9.140120    1.159987   -2.990809
     97          1           0       -9.856509   -0.225007   -2.076920
     98          1           0       -6.681593   -3.657582    0.727496
     99          1           0       -3.774239   -5.804151   -1.522041
    100          1           0       -5.246576   -6.707421   -1.992772
    101          1           0       -4.578749   -7.100731   -0.444926
    102          1           0        1.316830   -5.541197    0.876854
    103          1           0        1.718972   -4.391173    2.224589
    104          1           0        2.173855   -3.079899   -0.327426
    105          1           0        5.432881   -5.477562    0.774724
    106          1           0        3.900584   -6.263666    0.365823
    107          1           0        4.097882   -5.446027    1.919200
    108          1           0        4.220222   -3.287232   -1.754710
    109          1           0        5.607758   -4.206474   -1.102402
    110          1           0        6.380259   -2.579393    0.139329
    111          1           0        4.833806   -1.719247    0.424890
    112          1           0        5.085041   -1.379529   -2.293117
    113          1           0        6.776356   -1.562318   -1.893530
    114          1           0        5.670128    0.368016    0.027547
    115          1           0        4.140427    1.537753   -0.964153
    116          1           0        4.520341    0.751786   -2.581569
    117          1           0        5.357423    2.174834   -1.856414
    118          1           0        7.283864    1.844839   -1.096944
    119          1           0        7.647791    0.564754   -2.331078
    120          1           0        9.020256   -0.610567   -1.098566
    121          1           0        7.872334   -0.769344    0.147386
    122          1           0        8.703478    0.907017    1.484203
    123          1           0        9.116755    1.934376    0.064625
    124          1           0       10.895311   -0.547174    0.289290
    125          1           0       10.185939    0.473639    2.733922
    126          1           0       11.919914    1.057154    2.298704
    127          1           0       11.395079   -0.579469    2.372013
    128          1           0       12.313135    1.966457    0.108070
    129          1           0       11.185669    1.557999   -1.281193
    130          1           0       12.274633   -0.514096   -1.551641
    131          1           0       13.246155   -0.290959   -0.110691
    132          1           0       13.518875    2.076798   -1.803630
    133          1           0       13.590648    0.717406   -2.888909
    134          1           0       15.232022   -0.305045   -1.188025
    135          1           0       14.808014    1.584711    0.521491
    136          1           0       15.728003    2.672106   -0.585958
    137          1           0       16.491681    1.236681    0.129584
    138          1           0       17.055416    1.546811   -2.202151
    139          1           0       15.773095    1.399619   -3.393396
    140          1           0       16.679202   -0.034556   -2.706861
 ---------------------------------------------------------------------

 SCF Done:  E(RCAM-B3LYP) =  -3007.17386911     A.U. after   18 cycles

 Excitation energies and oscillator strengths:

 Excited State   1:      Singlet-A      1.6667 eV  743.88 nm  f=0.3645  <S**2>=0.000
     245 -> 248        0.17255
     246 -> 247        0.68773
     245 <- 248        0.10761
 This state for optimization and/or second-order correction.
 Total Energy, E(TD-HF/TD-DFT) =  -3007.11261827
 Copying the excited state density for this state as the 1-particle RhoCI density.

 Excited State   2:      Singlet-A      2.2655 eV  547.26 nm  f=0.0997  <S**2>=0.000
     245 -> 247        0.62884
     246 -> 248       -0.31074

 Excited State   3:      Singlet-A      3.3822 eV  366.58 nm  f=0.0030  <S**2>=0.000
     239 -> 247        0.10035
     242 -> 247        0.26567
     243 -> 247        0.62862

 Excited State   4:      Singlet-A      3.4302 eV  361.45 nm  f=0.0609  <S**2>=0.000
     242 -> 247        0.56170
     243 -> 247       -0.23890
     246 -> 248       -0.30136

 Excited State   5:      Singlet-A      3.5335 eV  350.88 nm  f=0.6245  <S**2>=0.000
     240 -> 247       -0.15461
     240 -> 249        0.10895
     242 -> 247        0.26452
     245 -> 247        0.28821
     246 -> 248        0.52905
     246 -> 249       -0.11525

 The electronic state is 1-A.
 Alpha  occ. eigenvalues --  -46.88692 -19.24703 -19.24604 -19.20768 -19.20472
 Alpha  occ. eigenvalues --  -19.19194 -19.18338 -14.42533 -14.41981 -14.39696
 Alpha  occ. eigenvalues --  -14.39638 -10.40537 -10.39290 -10.35067 -10.34693
 Alpha  occ. eigenvalues --  -10.31666 -10.31352 -10.31253 -10.31049 -10.30952
 Alpha  occ. eigenvalues --  -10.30741 -10.30665 -10.30582 -10.30063 -10.29407
 Alpha  occ. eigenvalues --  -10.28788 -10.28599 -10.28588 -10.28490 -10.28479
 Alpha  occ. eigenvalues --  -10.28111 -10.27941 -10.27854 -10.27735 -10.27545
 Alpha  occ. eigenvalues --  -10.27127 -10.27070 -10.26854 -10.26670 -10.26627
 Alpha  occ. eigenvalues --  -10.26617 -10.26605 -10.26436 -10.25966 -10.25595
 Alpha  occ. eigenvalues --  -10.25565 -10.25514 -10.25400 -10.25212 -10.25167
 Alpha  occ. eigenvalues --  -10.25098 -10.25002 -10.24958 -10.24910 -10.24812
 Alpha  occ. eigenvalues --  -10.24681 -10.24600 -10.24584 -10.24365 -10.24265
 Alpha  occ. eigenvalues --  -10.24263 -10.24235 -10.24107 -10.23959 -10.23732
 Alpha  occ. eigenvalues --  -10.23566  -3.17337  -1.92198  -1.91797  -1.91655
 Alpha  occ. eigenvalues --   -1.17294  -1.15203  -1.10496  -1.10017  -1.08983
 Alpha  occ. eigenvalues --   -1.07240  -1.04691  -1.04094  -1.03469  -1.02757
 Alpha  occ. eigenvalues --   -0.93300  -0.90752  -0.89948  -0.89508  -0.89501
 Alpha  occ. eigenvalues --   -0.88681  -0.88473  -0.87642  -0.87253  -0.86431
 Alpha  occ. eigenvalues --   -0.85905  -0.85438  -0.84467  -0.84226  -0.83537
 Alpha  occ. eigenvalues --   -0.82633  -0.82160  -0.81095  -0.80850  -0.80285
 Alpha  occ. eigenvalues --   -0.79883  -0.78179  -0.77895  -0.77394  -0.76160
 Alpha  occ. eigenvalues --   -0.75338  -0.75177  -0.75076  -0.74434  -0.73809
 Alpha  occ. eigenvalues --   -0.73316  -0.72555  -0.71794  -0.70716  -0.69064
 Alpha  occ. eigenvalues --   -0.68758  -0.67500  -0.67367  -0.66246  -0.65939
 Alpha  occ. eigenvalues --   -0.65483  -0.65319  -0.65021  -0.64527  -0.63669
 Alpha  occ. eigenvalues --   -0.63195  -0.62560  -0.62092  -0.61956  -0.60089
 Alpha  occ. eigenvalues --   -0.59573  -0.59473  -0.59262  -0.59041  -0.58758
 Alpha  occ. eigenvalues --   -0.58189  -0.57512  -0.56510  -0.56136  -0.55424
 Alpha  occ. eigenvalues --   -0.55045  -0.54951  -0.54763  -0.54233  -0.54158
 Alpha  occ. eigenvalues --   -0.53865  -0.53202  -0.53010  -0.53007  -0.52715
 Alpha  occ. eigenvalues --   -0.52574  -0.52452  -0.52245  -0.52183  -0.51738
 Alpha  occ. eigenvalues --   -0.51506  -0.51399  -0.51229  -0.51118  -0.50885
 Alpha  occ. eigenvalues --   -0.50456  -0.50249  -0.50213  -0.49924  -0.49681
 Alpha  occ. eigenvalues --   -0.49599  -0.49397  -0.49235  -0.48973  -0.48801
 Alpha  occ. eigenvalues --   -0.48707  -0.48590  -0.48356  -0.47875  -0.47712
 Alpha  occ. eigenvalues --   -0.47461  -0.47307  -0.47198  -0.46983  -0.46898
 Alpha  occ. eigenvalues --   -0.46738  -0.46382  -0.46194  -0.46079  -0.45751
 Alpha  occ. eigenvalues --   -0.45646  -0.45556  -0.45504  -0.45289  -0.44919
 Alpha  occ. eigenvalues --   -0.44724  -0.44399  -0.44065  -0.44035  -0.43893
 Alpha  occ. eigenvalues --   -0.43628  -0.43542  -0.43330  -0.43256  -0.42918
 Alpha  occ. eigenvalues --   -0.42770  -0.42560  -0.42557  -0.42478  -0.42318
 Alpha  occ. eigenvalues --   -0.42258  -0.41993  -0.41977  -0.41663  -0.41197
 Alpha  occ. eigenvalues --   -0.41066  -0.40771  -0.40627  -0.40572  -0.39923
 Alpha  occ. eigenvalues --   -0.39899  -0.39222  -0.39054  -0.39044  -0.38613
 Alpha  occ. eigenvalues --   -0.38372  -0.38292  -0.37652  -0.37341  -0.37184
 Alpha  occ. eigenvalues --   -0.37163  -0.36756  -0.36572  -0.36512  -0.36210
 Alpha  occ. eigenvalues --   -0.35822  -0.35307  -0.35167  -0.35163  -0.34499
 Alpha  occ. eigenvalues --   -0.34426  -0.33249  -0.33124  -0.31491  -0.31183
 Alpha  occ. eigenvalues --   -0.30625  -0.30003  -0.29736  -0.29149  -0.24417
 Alpha  occ. eigenvalues --   -0.21163
 Alpha virt. eigenvalues --   -0.08878  -0.01916   0.00128   0.01287   0.02439
 Alpha virt. eigenvalues --    0.03811   0.05357   0.05837   0.06537   0.07448
 Alpha virt. eigenvalues --    0.07865   0.08396   0.08795   0.09093   0.09215

 Mulliken charges:
               1
     1  Mg   0.833305
     2  C   -0.068246
     3  C   -0.079306
     4  C   -0.051751
     5  C   -0.083578
     6  N   -0.298135
     7  C   -0.022162
     8  C    0.013975
     9  C   -0.090703
    10  C    0.035430
    11  C    0.086389
    12  C    0.033854
    13  C    0.038110
    14  C    0.200457
    15  O   -0.229514
    16  O   -0.358237
    17  N   -0.351771
    18  C    0.137278
    19  C   -0.183105
    20  C   -0.001166
    21  C    0.138651
    22  C    0.160070
    23  C   -0.032135
    24  O   -0.207791
    25  C    0.057808
    26  N   -0.289703
    27  C    0.016280
    28  C   -0.027303
    29  C   -0.062518
    30  C    0.016123
    31  C    0.089608
    32  C    0.056611
    33  C    0.010010
    34  N   -0.344793
    35  C    0.137215
    36  C   -0.195097
    37  C   -0.004122
    38  C    0.133027
    39  C    0.146254
    40  C    0.051589
    41  O   -0.168884
    42  C    0.008453
    43  C    0.184613
    44  O   -0.180142
    45  O   -0.346621
    46  C    0.172318
    47  C    0.311017
    48  C   -0.148963
    49  C   -0.185519
    50  C    0.062522
    51  C    0.084773
    52  C    0.028525
    53  C    0.039614
    54  C   -0.132582
    55  C    0.083027
    56  C    0.028725
    57  C   -0.018340
    58  C    0.092636
    59  C   -0.123624
    60  C    0.048055
    61  C    0.050172
    62  C   -0.047185
    63  C    0.059835
    64  C   -0.168470
    65  C    0.053537
    66  C    0.055170
    67  H   -0.026117
    68  H   -0.055469
    69  H   -0.024362
    70  H    0.014780
    71  H    0.033480
    72  H    0.017146
    73  H    0.023133
    74  H    0.024699
    75  H   -0.000585
    76  H   -0.006465
    77  H    0.037126
    78  H    0.041390
    79  H    0.042119
    80  H   -0.000435
    81  H    0.032174
    82  H    0.043903
    83  H    0.018443
    84  H    0.031727
    85  H    0.007214
    86  H    0.007471
    87  H    0.019074
    88  H    0.023919
    89  H    0.006546
    90  H    0.033592
    91  H   -0.000195
    92  H    0.016357
    93  H    0.005071
    94  H    0.014072
    95  H    0.046943
    96  H    0.016262
    97  H    0.034490
    98  H    0.033626
    99  H    0.062009
   100  H    0.036019
   101  H    0.036629
   102  H    0.031900
   103  H    0.028432
   104  H   -0.005998
   105  H    0.002579
   106  H    0.033957
   107  H    0.017303
   108  H    0.011402
   109  H   -0.007168
   110  H    0.004163
   111  H    0.013284
   112  H   -0.006028
   113  H   -0.002442
   114  H   -0.009818
   115  H   -0.000525
   116  H    0.009212
   117  H   -0.011621
   118  H   -0.000830
   119  H    0.000540
   120  H   -0.003186
   121  H   -0.007257
   122  H   -0.003781
   123  H    0.004099
   124  H    0.002830
   125  H    0.000157
   126  H    0.008029
   127  H   -0.010531
   128  H    0.002338
   129  H    0.001550
   130  H   -0.001944
   131  H    0.005368
   132  H   -0.010758
   133  H   -0.010421
   134  H   -0.006425
   135  H   -0.000169
   136  H    0.013713
   137  H    0.005692
   138  H   -0.006054
   139  H    0.005659
   140  H    0.003390
 Sum of Mulliken charges =  -0.00000

 Dipole moment (field-independent basis, Debye):
    X=             -0.3399    Y=              2.3090    Z=              1.6565  Tot=              2.8620
 Quadrupole moment (field-independent basis, Debye-Ang):
   XX=           -406.3001   YY=           -392.2024   ZZ=           -408.3928
   XY=            -46.3810   XZ=            -13.4979   YZ=            -39.6493

 Normal termination of Gaussian 16 at Fri Apr 29 09:13:24 2022.
