 Gaussian 16, Revision A.03,
 Gaussian 16:  ES64L-G16RevA.03 25-Dec-2016

 ---------------------------------
 #p PBE1PBE/Def2SVP td=(nstates=5)
 ---------------------------------

 -----------------------------------------------------
 step_251_chromophore_11 TDDFT with PBE1PBE functional
 -----------------------------------------------------
 Symbolic Z-matrix:
 Charge =  0 Multiplicity = 1

                         Standard orientation:
 ---------------------------------------------------------------------
 Center     Atomic      Atomic             Coordinates (Angstroms)
 Number     Number       Type             X           Y           Z
 ---------------------------------------------------------------------
      1         12           0       -4.554886    1.383956    0.617204
      2          6           0       -5.439437   -1.973497    0.073814
      3          6           0       -2.378842    0.338281    3.065376
      4          6           0       -3.252130    4.423779    0.528573
      5          6           0       -6.642209    2.300789   -2.106827
      6          7           0       -3.807862   -0.588027    1.275183
      7          6           0       -4.316969   -1.864167    0.921089
      8          6           0       -3.904626   -2.924370    1.857021
      9          6           0       -2.987431   -2.128700    2.882918
     10          6           0       -3.080541   -0.685827    2.412248
     11          6           0       -3.360852   -2.412859    4.357987
     12          6           0       -3.061951   -4.003757    1.248952
     13          6           0       -2.048052   -3.569632    0.179978
     14          6           0       -0.640156   -4.270910    0.048732
     15          8           0       -0.302002   -5.162071   -0.747379
     16          8           0        0.268268   -3.752174    1.006869
     17          7           0       -3.031186    2.315768    1.679033
     18          6           0       -2.371263    1.740654    2.702462
     19          6           0       -1.537373    2.738525    3.324428
     20          6           0       -1.818378    3.959118    2.662435
     21          6           0       -2.761277    3.629105    1.581656
     22          6           0       -0.547927    2.496834    4.432512
     23          6           0       -1.231181    5.323711    3.021730
     24          8           0       -0.440024    5.444694    3.936552
     25          6           0       -1.421247    6.619267    2.289925
     26          7           0       -4.703766    3.033070   -0.762399
     27          6           0       -4.083454    4.234079   -0.542970
     28          6           0       -4.683262    5.361761   -1.445774
     29          6           0       -5.532843    4.544191   -2.465296
     30          6           0       -5.655048    3.222959   -1.738236
     31          6           0       -5.560623    6.405200   -0.712844
     32          6           0       -4.812197    4.177718   -3.847604
     33          6           0       -5.592941    4.402938   -5.091534
     34          7           0       -5.835945    0.473047   -0.655499
     35          6           0       -6.707018    0.993539   -1.530449
     36          6           0       -7.785309   -0.015867   -1.851796
     37          6           0       -7.310807   -1.182175   -1.171340
     38          6           0       -6.052069   -0.871210   -0.583502
     39          6           0       -9.035617    0.111199   -2.710196
     40          6           0       -7.558246   -2.588017   -1.029603
     41          8           0       -8.440132   -3.291169   -1.496934
     42          6           0       -6.349353   -3.149310   -0.177422
     43          6           0       -5.562661   -4.073025   -1.084057
     44          8           0       -4.913737   -3.778693   -2.032874
     45          8           0       -5.628643   -5.343825   -0.553548
     46          6           0       -4.682769   -6.285681   -1.160634
     47          6           0        1.492767   -4.504167    1.163889
     48          6           0        2.538568   -3.922518    0.259271
     49          6           0        3.832468   -4.219342    0.127029
     50          6           0        4.349005   -5.400940    0.859401
     51          6           0        4.815416   -3.496999   -0.866513
     52          6           0        5.447827   -2.237561   -0.310832
     53          6           0        5.807346   -1.275915   -1.484803
     54          6           0        5.888186    0.272441   -1.036469
     55          6           0        4.903280    1.202387   -1.665755
     56          6           0        7.303339    0.777641   -1.319247
     57          6           0        8.373122   -0.012454   -0.457187
     58          6           0        9.154735    0.933349    0.492372
     59          6           0       10.664676    0.475880    0.585424
     60          6           0       11.062272    0.418341    2.087030
     61          6           0       11.645265    1.235001   -0.347721
     62          6           0       12.720105    0.240982   -0.904046
     63          6           0       13.713903    1.005318   -1.845811
     64          6           0       15.170127    0.758765   -1.420009
     65          6           0       15.560584    1.643720   -0.265392
     66          6           0       16.211096    0.930323   -2.511688
     67          1           0       -1.845138    0.024768    3.964790
     68          1           0       -2.964125    5.474001    0.599045
     69          1           0       -7.355094    2.686095   -2.838786
     70          1           0       -4.809706   -3.365358    2.274690
     71          1           0       -1.912439   -2.272815    2.775116
     72          1           0       -2.374080   -2.617711    4.773599
     73          1           0       -4.030853   -3.272698    4.355591
     74          1           0       -3.769080   -1.541524    4.870454
     75          1           0       -3.625448   -4.886302    0.944991
     76          1           0       -2.409529   -4.523090    1.951252
     77          1           0       -1.913431   -2.499897    0.343674
     78          1           0       -2.630704   -3.668863   -0.736035
     79          1           0        0.404580    2.983411    4.219972
     80          1           0       -0.450075    1.426552    4.613828
     81          1           0       -1.006237    2.969731    5.301416
     82          1           0       -0.998169    6.657359    1.286620
     83          1           0       -0.771976    7.279005    2.865702
     84          1           0       -2.413236    7.050144    2.429737
     85          1           0       -3.851067    5.893316   -1.907119
     86          1           0       -6.517782    4.973225   -2.651289
     87          1           0       -6.592441    6.281086   -1.041059
     88          1           0       -5.112077    7.398263   -0.734411
     89          1           0       -5.562241    6.167988    0.350429
     90          1           0       -4.442492    3.152650   -3.836484
     91          1           0       -3.934692    4.824427   -3.859642
     92          1           0       -5.084666    5.054733   -5.801810
     93          1           0       -6.595047    4.793157   -4.912243
     94          1           0       -5.743702    3.477713   -5.647053
     95          1           0       -8.949386   -0.644238   -3.491227
     96          1           0       -9.140120    1.159987   -2.990809
     97          1           0       -9.856509   -0.225007   -2.076920
     98          1           0       -6.681593   -3.657582    0.727496
     99          1           0       -3.774239   -5.804151   -1.522041
    100          1           0       -5.246576   -6.707421   -1.992772
    101          1           0       -4.578749   -7.100731   -0.444926
    102          1           0        1.316830   -5.541197    0.876854
    103          1           0        1.718972   -4.391173    2.224589
    104          1           0        2.173855   -3.079899   -0.327426
    105          1           0        5.432881   -5.477562    0.774724
    106          1           0        3.900584   -6.263666    0.365823
    107          1           0        4.097882   -5.446027    1.919200
    108          1           0        4.220222   -3.287232   -1.754710
    109          1           0        5.607758   -4.206474   -1.102402
    110          1           0        6.380259   -2.579393    0.139329
    111          1           0        4.833806   -1.719247    0.424890
    112          1           0        5.085041   -1.379529   -2.293117
    113          1           0        6.776356   -1.562318   -1.893530
    114          1           0        5.670128    0.368016    0.027547
    115          1           0        4.140427    1.537753   -0.964153
    116          1           0        4.520341    0.751786   -2.581569
    117          1           0        5.357423    2.174834   -1.856414
    118          1           0        7.283864    1.844839   -1.096944
    119          1           0        7.647791    0.564754   -2.331078
    120          1           0        9.020256   -0.610567   -1.098566
    121          1           0        7.872334   -0.769344    0.147386
    122          1           0        8.703478    0.907017    1.484203
    123          1           0        9.116755    1.934376    0.064625
    124          1           0       10.895311   -0.547174    0.289290
    125          1           0       10.185939    0.473639    2.733922
    126          1           0       11.919914    1.057154    2.298704
    127          1           0       11.395079   -0.579469    2.372013
    128          1           0       12.313135    1.966457    0.108070
    129          1           0       11.185669    1.557999   -1.281193
    130          1           0       12.274633   -0.514096   -1.551641
    131          1           0       13.246155   -0.290959   -0.110691
    132          1           0       13.518875    2.076798   -1.803630
    133          1           0       13.590648    0.717406   -2.888909
    134          1           0       15.232022   -0.305045   -1.188025
    135          1           0       14.808014    1.584711    0.521491
    136          1           0       15.728003    2.672106   -0.585958
    137          1           0       16.491681    1.236681    0.129584
    138          1           0       17.055416    1.546811   -2.202151
    139          1           0       15.773095    1.399619   -3.393396
    140          1           0       16.679202   -0.034556   -2.706861
 ---------------------------------------------------------------------

 SCF Done:  E(RPBE1PBE) =  -3005.36288862     A.U. after   15 cycles

 Excitation energies and oscillator strengths:

 Excited State   1:      Singlet-A      1.8307 eV  677.24 nm  f=0.3529  <S**2>=0.000
     245 -> 248        0.16613
     246 -> 247        0.69531
     246 <- 247       -0.11424
 This state for optimization and/or second-order correction.
 Total Energy, E(TD-HF/TD-DFT) =  -3005.29561107
 Copying the excited state density for this state as the 1-particle RhoCI density.

 Excited State   2:      Singlet-A      2.2827 eV  543.14 nm  f=0.0983  <S**2>=0.000
     245 -> 247        0.63888
     246 -> 248       -0.29050

 Excited State   3:      Singlet-A      2.9749 eV  416.77 nm  f=0.0002  <S**2>=0.000
     243 -> 247        0.68036
     243 -> 249       -0.12644

 Excited State   4:      Singlet-A      3.0076 eV  412.23 nm  f=0.0007  <S**2>=0.000
     240 -> 247       -0.17215
     242 -> 247        0.66415

 Excited State   5:      Singlet-A      3.0811 eV  402.41 nm  f=0.0008  <S**2>=0.000
     240 -> 247       -0.15924
     241 -> 247        0.66749

 The electronic state is 1-A.
 Alpha  occ. eigenvalues --  -46.92075 -19.25415 -19.25257 -19.21048 -19.20633
 Alpha  occ. eigenvalues --  -19.19434 -19.18509 -14.42042 -14.41507 -14.39354
 Alpha  occ. eigenvalues --  -14.39222 -10.37611 -10.36283 -10.32216 -10.31810
 Alpha  occ. eigenvalues --  -10.29146 -10.29070 -10.28714 -10.28621 -10.28525
 Alpha  occ. eigenvalues --  -10.28477 -10.28442 -10.28173 -10.27693 -10.27171
 Alpha  occ. eigenvalues --  -10.26572 -10.26399 -10.26294 -10.26287 -10.26214
 Alpha  occ. eigenvalues --  -10.25998 -10.25763 -10.25454 -10.25220 -10.25170
 Alpha  occ. eigenvalues --  -10.24810 -10.24673 -10.24542 -10.24219 -10.24135
 Alpha  occ. eigenvalues --  -10.24105 -10.24101 -10.24096 -10.23617 -10.23054
 Alpha  occ. eigenvalues --  -10.22991 -10.22986 -10.22885 -10.22851 -10.22826
 Alpha  occ. eigenvalues --  -10.22596 -10.22552 -10.22530 -10.22458 -10.22368
 Alpha  occ. eigenvalues --  -10.22319 -10.22164 -10.22158 -10.21887 -10.21828
 Alpha  occ. eigenvalues --  -10.21819 -10.21806 -10.21469 -10.21361 -10.21112
 Alpha  occ. eigenvalues --  -10.20928  -3.14296  -1.87098  -1.86676  -1.86537
 Alpha  occ. eigenvalues --   -1.12020  -1.10003  -1.05201  -1.04772  -1.03800
 Alpha  occ. eigenvalues --   -1.02106  -0.99318  -0.98782  -0.98039  -0.97393
 Alpha  occ. eigenvalues --   -0.87654  -0.84995  -0.84055  -0.83814  -0.83590
 Alpha  occ. eigenvalues --   -0.82790  -0.82782  -0.81956  -0.81361  -0.80727
 Alpha  occ. eigenvalues --   -0.80208  -0.79672  -0.78686  -0.78480  -0.77797
 Alpha  occ. eigenvalues --   -0.76778  -0.76416  -0.75239  -0.75192  -0.74563
 Alpha  occ. eigenvalues --   -0.74014  -0.72488  -0.72212  -0.71666  -0.70470
 Alpha  occ. eigenvalues --   -0.69696  -0.69324  -0.69155  -0.68580  -0.68054
 Alpha  occ. eigenvalues --   -0.67624  -0.66930  -0.66179  -0.65045  -0.63516
 Alpha  occ. eigenvalues --   -0.63119  -0.61888  -0.61615  -0.60508  -0.60360
 Alpha  occ. eigenvalues --   -0.59930  -0.59602  -0.59481  -0.59093  -0.57775
 Alpha  occ. eigenvalues --   -0.57634  -0.56755  -0.56643  -0.56163  -0.54598
 Alpha  occ. eigenvalues --   -0.54187  -0.53837  -0.53666  -0.53600  -0.53227
 Alpha  occ. eigenvalues --   -0.52647  -0.52148  -0.51059  -0.50538  -0.50019
 Alpha  occ. eigenvalues --   -0.49530  -0.49464  -0.49200  -0.48816  -0.48523
 Alpha  occ. eigenvalues --   -0.48469  -0.47729  -0.47703  -0.47524  -0.47255
 Alpha  occ. eigenvalues --   -0.47054  -0.46834  -0.46691  -0.46649  -0.46347
 Alpha  occ. eigenvalues --   -0.46003  -0.45979  -0.45822  -0.45695  -0.45429
 Alpha  occ. eigenvalues --   -0.44964  -0.44749  -0.44719  -0.44460  -0.44287
 Alpha  occ. eigenvalues --   -0.44121  -0.44012  -0.43885  -0.43602  -0.43439
 Alpha  occ. eigenvalues --   -0.43292  -0.43230  -0.42962  -0.42525  -0.42376
 Alpha  occ. eigenvalues --   -0.42137  -0.41943  -0.41873  -0.41687  -0.41541
 Alpha  occ. eigenvalues --   -0.41366  -0.41114  -0.40852  -0.40763  -0.40464
 Alpha  occ. eigenvalues --   -0.40300  -0.40220  -0.40097  -0.40025  -0.39615
 Alpha  occ. eigenvalues --   -0.39533  -0.39202  -0.38852  -0.38752  -0.38677
 Alpha  occ. eigenvalues --   -0.38449  -0.38238  -0.38143  -0.37979  -0.37760
 Alpha  occ. eigenvalues --   -0.37596  -0.37361  -0.37264  -0.37204  -0.37101
 Alpha  occ. eigenvalues --   -0.37090  -0.36839  -0.36797  -0.36391  -0.36121
 Alpha  occ. eigenvalues --   -0.35831  -0.35635  -0.35476  -0.35327  -0.34870
 Alpha  occ. eigenvalues --   -0.34630  -0.34095  -0.33873  -0.33815  -0.33418
 Alpha  occ. eigenvalues --   -0.33254  -0.33045  -0.32618  -0.32220  -0.32129
 Alpha  occ. eigenvalues --   -0.31920  -0.31562  -0.31545  -0.31456  -0.31175
 Alpha  occ. eigenvalues --   -0.30635  -0.30222  -0.30119  -0.29957  -0.29627
 Alpha  occ. eigenvalues --   -0.29316  -0.28763  -0.28246  -0.27118  -0.26162
 Alpha  occ. eigenvalues --   -0.25597  -0.25332  -0.25214  -0.24401  -0.21331
 Alpha  occ. eigenvalues --   -0.18816
 Alpha virt. eigenvalues --   -0.11336  -0.05450  -0.04090  -0.01990  -0.01454
 Alpha virt. eigenvalues --   -0.00802   0.00909   0.01363   0.02127   0.03324
 Alpha virt. eigenvalues --    0.04093   0.04452   0.05206   0.05879   0.05918

 Mulliken charges:
               1
     1  Mg   0.980283
     2  C   -0.078538
     3  C   -0.065998
     4  C   -0.064996
     5  C   -0.061785
     6  N   -0.400163
     7  C    0.064191
     8  C   -0.083067
     9  C   -0.159876
    10  C    0.073286
    11  C    0.028670
    12  C   -0.009999
    13  C   -0.043083
    14  C    0.261883
    15  O   -0.261292
    16  O   -0.386456
    17  N   -0.474294
    18  C    0.164411
    19  C   -0.208683
    20  C   -0.057777
    21  C    0.172239
    22  C    0.098675
    23  C    0.022756
    24  O   -0.241065
    25  C   -0.019812
    26  N   -0.386510
    27  C    0.064138
    28  C   -0.104426
    29  C   -0.140799
    30  C    0.044634
    31  C    0.033780
    32  C    0.003798
    33  C   -0.060841
    34  N   -0.471058
    35  C    0.152254
    36  C   -0.202300
    37  C   -0.045622
    38  C    0.179370
    39  C    0.086918
    40  C    0.141916
    41  O   -0.215330
    42  C   -0.114216
    43  C    0.283560
    44  O   -0.215217
    45  O   -0.378301
    46  C    0.110905
    47  C    0.263984
    48  C   -0.146057
    49  C   -0.233613
    50  C   -0.001783
    51  C    0.021741
    52  C   -0.036659
    53  C   -0.013205
    54  C   -0.217860
    55  C    0.026071
    56  C   -0.032360
    57  C   -0.078592
    58  C    0.034314
    59  C   -0.208004
    60  C   -0.009147
    61  C   -0.005849
    62  C   -0.109545
    63  C    0.006235
    64  C   -0.262180
    65  C   -0.013058
    66  C   -0.003306
    67  H    0.005040
    68  H   -0.015997
    69  H    0.006773
    70  H    0.051227
    71  H    0.069458
    72  H    0.044107
    73  H    0.050740
    74  H    0.052258
    75  H    0.038502
    76  H    0.028590
    77  H    0.072193
    78  H    0.077930
    79  H    0.069088
    80  H    0.027418
    81  H    0.060732
    82  H    0.069198
    83  H    0.046882
    84  H    0.058128
    85  H    0.042919
    86  H    0.041918
    87  H    0.046137
    88  H    0.050656
    89  H    0.035426
    90  H    0.065618
    91  H    0.033738
    92  H    0.044151
    93  H    0.031784
    94  H    0.041953
    95  H    0.074389
    96  H    0.043841
    97  H    0.062893
    98  H    0.068937
    99  H    0.084050
   100  H    0.059756
   101  H    0.058353
   102  H    0.059085
   103  H    0.054780
   104  H    0.024600
   105  H    0.030152
   106  H    0.062027
   107  H    0.044126
   108  H    0.042895
   109  H    0.025429
   110  H    0.036827
   111  H    0.045470
   112  H    0.025493
   113  H    0.031028
   114  H    0.028196
   115  H    0.027386
   116  H    0.036118
   117  H    0.015558
   118  H    0.030569
   119  H    0.034230
   120  H    0.027971
   121  H    0.029613
   122  H    0.028134
   123  H    0.036660
   124  H    0.041349
   125  H    0.026736
   126  H    0.035041
   127  H    0.017049
   128  H    0.035507
   129  H    0.035597
   130  H    0.031756
   131  H    0.037350
   132  H    0.021877
   133  H    0.022398
   134  H    0.031895
   135  H    0.029193
   136  H    0.041481
   137  H    0.035141
   138  H    0.021569
   139  H    0.032740
   140  H    0.030900
 Sum of Mulliken charges =  -0.00000

 Dipole moment (field-independent basis, Debye):
    X=             -0.3894    Y=              2.3173    Z=              1.5587  Tot=              2.8198
 Quadrupole moment (field-independent basis, Debye-Ang):
   XX=           -401.9847   YY=           -388.6844   ZZ=           -404.8348
   XY=            -47.2241   XZ=            -12.5142   YZ=            -40.9753

 Normal termination of Gaussian 16 at Fri Apr 29 09:31:44 2022.
