 Gaussian 16, Revision A.03,
 Gaussian 16:  ES64L-G16RevA.03 25-Dec-2016

 --------------------------------
 #p wB97XD/Def2SVP td=(nstates=5)
 --------------------------------

 ----------------------------------------------------
 step_251_chromophore_11 TDDFT with wB97XD functional
 ----------------------------------------------------
 Symbolic Z-matrix:
 Charge =  0 Multiplicity = 1

                         Standard orientation:
 ---------------------------------------------------------------------
 Center     Atomic      Atomic             Coordinates (Angstroms)
 Number     Number       Type             X           Y           Z
 ---------------------------------------------------------------------
      1         12           0       -4.554886    1.383956    0.617204
      2          6           0       -5.439437   -1.973497    0.073814
      3          6           0       -2.378842    0.338281    3.065376
      4          6           0       -3.252130    4.423779    0.528573
      5          6           0       -6.642209    2.300789   -2.106827
      6          7           0       -3.807862   -0.588027    1.275183
      7          6           0       -4.316969   -1.864167    0.921089
      8          6           0       -3.904626   -2.924370    1.857021
      9          6           0       -2.987431   -2.128700    2.882918
     10          6           0       -3.080541   -0.685827    2.412248
     11          6           0       -3.360852   -2.412859    4.357987
     12          6           0       -3.061951   -4.003757    1.248952
     13          6           0       -2.048052   -3.569632    0.179978
     14          6           0       -0.640156   -4.270910    0.048732
     15          8           0       -0.302002   -5.162071   -0.747379
     16          8           0        0.268268   -3.752174    1.006869
     17          7           0       -3.031186    2.315768    1.679033
     18          6           0       -2.371263    1.740654    2.702462
     19          6           0       -1.537373    2.738525    3.324428
     20          6           0       -1.818378    3.959118    2.662435
     21          6           0       -2.761277    3.629105    1.581656
     22          6           0       -0.547927    2.496834    4.432512
     23          6           0       -1.231181    5.323711    3.021730
     24          8           0       -0.440024    5.444694    3.936552
     25          6           0       -1.421247    6.619267    2.289925
     26          7           0       -4.703766    3.033070   -0.762399
     27          6           0       -4.083454    4.234079   -0.542970
     28          6           0       -4.683262    5.361761   -1.445774
     29          6           0       -5.532843    4.544191   -2.465296
     30          6           0       -5.655048    3.222959   -1.738236
     31          6           0       -5.560623    6.405200   -0.712844
     32          6           0       -4.812197    4.177718   -3.847604
     33          6           0       -5.592941    4.402938   -5.091534
     34          7           0       -5.835945    0.473047   -0.655499
     35          6           0       -6.707018    0.993539   -1.530449
     36          6           0       -7.785309   -0.015867   -1.851796
     37          6           0       -7.310807   -1.182175   -1.171340
     38          6           0       -6.052069   -0.871210   -0.583502
     39          6           0       -9.035617    0.111199   -2.710196
     40          6           0       -7.558246   -2.588017   -1.029603
     41          8           0       -8.440132   -3.291169   -1.496934
     42          6           0       -6.349353   -3.149310   -0.177422
     43          6           0       -5.562661   -4.073025   -1.084057
     44          8           0       -4.913737   -3.778693   -2.032874
     45          8           0       -5.628643   -5.343825   -0.553548
     46          6           0       -4.682769   -6.285681   -1.160634
     47          6           0        1.492767   -4.504167    1.163889
     48          6           0        2.538568   -3.922518    0.259271
     49          6           0        3.832468   -4.219342    0.127029
     50          6           0        4.349005   -5.400940    0.859401
     51          6           0        4.815416   -3.496999   -0.866513
     52          6           0        5.447827   -2.237561   -0.310832
     53          6           0        5.807346   -1.275915   -1.484803
     54          6           0        5.888186    0.272441   -1.036469
     55          6           0        4.903280    1.202387   -1.665755
     56          6           0        7.303339    0.777641   -1.319247
     57          6           0        8.373122   -0.012454   -0.457187
     58          6           0        9.154735    0.933349    0.492372
     59          6           0       10.664676    0.475880    0.585424
     60          6           0       11.062272    0.418341    2.087030
     61          6           0       11.645265    1.235001   -0.347721
     62          6           0       12.720105    0.240982   -0.904046
     63          6           0       13.713903    1.005318   -1.845811
     64          6           0       15.170127    0.758765   -1.420009
     65          6           0       15.560584    1.643720   -0.265392
     66          6           0       16.211096    0.930323   -2.511688
     67          1           0       -1.845138    0.024768    3.964790
     68          1           0       -2.964125    5.474001    0.599045
     69          1           0       -7.355094    2.686095   -2.838786
     70          1           0       -4.809706   -3.365358    2.274690
     71          1           0       -1.912439   -2.272815    2.775116
     72          1           0       -2.374080   -2.617711    4.773599
     73          1           0       -4.030853   -3.272698    4.355591
     74          1           0       -3.769080   -1.541524    4.870454
     75          1           0       -3.625448   -4.886302    0.944991
     76          1           0       -2.409529   -4.523090    1.951252
     77          1           0       -1.913431   -2.499897    0.343674
     78          1           0       -2.630704   -3.668863   -0.736035
     79          1           0        0.404580    2.983411    4.219972
     80          1           0       -0.450075    1.426552    4.613828
     81          1           0       -1.006237    2.969731    5.301416
     82          1           0       -0.998169    6.657359    1.286620
     83          1           0       -0.771976    7.279005    2.865702
     84          1           0       -2.413236    7.050144    2.429737
     85          1           0       -3.851067    5.893316   -1.907119
     86          1           0       -6.517782    4.973225   -2.651289
     87          1           0       -6.592441    6.281086   -1.041059
     88          1           0       -5.112077    7.398263   -0.734411
     89          1           0       -5.562241    6.167988    0.350429
     90          1           0       -4.442492    3.152650   -3.836484
     91          1           0       -3.934692    4.824427   -3.859642
     92          1           0       -5.084666    5.054733   -5.801810
     93          1           0       -6.595047    4.793157   -4.912243
     94          1           0       -5.743702    3.477713   -5.647053
     95          1           0       -8.949386   -0.644238   -3.491227
     96          1           0       -9.140120    1.159987   -2.990809
     97          1           0       -9.856509   -0.225007   -2.076920
     98          1           0       -6.681593   -3.657582    0.727496
     99          1           0       -3.774239   -5.804151   -1.522041
    100          1           0       -5.246576   -6.707421   -1.992772
    101          1           0       -4.578749   -7.100731   -0.444926
    102          1           0        1.316830   -5.541197    0.876854
    103          1           0        1.718972   -4.391173    2.224589
    104          1           0        2.173855   -3.079899   -0.327426
    105          1           0        5.432881   -5.477562    0.774724
    106          1           0        3.900584   -6.263666    0.365823
    107          1           0        4.097882   -5.446027    1.919200
    108          1           0        4.220222   -3.287232   -1.754710
    109          1           0        5.607758   -4.206474   -1.102402
    110          1           0        6.380259   -2.579393    0.139329
    111          1           0        4.833806   -1.719247    0.424890
    112          1           0        5.085041   -1.379529   -2.293117
    113          1           0        6.776356   -1.562318   -1.893530
    114          1           0        5.670128    0.368016    0.027547
    115          1           0        4.140427    1.537753   -0.964153
    116          1           0        4.520341    0.751786   -2.581569
    117          1           0        5.357423    2.174834   -1.856414
    118          1           0        7.283864    1.844839   -1.096944
    119          1           0        7.647791    0.564754   -2.331078
    120          1           0        9.020256   -0.610567   -1.098566
    121          1           0        7.872334   -0.769344    0.147386
    122          1           0        8.703478    0.907017    1.484203
    123          1           0        9.116755    1.934376    0.064625
    124          1           0       10.895311   -0.547174    0.289290
    125          1           0       10.185939    0.473639    2.733922
    126          1           0       11.919914    1.057154    2.298704
    127          1           0       11.395079   -0.579469    2.372013
    128          1           0       12.313135    1.966457    0.108070
    129          1           0       11.185669    1.557999   -1.281193
    130          1           0       12.274633   -0.514096   -1.551641
    131          1           0       13.246155   -0.290959   -0.110691
    132          1           0       13.518875    2.076798   -1.803630
    133          1           0       13.590648    0.717406   -2.888909
    134          1           0       15.232022   -0.305045   -1.188025
    135          1           0       14.808014    1.584711    0.521491
    136          1           0       15.728003    2.672106   -0.585958
    137          1           0       16.491681    1.236681    0.129584
    138          1           0       17.055416    1.546811   -2.202151
    139          1           0       15.773095    1.399619   -3.393396
    140          1           0       16.679202   -0.034556   -2.706861
 ---------------------------------------------------------------------

 SCF Done:  E(RwB97XD) =  -3007.87282935     A.U. after   19 cycles

 Excitation energies and oscillator strengths:

 Excited State   1:      Singlet-A      1.6088 eV  770.69 nm  f=0.3633  <S**2>=0.000
     245 -> 248        0.17860
     246 -> 247        0.68534
     245 <- 248        0.11701
 This state for optimization and/or second-order correction.
 Total Energy, E(TD-HF/TD-DFT) =  -3007.81370877
 Copying the excited state density for this state as the 1-particle RhoCI density.

 Excited State   2:      Singlet-A      2.2106 eV  560.87 nm  f=0.0969  <S**2>=0.000
     245 -> 247        0.62705
     246 -> 248       -0.31273

 Excited State   3:      Singlet-A      3.4103 eV  363.56 nm  f=0.0011  <S**2>=0.000
     239 -> 247        0.11391
     242 -> 247        0.21989
     243 -> 247        0.63532

 Excited State   4:      Singlet-A      3.4529 eV  359.08 nm  f=0.1226  <S**2>=0.000
     242 -> 247        0.53056
     243 -> 247       -0.17918
     245 -> 247       -0.11821
     246 -> 248       -0.36781

 Excited State   5:      Singlet-A      3.5633 eV  347.94 nm  f=0.5861  <S**2>=0.000
     240 -> 247       -0.16754
     240 -> 249       -0.13545
     242 -> 247        0.31756
     245 -> 247        0.27826
     246 -> 248        0.48337

 The electronic state is 1-A.
 Alpha  occ. eigenvalues --  -46.95050 -19.29954 -19.29841 -19.25721 -19.25378
 Alpha  occ. eigenvalues --  -19.24251 -19.23344 -14.47155 -14.46582 -14.44284
 Alpha  occ. eigenvalues --  -14.44218 -10.44397 -10.43126 -10.39082 -10.38654
 Alpha  occ. eigenvalues --  -10.35539 -10.35389 -10.35078 -10.35010 -10.34976
 Alpha  occ. eigenvalues --  -10.34739 -10.34683 -10.34627 -10.34115 -10.33414
 Alpha  occ. eigenvalues --  -10.32935 -10.32647 -10.32633 -10.32603 -10.32550
 Alpha  occ. eigenvalues --  -10.32168 -10.32005 -10.31996 -10.31674 -10.31636
 Alpha  occ. eigenvalues --  -10.31154 -10.31053 -10.30964 -10.30639 -10.30540
 Alpha  occ. eigenvalues --  -10.30499 -10.30486 -10.30347 -10.29943 -10.29519
 Alpha  occ. eigenvalues --  -10.29441 -10.29439 -10.29265 -10.29185 -10.29165
 Alpha  occ. eigenvalues --  -10.28910 -10.28903 -10.28896 -10.28867 -10.28742
 Alpha  occ. eigenvalues --  -10.28598 -10.28524 -10.28522 -10.28272 -10.28194
 Alpha  occ. eigenvalues --  -10.28177 -10.28166 -10.27918 -10.27783 -10.27529
 Alpha  occ. eigenvalues --  -10.27353  -3.21120  -1.94673  -1.94251  -1.94109
 Alpha  occ. eigenvalues --   -1.19434  -1.17383  -1.12700  -1.12257  -1.11179
 Alpha  occ. eigenvalues --   -1.09455  -1.06702  -1.06136  -1.05462  -1.04783
 Alpha  occ. eigenvalues --   -0.95275  -0.92620  -0.91724  -0.91390  -0.91255
 Alpha  occ. eigenvalues --   -0.90452  -0.90384  -0.89567  -0.89023  -0.88381
 Alpha  occ. eigenvalues --   -0.87851  -0.87335  -0.86317  -0.86093  -0.85444
 Alpha  occ. eigenvalues --   -0.84441  -0.84077  -0.83002  -0.82808  -0.82198
 Alpha  occ. eigenvalues --   -0.81687  -0.80111  -0.79810  -0.79338  -0.78102
 Alpha  occ. eigenvalues --   -0.77290  -0.77003  -0.76854  -0.76250  -0.75681
 Alpha  occ. eigenvalues --   -0.75230  -0.74507  -0.73751  -0.72653  -0.71058
 Alpha  occ. eigenvalues --   -0.70654  -0.69465  -0.69258  -0.68121  -0.67861
 Alpha  occ. eigenvalues --   -0.67445  -0.67167  -0.67024  -0.66534  -0.65464
 Alpha  occ. eigenvalues --   -0.65141  -0.64399  -0.64088  -0.63788  -0.62060
 Alpha  occ. eigenvalues --   -0.61563  -0.61363  -0.61187  -0.61026  -0.60708
 Alpha  occ. eigenvalues --   -0.60115  -0.59532  -0.58492  -0.58034  -0.57398
 Alpha  occ. eigenvalues --   -0.56935  -0.56876  -0.56654  -0.56167  -0.55996
 Alpha  occ. eigenvalues --   -0.55836  -0.55106  -0.54959  -0.54910  -0.54632
 Alpha  occ. eigenvalues --   -0.54445  -0.54380  -0.54083  -0.54071  -0.53639
 Alpha  occ. eigenvalues --   -0.53421  -0.53304  -0.53145  -0.53038  -0.52769
 Alpha  occ. eigenvalues --   -0.52326  -0.52203  -0.52089  -0.51797  -0.51611
 Alpha  occ. eigenvalues --   -0.51458  -0.51352  -0.51152  -0.50891  -0.50735
 Alpha  occ. eigenvalues --   -0.50647  -0.50484  -0.50242  -0.49775  -0.49610
 Alpha  occ. eigenvalues --   -0.49372  -0.49184  -0.49140  -0.48922  -0.48814
 Alpha  occ. eigenvalues --   -0.48644  -0.48308  -0.48111  -0.48008  -0.47680
 Alpha  occ. eigenvalues --   -0.47475  -0.47470  -0.47349  -0.47224  -0.46792
 Alpha  occ. eigenvalues --   -0.46652  -0.46316  -0.46061  -0.45906  -0.45807
 Alpha  occ. eigenvalues --   -0.45566  -0.45410  -0.45245  -0.45124  -0.44821
 Alpha  occ. eigenvalues --   -0.44726  -0.44562  -0.44449  -0.44386  -0.44231
 Alpha  occ. eigenvalues --   -0.44150  -0.43945  -0.43867  -0.43509  -0.43118
 Alpha  occ. eigenvalues --   -0.42929  -0.42659  -0.42499  -0.42452  -0.41845
 Alpha  occ. eigenvalues --   -0.41750  -0.41097  -0.40910  -0.40889  -0.40484
 Alpha  occ. eigenvalues --   -0.40278  -0.40131  -0.39604  -0.39222  -0.39170
 Alpha  occ. eigenvalues --   -0.39003  -0.38576  -0.38557  -0.38491  -0.38163
 Alpha  occ. eigenvalues --   -0.37667  -0.37156  -0.37104  -0.37002  -0.36421
 Alpha  occ. eigenvalues --   -0.36418  -0.35396  -0.35081  -0.33697  -0.33193
 Alpha  occ. eigenvalues --   -0.32556  -0.32172  -0.31905  -0.31169  -0.26335
 Alpha  occ. eigenvalues --   -0.22968
 Alpha virt. eigenvalues --   -0.07217  -0.00004   0.02208   0.04395   0.04569
 Alpha virt. eigenvalues --    0.06018   0.07672   0.08116   0.08832   0.10126
 Alpha virt. eigenvalues --    0.10538   0.11213   0.11838   0.12584   0.12614

 Mulliken charges:
               1
     1  Mg   0.971910
     2  C   -0.075330
     3  C   -0.086083
     4  C   -0.070241
     5  C   -0.087023
     6  N   -0.366473
     7  C    0.023281
     8  C   -0.045177
     9  C   -0.137974
    10  C    0.059710
    11  C    0.038032
    12  C    0.001454
    13  C   -0.017323
    14  C    0.254255
    15  O   -0.259058
    16  O   -0.386920
    17  N   -0.438854
    18  C    0.154793
    19  C   -0.198631
    20  C   -0.050490
    21  C    0.165997
    22  C    0.110749
    23  C    0.017630
    24  O   -0.237144
    25  C   -0.009529
    26  N   -0.357033
    27  C    0.046228
    28  C   -0.080153
    29  C   -0.111638
    30  C    0.037484
    31  C    0.042872
    32  C    0.014635
    33  C   -0.046017
    34  N   -0.434415
    35  C    0.147746
    36  C   -0.204945
    37  C   -0.043941
    38  C    0.161958
    39  C    0.102155
    40  C    0.124772
    41  O   -0.205726
    42  C   -0.071776
    43  C    0.255536
    44  O   -0.209371
    45  O   -0.375907
    46  C    0.125221
    47  C    0.283149
    48  C   -0.163980
    49  C   -0.216707
    50  C    0.010777
    51  C    0.040713
    52  C   -0.019829
    53  C    0.002109
    54  C   -0.188079
    55  C    0.035971
    56  C   -0.011732
    57  C   -0.061017
    58  C    0.053050
    59  C   -0.176980
    60  C    0.003070
    61  C    0.010354
    62  C   -0.092315
    63  C    0.019209
    64  C   -0.229172
    65  C    0.001649
    66  C    0.005587
    67  H   -0.001148
    68  H   -0.029947
    69  H    0.002026
    70  H    0.040888
    71  H    0.058326
    72  H    0.038988
    73  H    0.045233
    74  H    0.046553
    75  H    0.024840
    76  H    0.018836
    77  H    0.060932
    78  H    0.065310
    79  H    0.065721
    80  H    0.022193
    81  H    0.056364
    82  H    0.066247
    83  H    0.044888
    84  H    0.054597
    85  H    0.034224
    86  H    0.029732
    87  H    0.040770
    88  H    0.046317
    89  H    0.027700
    90  H    0.057456
    91  H    0.024706
    92  H    0.038912
    93  H    0.024915
    94  H    0.036170
    95  H    0.069852
    96  H    0.037799
    97  H    0.057526
    98  H    0.064450
    99  H    0.079470
   100  H    0.056504
   101  H    0.055998
   102  H    0.052918
   103  H    0.050976
   104  H    0.020667
   105  H    0.024957
   106  H    0.055937
   107  H    0.038711
   108  H    0.034685
   109  H    0.018403
   110  H    0.027931
   111  H    0.036071
   112  H    0.015362
   113  H    0.020361
   114  H    0.015384
   115  H    0.022443
   116  H    0.030219
   117  H    0.009172
   118  H    0.019852
   119  H    0.025369
   120  H    0.018664
   121  H    0.014221
   122  H    0.019927
   123  H    0.026626
   124  H    0.025332
   125  H    0.020435
   126  H    0.029058
   127  H    0.011178
   128  H    0.022697
   129  H    0.025925
   130  H    0.022887
   131  H    0.026023
   132  H    0.010934
   133  H    0.015316
   134  H    0.020131
   135  H    0.020552
   136  H    0.034944
   137  H    0.028687
   138  H    0.015441
   139  H    0.027204
   140  H    0.025981
 Sum of Mulliken charges =  -0.00000

 Dipole moment (field-independent basis, Debye):
    X=             -0.3276    Y=              2.3779    Z=              1.7500  Tot=              2.9705
 Quadrupole moment (field-independent basis, Debye-Ang):
   XX=           -402.1200   YY=           -387.7725   ZZ=           -404.5720
   XY=            -46.7586   XZ=            -13.1618   YZ=            -40.3195

 Normal termination of Gaussian 16 at Fri Apr 29 09:59:16 2022.
