 Gaussian 16, Revision A.03,
 Gaussian 16:  ES64L-G16RevA.03 25-Dec-2016

 --------------------
 #p ZINDO=(nstates=5)
 --------------------

 -----------------------------
 step_251_chromophore_11 ZINDO
 -----------------------------
 Symbolic Z-matrix:
 Charge =  0 Multiplicity = 1

                         Standard orientation:
 ---------------------------------------------------------------------
 Center     Atomic      Atomic             Coordinates (Angstroms)
 Number     Number       Type             X           Y           Z
 ---------------------------------------------------------------------
      1         12           0       -4.554886    1.383956    0.617204
      2          6           0       -5.439437   -1.973497    0.073814
      3          6           0       -2.378842    0.338281    3.065376
      4          6           0       -3.252130    4.423779    0.528573
      5          6           0       -6.642209    2.300789   -2.106827
      6          7           0       -3.807862   -0.588027    1.275183
      7          6           0       -4.316969   -1.864167    0.921089
      8          6           0       -3.904626   -2.924370    1.857021
      9          6           0       -2.987431   -2.128700    2.882918
     10          6           0       -3.080541   -0.685827    2.412248
     11          6           0       -3.360852   -2.412859    4.357987
     12          6           0       -3.061951   -4.003757    1.248952
     13          6           0       -2.048052   -3.569632    0.179978
     14          6           0       -0.640156   -4.270910    0.048732
     15          8           0       -0.302002   -5.162071   -0.747379
     16          8           0        0.268268   -3.752174    1.006869
     17          7           0       -3.031186    2.315768    1.679033
     18          6           0       -2.371263    1.740654    2.702462
     19          6           0       -1.537373    2.738525    3.324428
     20          6           0       -1.818378    3.959118    2.662435
     21          6           0       -2.761277    3.629105    1.581656
     22          6           0       -0.547927    2.496834    4.432512
     23          6           0       -1.231181    5.323711    3.021730
     24          8           0       -0.440024    5.444694    3.936552
     25          6           0       -1.421247    6.619267    2.289925
     26          7           0       -4.703766    3.033070   -0.762399
     27          6           0       -4.083454    4.234079   -0.542970
     28          6           0       -4.683262    5.361761   -1.445774
     29          6           0       -5.532843    4.544191   -2.465296
     30          6           0       -5.655048    3.222959   -1.738236
     31          6           0       -5.560623    6.405200   -0.712844
     32          6           0       -4.812197    4.177718   -3.847604
     33          6           0       -5.592941    4.402938   -5.091534
     34          7           0       -5.835945    0.473047   -0.655499
     35          6           0       -6.707018    0.993539   -1.530449
     36          6           0       -7.785309   -0.015867   -1.851796
     37          6           0       -7.310807   -1.182175   -1.171340
     38          6           0       -6.052069   -0.871210   -0.583502
     39          6           0       -9.035617    0.111199   -2.710196
     40          6           0       -7.558246   -2.588017   -1.029603
     41          8           0       -8.440132   -3.291169   -1.496934
     42          6           0       -6.349353   -3.149310   -0.177422
     43          6           0       -5.562661   -4.073025   -1.084057
     44          8           0       -4.913737   -3.778693   -2.032874
     45          8           0       -5.628643   -5.343825   -0.553548
     46          6           0       -4.682769   -6.285681   -1.160634
     47          6           0        1.492767   -4.504167    1.163889
     48          6           0        2.538568   -3.922518    0.259271
     49          6           0        3.832468   -4.219342    0.127029
     50          6           0        4.349005   -5.400940    0.859401
     51          6           0        4.815416   -3.496999   -0.866513
     52          6           0        5.447827   -2.237561   -0.310832
     53          6           0        5.807346   -1.275915   -1.484803
     54          6           0        5.888186    0.272441   -1.036469
     55          6           0        4.903280    1.202387   -1.665755
     56          6           0        7.303339    0.777641   -1.319247
     57          6           0        8.373122   -0.012454   -0.457187
     58          6           0        9.154735    0.933349    0.492372
     59          6           0       10.664676    0.475880    0.585424
     60          6           0       11.062272    0.418341    2.087030
     61          6           0       11.645265    1.235001   -0.347721
     62          6           0       12.720105    0.240982   -0.904046
     63          6           0       13.713903    1.005318   -1.845811
     64          6           0       15.170127    0.758765   -1.420009
     65          6           0       15.560584    1.643720   -0.265392
     66          6           0       16.211096    0.930323   -2.511688
     67          1           0       -1.845138    0.024768    3.964790
     68          1           0       -2.964125    5.474001    0.599045
     69          1           0       -7.355094    2.686095   -2.838786
     70          1           0       -4.809706   -3.365358    2.274690
     71          1           0       -1.912439   -2.272815    2.775116
     72          1           0       -2.374080   -2.617711    4.773599
     73          1           0       -4.030853   -3.272698    4.355591
     74          1           0       -3.769080   -1.541524    4.870454
     75          1           0       -3.625448   -4.886302    0.944991
     76          1           0       -2.409529   -4.523090    1.951252
     77          1           0       -1.913431   -2.499897    0.343674
     78          1           0       -2.630704   -3.668863   -0.736035
     79          1           0        0.404580    2.983411    4.219972
     80          1           0       -0.450075    1.426552    4.613828
     81          1           0       -1.006237    2.969731    5.301416
     82          1           0       -0.998169    6.657359    1.286620
     83          1           0       -0.771976    7.279005    2.865702
     84          1           0       -2.413236    7.050144    2.429737
     85          1           0       -3.851067    5.893316   -1.907119
     86          1           0       -6.517782    4.973225   -2.651289
     87          1           0       -6.592441    6.281086   -1.041059
     88          1           0       -5.112077    7.398263   -0.734411
     89          1           0       -5.562241    6.167988    0.350429
     90          1           0       -4.442492    3.152650   -3.836484
     91          1           0       -3.934692    4.824427   -3.859642
     92          1           0       -5.084666    5.054733   -5.801810
     93          1           0       -6.595047    4.793157   -4.912243
     94          1           0       -5.743702    3.477713   -5.647053
     95          1           0       -8.949386   -0.644238   -3.491227
     96          1           0       -9.140120    1.159987   -2.990809
     97          1           0       -9.856509   -0.225007   -2.076920
     98          1           0       -6.681593   -3.657582    0.727496
     99          1           0       -3.774239   -5.804151   -1.522041
    100          1           0       -5.246576   -6.707421   -1.992772
    101          1           0       -4.578749   -7.100731   -0.444926
    102          1           0        1.316830   -5.541197    0.876854
    103          1           0        1.718972   -4.391173    2.224589
    104          1           0        2.173855   -3.079899   -0.327426
    105          1           0        5.432881   -5.477562    0.774724
    106          1           0        3.900584   -6.263666    0.365823
    107          1           0        4.097882   -5.446027    1.919200
    108          1           0        4.220222   -3.287232   -1.754710
    109          1           0        5.607758   -4.206474   -1.102402
    110          1           0        6.380259   -2.579393    0.139329
    111          1           0        4.833806   -1.719247    0.424890
    112          1           0        5.085041   -1.379529   -2.293117
    113          1           0        6.776356   -1.562318   -1.893530
    114          1           0        5.670128    0.368016    0.027547
    115          1           0        4.140427    1.537753   -0.964153
    116          1           0        4.520341    0.751786   -2.581569
    117          1           0        5.357423    2.174834   -1.856414
    118          1           0        7.283864    1.844839   -1.096944
    119          1           0        7.647791    0.564754   -2.331078
    120          1           0        9.020256   -0.610567   -1.098566
    121          1           0        7.872334   -0.769344    0.147386
    122          1           0        8.703478    0.907017    1.484203
    123          1           0        9.116755    1.934376    0.064625
    124          1           0       10.895311   -0.547174    0.289290
    125          1           0       10.185939    0.473639    2.733922
    126          1           0       11.919914    1.057154    2.298704
    127          1           0       11.395079   -0.579469    2.372013
    128          1           0       12.313135    1.966457    0.108070
    129          1           0       11.185669    1.557999   -1.281193
    130          1           0       12.274633   -0.514096   -1.551641
    131          1           0       13.246155   -0.290959   -0.110691
    132          1           0       13.518875    2.076798   -1.803630
    133          1           0       13.590648    0.717406   -2.888909
    134          1           0       15.232022   -0.305045   -1.188025
    135          1           0       14.808014    1.584711    0.521491
    136          1           0       15.728003    2.672106   -0.585958
    137          1           0       16.491681    1.236681    0.129584
    138          1           0       17.055416    1.546811   -2.202151
    139          1           0       15.773095    1.399619   -3.393396
    140          1           0       16.679202   -0.034556   -2.706861
 ---------------------------------------------------------------------

 SCF Done:  E(RZINDO/S) =  -474.454546948     A.U. after   20 cycles

 Excitation energies and oscillator strengths:

 Excited State   1:      Singlet-A      1.1989 eV 1034.17 nm  f=0.5831  <S**2>=0.000
     175 ->178        -0.18585
     176 ->177         0.66259
 This state for optimization and/or second-order correction.
 Total Energy, E(CIS/TDA) =  -474.410488994
 Copying the excited state density for this state as the 1-particle RhoCI density.

 Excited State   2:      Singlet-A      1.8686 eV  663.50 nm  f=0.0197  <S**2>=0.000
     175 ->177         0.52068
     176 ->178         0.45094

 Excited State   3:      Singlet-A      2.8249 eV  438.90 nm  f=0.4448  <S**2>=0.000
     175 ->177        -0.29408
     176 ->178         0.41099
     176 ->179         0.43805
     176 ->183        -0.10111

 Excited State   4:      Singlet-A      2.8700 eV  432.01 nm  f=0.0019  <S**2>=0.000
     170 ->177         0.25768
     170 ->179         0.33136
     170 ->180        -0.16546
     170 ->182        -0.33950
     170 ->183         0.15723
     170 ->185         0.20636
     170 ->186        -0.21021

 Excited State   5:      Singlet-A      3.0063 eV  412.42 nm  f=0.0129  <S**2>=0.000
     168 ->177         0.30397
     168 ->178        -0.24415
     168 ->179        -0.36040
     168 ->182        -0.21564
     168 ->185        -0.21293
     168 ->198         0.12873
     173 ->177         0.14008

 The electronic state is 1-A.
 Alpha  occ. eigenvalues --   -1.85050  -1.82466  -1.81509  -1.74167  -1.73001
 Alpha  occ. eigenvalues --   -1.70822  -1.64886  -1.61896  -1.61484  -1.59308
 Alpha  occ. eigenvalues --   -1.54767  -1.51459  -1.49469  -1.48736  -1.46640
 Alpha  occ. eigenvalues --   -1.44514  -1.44282  -1.39945  -1.38865  -1.38071
 Alpha  occ. eigenvalues --   -1.36981  -1.35123  -1.33386  -1.30982  -1.30052
 Alpha  occ. eigenvalues --   -1.28536  -1.25687  -1.21675  -1.19973  -1.17935
 Alpha  occ. eigenvalues --   -1.16922  -1.14450  -1.14157  -1.13799  -1.13323
 Alpha  occ. eigenvalues --   -1.12441  -1.09796  -1.09385  -1.04808  -1.03677
 Alpha  occ. eigenvalues --   -1.02959  -1.01170  -0.99983  -0.96861  -0.96647
 Alpha  occ. eigenvalues --   -0.95924  -0.94316  -0.93732  -0.92369  -0.92016
 Alpha  occ. eigenvalues --   -0.91093  -0.90627  -0.89230  -0.88419  -0.85924
 Alpha  occ. eigenvalues --   -0.85580  -0.83506  -0.83199  -0.81339  -0.80229
 Alpha  occ. eigenvalues --   -0.79254  -0.79002  -0.78158  -0.77704  -0.76807
 Alpha  occ. eigenvalues --   -0.76163  -0.76097  -0.75517  -0.73820  -0.73578
 Alpha  occ. eigenvalues --   -0.73175  -0.72257  -0.72027  -0.71860  -0.70592
 Alpha  occ. eigenvalues --   -0.70212  -0.69809  -0.68897  -0.68544  -0.68240
 Alpha  occ. eigenvalues --   -0.67524  -0.67070  -0.66609  -0.66360  -0.65342
 Alpha  occ. eigenvalues --   -0.65208  -0.64912  -0.64376  -0.63959  -0.63697
 Alpha  occ. eigenvalues --   -0.63491  -0.63140  -0.62624  -0.62238  -0.62073
 Alpha  occ. eigenvalues --   -0.61849  -0.61584  -0.60011  -0.59721  -0.59443
 Alpha  occ. eigenvalues --   -0.59071  -0.58848  -0.58407  -0.58265  -0.58101
 Alpha  occ. eigenvalues --   -0.57782  -0.57547  -0.57449  -0.56922  -0.56523
 Alpha  occ. eigenvalues --   -0.55876  -0.55825  -0.54953  -0.54809  -0.54804
 Alpha  occ. eigenvalues --   -0.54501  -0.54271  -0.53971  -0.53512  -0.53291
 Alpha  occ. eigenvalues --   -0.53011  -0.52668  -0.52201  -0.51734  -0.51574
 Alpha  occ. eigenvalues --   -0.51379  -0.51207  -0.50822  -0.50657  -0.50497
 Alpha  occ. eigenvalues --   -0.50405  -0.49676  -0.49545  -0.49452  -0.49046
 Alpha  occ. eigenvalues --   -0.48720  -0.48561  -0.48026  -0.47437  -0.47395
 Alpha  occ. eigenvalues --   -0.47258  -0.47064  -0.46803  -0.46681  -0.46408
 Alpha  occ. eigenvalues --   -0.46197  -0.45645  -0.45445  -0.45415  -0.45342
 Alpha  occ. eigenvalues --   -0.44994  -0.44682  -0.44366  -0.44362  -0.43798
 Alpha  occ. eigenvalues --   -0.43693  -0.43274  -0.42688  -0.42526  -0.41921
 Alpha  occ. eigenvalues --   -0.41650  -0.41462  -0.40981  -0.39194  -0.38856
 Alpha  occ. eigenvalues --   -0.38544  -0.37381  -0.35407  -0.34707  -0.34583
 Alpha  occ. eigenvalues --   -0.33014  -0.32923  -0.32211  -0.31592  -0.26937
 Alpha  occ. eigenvalues --   -0.21693
 Alpha virt. eigenvalues --   -0.08716  -0.02557  -0.00670   0.01309   0.01389
 Alpha virt. eigenvalues --    0.01478   0.02708   0.03135   0.04402   0.05613
 Alpha virt. eigenvalues --    0.05823   0.07046   0.07489   0.08006   0.08069

 Mulliken charges:
               1
     1  Mg   0.428212
     2  C   -0.025912
     3  C   -0.086362
     4  C   -0.073772
     5  C   -0.093027
     6  N   -0.295717
     7  C    0.104535
     8  C    0.019156
     9  C   -0.007381
    10  C    0.132753
    11  C   -0.055993
    12  C   -0.017754
    13  C    0.004362
    14  C    0.460443
    15  O   -0.501271
    16  O   -0.285916
    17  N   -0.303054
    18  C    0.103513
    19  C    0.036392
    20  C   -0.061166
    21  C    0.128265
    22  C   -0.036151
    23  C    0.322610
    24  O   -0.522465
    25  C   -0.033715
    26  N   -0.289660
    27  C    0.128297
    28  C    0.007766
    29  C   -0.002848
    30  C    0.138948
    31  C   -0.054504
    32  C   -0.021825
    33  C   -0.050804
    34  N   -0.302876
    35  C    0.118153
    36  C    0.015170
    37  C   -0.059218
    38  C    0.102549
    39  C   -0.034271
    40  C    0.335304
    41  O   -0.518632
    42  C    0.055978
    43  C    0.493337
    44  O   -0.508562
    45  O   -0.285730
    46  C    0.069698
    47  C    0.114352
    48  C   -0.080992
    49  C   -0.016958
    50  C   -0.043075
    51  C   -0.017956
    52  C   -0.026326
    53  C   -0.041585
    54  C   -0.014626
    55  C   -0.057996
    56  C   -0.037648
    57  C   -0.049316
    58  C   -0.034010
    59  C   -0.022849
    60  C   -0.067782
    61  C   -0.039785
    62  C   -0.046059
    63  C   -0.038892
    64  C   -0.009071
    65  C   -0.048108
    66  C   -0.059585
    67  H    0.033566
    68  H    0.008503
    69  H    0.035553
    70  H    0.035544
    71  H    0.040688
    72  H    0.021290
    73  H    0.027733
    74  H    0.029367
    75  H    0.023741
    76  H    0.010836
    77  H    0.041822
    78  H    0.045357
    79  H    0.046184
    80  H    0.020982
    81  H    0.038316
    82  H    0.041427
    83  H    0.028901
    84  H    0.037454
    85  H    0.028472
    86  H    0.034738
    87  H    0.030737
    88  H    0.028250
    89  H    0.015804
    90  H    0.032944
    91  H    0.014855
    92  H    0.018989
    93  H    0.017577
    94  H    0.016353
    95  H    0.049268
    96  H    0.030766
    97  H    0.036723
    98  H    0.056797
    99  H    0.061584
   100  H    0.038412
   101  H    0.032822
   102  H    0.057558
   103  H    0.037959
   104  H    0.024128
   105  H    0.013479
   106  H    0.030909
   107  H    0.023668
   108  H    0.027428
   109  H    0.022258
   110  H    0.019104
   111  H    0.029625
   112  H    0.021945
   113  H    0.021017
   114  H    0.020178
   115  H    0.015563
   116  H    0.024169
   117  H    0.012504
   118  H    0.021592
   119  H    0.022393
   120  H    0.019626
   121  H    0.015351
   122  H    0.026655
   123  H    0.023373
   124  H    0.025373
   125  H    0.024963
   126  H    0.024826
   127  H    0.005797
   128  H    0.031518
   129  H    0.025674
   130  H    0.013243
   131  H    0.023298
   132  H    0.015951
   133  H    0.014807
   134  H    0.016533
   135  H    0.012304
   136  H    0.024713
   137  H    0.011422
   138  H    0.012569
   139  H    0.020264
   140  H    0.015316
 Sum of Mulliken charges =  -0.00000

 Dipole moment (field-independent basis, Debye):
    X=             -1.3828    Y=              3.3526    Z=              3.0645  Tot=              4.7479
 N-N= 4.385794132741D+03 E-N= 0.000000000000D+00  KE=-9.446078780379D+03
 Leave Link  601 at Fri Apr 29 10:12:49 2022, MaxMem=  6710886400 cpu:               0.7 elap:               0.0
 (Enter /sw/apps/gaussian-16.0/g16/l9999.exe)
 1\1\GINC-BP1-COMPUTE154\SP\RZINDO CIS\STO-3G\C55H74Mg1N4O6\OF15641\29-
 Apr-2022\0\\#p ZINDO=(nstates=5)\\step_251_chromophore_11 ZINDO\\0,1\M
 g,0,53.43,23.68,44.039\C,0,50.605,25.722,43.592\C,0,51.432,20.929,43.5
 27\C,0,56.214,21.922,43.716\C,0,55.421,26.611,44.29\N,0,51.346,23.393,
 43.365\C,0,50.336,24.382,43.243\C,0,48.978,23.812,43.212\C,0,49.267,22
 .251,43.293\C,0,50.778,22.167,43.441\C,0,48.414,21.544,44.374\C,0,48.2
 23,24.061,41.942\C,0,49.034,24.029,40.638\C,0,48.418,23.462,39.3\O,0,4

 Normal termination of Gaussian 16 at Fri Apr 29 10:12:49 2022.
