 Gaussian 16, Revision A.03,
 Gaussian 16:  ES64L-G16RevA.03 25-Dec-2016

 ------------------------------
 #p blyp/Def2SVP td=(nstates=5)
 ------------------------------

 ---------------------------------------------------
 step_1001_chromophore_22 TDDFT with blyp functional
 ---------------------------------------------------
 Symbolic Z-matrix:
 Charge =  0 Multiplicity = 1

                         Standard orientation:
 ---------------------------------------------------------------------
 Center     Atomic      Atomic             Coordinates (Angstroms)
 Number     Number       Type             X           Y           Z
 ---------------------------------------------------------------------
      1         12           0        6.203304    0.577974    0.157926
      2          6           0        4.476942   -2.355672   -0.311654
      3          6           0        3.905385    2.278866   -1.645749
      4          6           0        8.243768    3.385108    0.476239
      5          6           0        8.951592   -1.301499    1.377403
      6          7           0        4.364291    0.028609   -0.722723
      7          6           0        3.834029   -1.200579   -0.818219
      8          6           0        2.403183   -1.143474   -1.454245
      9          6           0        2.333739    0.231183   -2.159944
     10          6           0        3.594953    0.894867   -1.493790
     11          6           0        2.153484    0.239900   -3.704560
     12          6           0        1.209136   -1.511828   -0.557485
     13          6           0       -0.224078   -1.027187   -0.991934
     14          6           0       -1.404975   -1.824943   -0.404092
     15          8           0       -1.402511   -2.479885    0.643950
     16          8           0       -2.503507   -1.748202   -1.188519
     17          7           0        6.050484    2.470307   -0.469267
     18          6           0        5.021979    3.009125   -1.187301
     19          6           0        5.124650    4.468495   -1.292789
     20          6           0        6.429818    4.834568   -0.689879
     21          6           0        6.962907    3.577073   -0.190423
     22          6           0        4.118892    5.354603   -1.926697
     23          6           0        6.971185    6.171322   -0.488236
     24          8           0        8.100220    6.369886   -0.036567
     25          6           0        6.233741    7.388743   -0.904301
     26          7           0        8.284854    1.007705    0.901278
     27          6           0        8.843193    2.193032    0.984528
     28          6           0       10.377323    2.124623    1.286358
     29          6           0       10.580857    0.653280    1.636363
     30          6           0        9.192661    0.079050    1.275821
     31          6           0       11.144748    2.650403    0.019511
     32          6           0       11.162616    0.325871    3.007429
     33          6           0       12.534444    0.963211    3.429576
     34          7           0        6.740100   -1.431400    0.332867
     35          6           0        7.809409   -2.016361    0.977854
     36          6           0        7.496459   -3.417738    1.155826
     37          6           0        6.211026   -3.615755    0.579291
     38          6           0        5.804350   -2.353671    0.154219
     39          6           0        8.448431   -4.463486    1.661508
     40          6           0        5.168257   -4.592855    0.294574
     41          8           0        5.158647   -5.824666    0.543862
     42          6           0        4.007294   -3.799704   -0.201596
     43          6           0        3.021994   -3.945279    0.930730
     44          8           0        2.902733   -3.207601    1.900357
     45          8           0        2.030676   -4.787635    0.491631
     46          6           0        0.844551   -4.940122    1.321126
     47          6           0       -3.617369   -2.499666   -0.608052
     48          6           0       -4.856940   -2.382371   -1.474678
     49          6           0       -5.987995   -3.122249   -1.597739
     50          6           0       -6.233870   -4.449121   -0.956787
     51          6           0       -7.093435   -2.608969   -2.463254
     52          6           0       -8.056433   -1.737950   -1.626848
     53          6           0       -8.324682   -0.280864   -2.275880
     54          6           0       -9.782271   -0.225658   -2.848258
     55          6           0       -9.696542    0.051636   -4.328456
     56          6           0      -10.721304    0.792550   -2.122752
     57          6           0      -11.589430    0.088583   -1.044539
     58          6           0      -13.024822    0.706227   -0.970367
     59          6           0      -13.374978    1.402173    0.336922
     60          6           0      -12.791382    2.839666    0.447606
     61          6           0      -14.907331    1.523844    0.528654
     62          6           0      -15.323017    1.248835    1.976992
     63          6           0      -16.740715    1.735507    2.412311
     64          6           0      -16.826857    1.989443    3.929356
     65          6           0      -18.001333    1.281565    4.618225
     66          6           0      -16.583699    3.435258    4.343647
     67          1           0        3.150328    2.797927   -2.239579
     68          1           0        8.878505    4.252099    0.673944
     69          1           0        9.829887   -1.839512    1.740150
     70          1           0        2.454253   -1.846328   -2.286268
     71          1           0        1.500966    0.815432   -1.770798
     72          1           0        3.019777    0.382617   -4.350485
     73          1           0        1.468556    1.042523   -3.976661
     74          1           0        1.740150   -0.728982   -3.986199
     75          1           0        1.455547   -1.107754    0.424871
     76          1           0        1.121725   -2.590897   -0.430347
     77          1           0       -0.240817   -1.068776   -2.080996
     78          1           0       -0.266313    0.019388   -0.689902
     79          1           0        3.309215    4.746208   -2.330433
     80          1           0        4.538507    5.928513   -2.753305
     81          1           0        3.604443    6.038094   -1.250626
     82          1           0        5.352078    7.494746   -0.272311
     83          1           0        6.131440    7.488546   -1.984609
     84          1           0        6.881887    8.211877   -0.603855
     85          1           0       10.563038    2.752334    2.157483
     86          1           0       11.196894    0.123567    0.909934
     87          1           0       10.431205    2.778187   -0.794785
     88          1           0       11.872922    1.898521   -0.283498
     89          1           0       11.599092    3.603876    0.289328
     90          1           0       11.310944   -0.732420    3.226460
     91          1           0       10.388096    0.707070    3.673130
     92          1           0       13.209414    1.081069    2.582000
     93          1           0       12.977172    0.361499    4.222598
     94          1           0       12.372917    1.953302    3.856975
     95          1           0        8.901597   -4.985685    0.818431
     96          1           0        7.745702   -5.130697    2.162320
     97          1           0        9.141589   -3.985349    2.351952
     98          1           0        3.668783   -4.274118   -1.123489
     99          1           0        0.022662   -5.219456    0.662617
    100          1           0        0.532796   -3.979404    1.733704
    101          1           0        1.056938   -5.614973    2.149986
    102          1           0       -3.907839   -2.170157    0.389408
    103          1           0       -3.246246   -3.522577   -0.557453
    104          1           0       -4.857337   -1.511744   -2.130983
    105          1           0       -7.130025   -4.255544   -0.367993
    106          1           0       -5.401418   -4.891045   -0.409616
    107          1           0       -6.520034   -5.224189   -1.667359
    108          1           0       -7.711101   -3.401210   -2.887193
    109          1           0       -6.748757   -2.097009   -3.361217
    110          1           0       -7.594731   -1.548264   -0.657820
    111          1           0       -8.999940   -2.273841   -1.519490
    112          1           0       -7.506855   -0.006608   -2.942646
    113          1           0       -8.232751    0.427843   -1.453482
    114          1           0      -10.296826   -1.184444   -2.786967
    115          1           0       -8.687242    0.300573   -4.656856
    116          1           0      -10.265681    0.922374   -4.654102
    117          1           0      -10.130784   -0.812504   -4.829617
    118          1           0      -11.380703    1.379051   -2.761686
    119          1           0      -10.116777    1.558757   -1.638055
    120          1           0      -10.930070    0.184384   -0.182381
    121          1           0      -11.713108   -0.936662   -1.391546
    122          1           0      -13.708688   -0.134323   -1.087312
    123          1           0      -13.220411    1.347014   -1.830122
    124          1           0      -12.985222    0.714381    1.088074
    125          1           0      -12.543741    3.129566   -0.572992
    126          1           0      -11.862472    2.874088    1.016597
    127          1           0      -13.480109    3.612815    0.787746
    128          1           0      -15.369295    0.854853   -0.197145
    129          1           0      -15.199925    2.542851    0.275534
    130          1           0      -14.594344    1.688615    2.658087
    131          1           0      -15.241264    0.196900    2.250990
    132          1           0      -17.544304    1.126900    1.997488
    133          1           0      -16.799449    2.726492    1.961968
    134          1           0      -15.950460    1.495620    4.349388
    135          1           0      -18.433508    1.966538    5.348108
    136          1           0      -17.786275    0.400139    5.222311
    137          1           0      -18.789578    1.100524    3.886822
    138          1           0      -15.513692    3.641079    4.366936
    139          1           0      -16.972426    3.669579    5.334439
    140          1           0      -17.077561    4.089052    3.625101
 ---------------------------------------------------------------------

 SCF Done:  E(RB-LYP) =  -3007.40729991     A.U. after   21 cycles

 Excitation energies and oscillator strengths:

 Excited State   1:      Singlet-A      1.7954 eV  690.55 nm  f=0.2598  <S**2>=0.000
     244 -> 247        0.23428
     245 -> 248       -0.18024
     246 -> 247        0.64722
     246 <- 247       -0.13918
 This state for optimization and/or second-order correction.
 Total Energy, E(TD-HF/TD-DFT) =  -3007.34131868
 Copying the excited state density for this state as the 1-particle RhoCI density.

 Excited State   2:      Singlet-A      1.8036 eV  687.43 nm  f=0.0395  <S**2>=0.000
     244 -> 247        0.66608
     246 -> 247       -0.22716

 Excited State   3:      Singlet-A      1.8914 eV  655.51 nm  f=0.0047  <S**2>=0.000
     243 -> 247        0.68018
     245 -> 247        0.17979

 Excited State   4:      Singlet-A      1.9967 eV  620.95 nm  f=0.0804  <S**2>=0.000
     243 -> 247       -0.18433
     245 -> 247        0.62729
     246 -> 248        0.23241

 Excited State   5:      Singlet-A      2.3110 eV  536.49 nm  f=0.0000  <S**2>=0.000
     242 -> 247        0.70708

 The electronic state is 1-A.
 Alpha  occ. eigenvalues --  -46.26583 -18.83470 -18.81362 -18.77605 -18.76645
 Alpha  occ. eigenvalues --  -18.75115 -18.74667 -14.03673 -14.03001 -14.01433
 Alpha  occ. eigenvalues --  -14.00467 -10.05211 -10.03830  -9.99134  -9.98887
 Alpha  occ. eigenvalues --   -9.98544  -9.97042  -9.96901  -9.96616  -9.96256
 Alpha  occ. eigenvalues --   -9.96082  -9.95922  -9.95848  -9.95162  -9.94760
 Alpha  occ. eigenvalues --   -9.94748  -9.94316  -9.94165  -9.93934  -9.93836
 Alpha  occ. eigenvalues --   -9.93721  -9.93457  -9.93451  -9.93286  -9.93152
 Alpha  occ. eigenvalues --   -9.93142  -9.93083  -9.93033  -9.92936  -9.92869
 Alpha  occ. eigenvalues --   -9.92777  -9.92565  -9.92453  -9.92353  -9.92234
 Alpha  occ. eigenvalues --   -9.92044  -9.92017  -9.91984  -9.91932  -9.91923
 Alpha  occ. eigenvalues --   -9.91830  -9.91783  -9.91663  -9.91447  -9.91298
 Alpha  occ. eigenvalues --   -9.91294  -9.91132  -9.91124  -9.90945  -9.90927
 Alpha  occ. eigenvalues --   -9.90863  -9.90802  -9.90786  -9.90515  -9.90453
 Alpha  occ. eigenvalues --   -9.90351  -2.91357  -1.71769  -1.71234  -1.71088
 Alpha  occ. eigenvalues --   -0.99603  -0.97245  -0.90760  -0.90201  -0.89519
 Alpha  occ. eigenvalues --   -0.89226  -0.87258  -0.86503  -0.85668  -0.83439
 Alpha  occ. eigenvalues --   -0.75965  -0.74024  -0.73213  -0.73085  -0.72598
 Alpha  occ. eigenvalues --   -0.72148  -0.71200  -0.71126  -0.70377  -0.70271
 Alpha  occ. eigenvalues --   -0.69560  -0.69366  -0.67932  -0.67387  -0.67107
 Alpha  occ. eigenvalues --   -0.66473  -0.65738  -0.65308  -0.64924  -0.64324
 Alpha  occ. eigenvalues --   -0.64092  -0.62912  -0.62631  -0.61705  -0.60602
 Alpha  occ. eigenvalues --   -0.60545  -0.60262  -0.59874  -0.59596  -0.58969
 Alpha  occ. eigenvalues --   -0.58604  -0.57115  -0.56757  -0.55769  -0.54914
 Alpha  occ. eigenvalues --   -0.53704  -0.53463  -0.53034  -0.52283  -0.51425
 Alpha  occ. eigenvalues --   -0.51042  -0.51011  -0.50448  -0.50342  -0.50049
 Alpha  occ. eigenvalues --   -0.49796  -0.49731  -0.48629  -0.48131  -0.47047
 Alpha  occ. eigenvalues --   -0.46216  -0.45966  -0.45715  -0.45150  -0.44872
 Alpha  occ. eigenvalues --   -0.44541  -0.43960  -0.43584  -0.42525  -0.42375
 Alpha  occ. eigenvalues --   -0.41894  -0.41853  -0.41429  -0.41251  -0.41083
 Alpha  occ. eigenvalues --   -0.41011  -0.40763  -0.40688  -0.40108  -0.40077
 Alpha  occ. eigenvalues --   -0.39937  -0.39514  -0.39310  -0.39212  -0.39138
 Alpha  occ. eigenvalues --   -0.38994  -0.38938  -0.38557  -0.38472  -0.38255
 Alpha  occ. eigenvalues --   -0.38122  -0.37916  -0.37739  -0.37589  -0.37342
 Alpha  occ. eigenvalues --   -0.37193  -0.36677  -0.36621  -0.36510  -0.36387
 Alpha  occ. eigenvalues --   -0.36284  -0.36171  -0.35985  -0.35746  -0.35206
 Alpha  occ. eigenvalues --   -0.35039  -0.34877  -0.34795  -0.34578  -0.34436
 Alpha  occ. eigenvalues --   -0.34368  -0.34190  -0.34109  -0.34027  -0.33837
 Alpha  occ. eigenvalues --   -0.33803  -0.33499  -0.33478  -0.33337  -0.33016
 Alpha  occ. eigenvalues --   -0.32936  -0.32770  -0.32527  -0.32353  -0.32275
 Alpha  occ. eigenvalues --   -0.32168  -0.32116  -0.31916  -0.31749  -0.31694
 Alpha  occ. eigenvalues --   -0.31498  -0.31329  -0.31028  -0.30823  -0.30768
 Alpha  occ. eigenvalues --   -0.30286  -0.30008  -0.29969  -0.29959  -0.29819
 Alpha  occ. eigenvalues --   -0.29668  -0.29051  -0.28941  -0.28834  -0.28685
 Alpha  occ. eigenvalues --   -0.28671  -0.28490  -0.28313  -0.27975  -0.27935
 Alpha  occ. eigenvalues --   -0.27837  -0.27376  -0.27036  -0.26801  -0.26578
 Alpha  occ. eigenvalues --   -0.26525  -0.26447  -0.26208  -0.25928  -0.25773
 Alpha  occ. eigenvalues --   -0.25239  -0.25026  -0.24528  -0.23803  -0.23787
 Alpha  occ. eigenvalues --   -0.23594  -0.22665  -0.21902  -0.21515  -0.20459
 Alpha  occ. eigenvalues --   -0.20134  -0.19976  -0.18330  -0.18022  -0.17057
 Alpha  occ. eigenvalues --   -0.15746
 Alpha virt. eigenvalues --   -0.11483  -0.06941  -0.06287  -0.04721  -0.03701
 Alpha virt. eigenvalues --   -0.02668  -0.02202  -0.01686  -0.01201   0.00270
 Alpha virt. eigenvalues --    0.01281   0.01887   0.02068   0.02611   0.03040

 Mulliken charges:
               1
     1  Mg   0.717896
     2  C   -0.026521
     3  C   -0.085486
     4  C   -0.032577
     5  C   -0.085641
     6  N   -0.234841
     7  C   -0.069361
     8  C    0.041789
     9  C   -0.018940
    10  C    0.015107
    11  C    0.134942
    12  C    0.095606
    13  C    0.113644
    14  C    0.103479
    15  O   -0.210009
    16  O   -0.248171
    17  N   -0.349122
    18  C    0.199307
    19  C   -0.161577
    20  C    0.091271
    21  C    0.118936
    22  C    0.192651
    23  C   -0.137235
    24  O   -0.178890
    25  C    0.159354
    26  N   -0.134796
    27  C   -0.048500
    28  C    0.001337
    29  C    0.078721
    30  C   -0.043382
    31  C    0.137275
    32  C    0.064106
    33  C    0.064172
    34  N   -0.247746
    35  C    0.153301
    36  C   -0.215016
    37  C    0.088301
    38  C    0.102822
    39  C    0.173676
    40  C   -0.088633
    41  O   -0.171183
    42  C    0.120177
    43  C    0.130953
    44  O   -0.177041
    45  O   -0.275044
    46  C    0.219399
    47  C    0.321017
    48  C   -0.113647
    49  C   -0.148135
    50  C    0.163372
    51  C    0.131906
    52  C    0.038723
    53  C    0.111887
    54  C   -0.067278
    55  C    0.115529
    56  C    0.067280
    57  C    0.085367
    58  C    0.092147
    59  C   -0.080603
    60  C    0.117912
    61  C    0.147058
    62  C    0.018902
    63  C    0.141580
    64  C   -0.094130
    65  C    0.111592
    66  C    0.105075
    67  H   -0.074064
    68  H   -0.040189
    69  H   -0.063755
    70  H   -0.047398
    71  H   -0.022545
    72  H   -0.003678
    73  H   -0.008044
    74  H   -0.005800
    75  H   -0.006412
    76  H    0.002125
    77  H   -0.006289
    78  H    0.017202
    79  H   -0.032746
    80  H    0.002816
    81  H    0.000734
    82  H   -0.000110
    83  H    0.012030
    84  H   -0.022499
    85  H   -0.023256
    86  H   -0.032610
    87  H    0.010621
    88  H   -0.011534
    89  H    0.006047
    90  H   -0.015080
    91  H   -0.023478
    92  H   -0.006193
    93  H   -0.004252
    94  H   -0.007282
    95  H    0.018651
    96  H    0.012137
    97  H   -0.006538
    98  H   -0.001088
    99  H    0.008828
   100  H    0.023161
   101  H    0.016271
   102  H    0.017237
   103  H   -0.001877
   104  H   -0.041197
   105  H   -0.010950
   106  H   -0.010840
   107  H   -0.008394
   108  H   -0.046222
   109  H   -0.020771
   110  H   -0.018330
   111  H   -0.014331
   112  H   -0.023692
   113  H   -0.039817
   114  H   -0.030656
   115  H   -0.023834
   116  H   -0.030110
   117  H   -0.017358
   118  H   -0.037439
   119  H   -0.036513
   120  H   -0.019245
   121  H   -0.033007
   122  H   -0.041523
   123  H   -0.034343
   124  H   -0.040193
   125  H   -0.027364
   126  H   -0.014120
   127  H   -0.010074
   128  H   -0.046985
   129  H   -0.042344
   130  H   -0.034641
   131  H   -0.032610
   132  H   -0.028277
   133  H   -0.051812
   134  H   -0.040368
   135  H   -0.040745
   136  H   -0.009044
   137  H   -0.019399
   138  H   -0.013518
   139  H   -0.019066
   140  H   -0.016075
 Sum of Mulliken charges =  -0.00000

 Dipole moment (field-independent basis, Debye):
    X=             -3.6022    Y=              2.3165    Z=             -2.6911  Tot=              5.0580
 Quadrupole moment (field-independent basis, Debye-Ang):
   XX=           -383.4285   YY=           -436.6782   ZZ=           -400.3183
   XY=              7.6332   XZ=              7.7481   YZ=              2.1916

 Normal termination of Gaussian 16 at Tue Apr 26 22:25:10 2022.
