 Gaussian 16, Revision A.03,
 Gaussian 16:  ES64L-G16RevA.03 25-Dec-2016

 -----------------------------------
 #p cam-b3lyp/Def2SVP td=(nstates=5)
 -----------------------------------

 --------------------------------------------------------
 step_1001_chromophore_22 TDDFT with cam-b3lyp functional
 --------------------------------------------------------
 Symbolic Z-matrix:
 Charge =  0 Multiplicity = 1

                         Standard orientation:
 ---------------------------------------------------------------------
 Center     Atomic      Atomic             Coordinates (Angstroms)
 Number     Number       Type             X           Y           Z
 ---------------------------------------------------------------------
      1         12           0        6.203304    0.577974    0.157926
      2          6           0        4.476942   -2.355672   -0.311654
      3          6           0        3.905385    2.278866   -1.645749
      4          6           0        8.243768    3.385108    0.476239
      5          6           0        8.951592   -1.301499    1.377403
      6          7           0        4.364291    0.028609   -0.722723
      7          6           0        3.834029   -1.200579   -0.818219
      8          6           0        2.403183   -1.143474   -1.454245
      9          6           0        2.333739    0.231183   -2.159944
     10          6           0        3.594953    0.894867   -1.493790
     11          6           0        2.153484    0.239900   -3.704560
     12          6           0        1.209136   -1.511828   -0.557485
     13          6           0       -0.224078   -1.027187   -0.991934
     14          6           0       -1.404975   -1.824943   -0.404092
     15          8           0       -1.402511   -2.479885    0.643950
     16          8           0       -2.503507   -1.748202   -1.188519
     17          7           0        6.050484    2.470307   -0.469267
     18          6           0        5.021979    3.009125   -1.187301
     19          6           0        5.124650    4.468495   -1.292789
     20          6           0        6.429818    4.834568   -0.689879
     21          6           0        6.962907    3.577073   -0.190423
     22          6           0        4.118892    5.354603   -1.926697
     23          6           0        6.971185    6.171322   -0.488236
     24          8           0        8.100220    6.369886   -0.036567
     25          6           0        6.233741    7.388743   -0.904301
     26          7           0        8.284854    1.007705    0.901278
     27          6           0        8.843193    2.193032    0.984528
     28          6           0       10.377323    2.124623    1.286358
     29          6           0       10.580857    0.653280    1.636363
     30          6           0        9.192661    0.079050    1.275821
     31          6           0       11.144748    2.650403    0.019511
     32          6           0       11.162616    0.325871    3.007429
     33          6           0       12.534444    0.963211    3.429576
     34          7           0        6.740100   -1.431400    0.332867
     35          6           0        7.809409   -2.016361    0.977854
     36          6           0        7.496459   -3.417738    1.155826
     37          6           0        6.211026   -3.615755    0.579291
     38          6           0        5.804350   -2.353671    0.154219
     39          6           0        8.448431   -4.463486    1.661508
     40          6           0        5.168257   -4.592855    0.294574
     41          8           0        5.158647   -5.824666    0.543862
     42          6           0        4.007294   -3.799704   -0.201596
     43          6           0        3.021994   -3.945279    0.930730
     44          8           0        2.902733   -3.207601    1.900357
     45          8           0        2.030676   -4.787635    0.491631
     46          6           0        0.844551   -4.940122    1.321126
     47          6           0       -3.617369   -2.499666   -0.608052
     48          6           0       -4.856940   -2.382371   -1.474678
     49          6           0       -5.987995   -3.122249   -1.597739
     50          6           0       -6.233870   -4.449121   -0.956787
     51          6           0       -7.093435   -2.608969   -2.463254
     52          6           0       -8.056433   -1.737950   -1.626848
     53          6           0       -8.324682   -0.280864   -2.275880
     54          6           0       -9.782271   -0.225658   -2.848258
     55          6           0       -9.696542    0.051636   -4.328456
     56          6           0      -10.721304    0.792550   -2.122752
     57          6           0      -11.589430    0.088583   -1.044539
     58          6           0      -13.024822    0.706227   -0.970367
     59          6           0      -13.374978    1.402173    0.336922
     60          6           0      -12.791382    2.839666    0.447606
     61          6           0      -14.907331    1.523844    0.528654
     62          6           0      -15.323017    1.248835    1.976992
     63          6           0      -16.740715    1.735507    2.412311
     64          6           0      -16.826857    1.989443    3.929356
     65          6           0      -18.001333    1.281565    4.618225
     66          6           0      -16.583699    3.435258    4.343647
     67          1           0        3.150328    2.797927   -2.239579
     68          1           0        8.878505    4.252099    0.673944
     69          1           0        9.829887   -1.839512    1.740150
     70          1           0        2.454253   -1.846328   -2.286268
     71          1           0        1.500966    0.815432   -1.770798
     72          1           0        3.019777    0.382617   -4.350485
     73          1           0        1.468556    1.042523   -3.976661
     74          1           0        1.740150   -0.728982   -3.986199
     75          1           0        1.455547   -1.107754    0.424871
     76          1           0        1.121725   -2.590897   -0.430347
     77          1           0       -0.240817   -1.068776   -2.080996
     78          1           0       -0.266313    0.019388   -0.689902
     79          1           0        3.309215    4.746208   -2.330433
     80          1           0        4.538507    5.928513   -2.753305
     81          1           0        3.604443    6.038094   -1.250626
     82          1           0        5.352078    7.494746   -0.272311
     83          1           0        6.131440    7.488546   -1.984609
     84          1           0        6.881887    8.211877   -0.603855
     85          1           0       10.563038    2.752334    2.157483
     86          1           0       11.196894    0.123567    0.909934
     87          1           0       10.431205    2.778187   -0.794785
     88          1           0       11.872922    1.898521   -0.283498
     89          1           0       11.599092    3.603876    0.289328
     90          1           0       11.310944   -0.732420    3.226460
     91          1           0       10.388096    0.707070    3.673130
     92          1           0       13.209414    1.081069    2.582000
     93          1           0       12.977172    0.361499    4.222598
     94          1           0       12.372917    1.953302    3.856975
     95          1           0        8.901597   -4.985685    0.818431
     96          1           0        7.745702   -5.130697    2.162320
     97          1           0        9.141589   -3.985349    2.351952
     98          1           0        3.668783   -4.274118   -1.123489
     99          1           0        0.022662   -5.219456    0.662617
    100          1           0        0.532796   -3.979404    1.733704
    101          1           0        1.056938   -5.614973    2.149986
    102          1           0       -3.907839   -2.170157    0.389408
    103          1           0       -3.246246   -3.522577   -0.557453
    104          1           0       -4.857337   -1.511744   -2.130983
    105          1           0       -7.130025   -4.255544   -0.367993
    106          1           0       -5.401418   -4.891045   -0.409616
    107          1           0       -6.520034   -5.224189   -1.667359
    108          1           0       -7.711101   -3.401210   -2.887193
    109          1           0       -6.748757   -2.097009   -3.361217
    110          1           0       -7.594731   -1.548264   -0.657820
    111          1           0       -8.999940   -2.273841   -1.519490
    112          1           0       -7.506855   -0.006608   -2.942646
    113          1           0       -8.232751    0.427843   -1.453482
    114          1           0      -10.296826   -1.184444   -2.786967
    115          1           0       -8.687242    0.300573   -4.656856
    116          1           0      -10.265681    0.922374   -4.654102
    117          1           0      -10.130784   -0.812504   -4.829617
    118          1           0      -11.380703    1.379051   -2.761686
    119          1           0      -10.116777    1.558757   -1.638055
    120          1           0      -10.930070    0.184384   -0.182381
    121          1           0      -11.713108   -0.936662   -1.391546
    122          1           0      -13.708688   -0.134323   -1.087312
    123          1           0      -13.220411    1.347014   -1.830122
    124          1           0      -12.985222    0.714381    1.088074
    125          1           0      -12.543741    3.129566   -0.572992
    126          1           0      -11.862472    2.874088    1.016597
    127          1           0      -13.480109    3.612815    0.787746
    128          1           0      -15.369295    0.854853   -0.197145
    129          1           0      -15.199925    2.542851    0.275534
    130          1           0      -14.594344    1.688615    2.658087
    131          1           0      -15.241264    0.196900    2.250990
    132          1           0      -17.544304    1.126900    1.997488
    133          1           0      -16.799449    2.726492    1.961968
    134          1           0      -15.950460    1.495620    4.349388
    135          1           0      -18.433508    1.966538    5.348108
    136          1           0      -17.786275    0.400139    5.222311
    137          1           0      -18.789578    1.100524    3.886822
    138          1           0      -15.513692    3.641079    4.366936
    139          1           0      -16.972426    3.669579    5.334439
    140          1           0      -17.077561    4.089052    3.625101
 ---------------------------------------------------------------------

 SCF Done:  E(RCAM-B3LYP) =  -3007.20124076     A.U. after   19 cycles

 Excitation energies and oscillator strengths:

 Excited State   1:      Singlet-A      1.6883 eV  734.39 nm  f=0.3735  <S**2>=0.000
     245 -> 248       -0.19140
     246 -> 247        0.68248
     245 <- 248       -0.11120
 This state for optimization and/or second-order correction.
 Total Energy, E(TD-HF/TD-DFT) =  -3007.13919845
 Copying the excited state density for this state as the 1-particle RhoCI density.

 Excited State   2:      Singlet-A      2.2019 eV  563.08 nm  f=0.1266  <S**2>=0.000
     245 -> 247        0.64185
     246 -> 248        0.28472

 Excited State   3:      Singlet-A      3.3771 eV  367.13 nm  f=0.0023  <S**2>=0.000
     241 -> 247        0.18258
     242 -> 247       -0.17769
     244 -> 247        0.63942

 Excited State   4:      Singlet-A      3.4534 eV  359.02 nm  f=0.0518  <S**2>=0.000
     239 -> 247        0.32822
     239 -> 249        0.21290
     239 -> 250       -0.13413
     240 -> 247       -0.13665
     241 -> 247        0.35615
     241 -> 249        0.20823
     241 -> 250       -0.13749
     242 -> 247        0.17314
     246 -> 248       -0.22607

 Excited State   5:      Singlet-A      3.4706 eV  357.24 nm  f=0.1301  <S**2>=0.000
     239 -> 247       -0.17813
     241 -> 247       -0.12743
     242 -> 247        0.44762
     244 -> 247        0.20875
     245 -> 247        0.11642
     246 -> 248       -0.37188

 The electronic state is 1-A.
 Alpha  occ. eigenvalues --  -46.88060 -19.26335 -19.24181 -19.20577 -19.19661
 Alpha  occ. eigenvalues --  -19.18361 -19.17982 -14.42475 -14.41961 -14.39980
 Alpha  occ. eigenvalues --  -14.38804 -10.40522 -10.39219 -10.34508 -10.34117
 Alpha  occ. eigenvalues --  -10.32550 -10.31687 -10.31473 -10.31187 -10.30424
 Alpha  occ. eigenvalues --  -10.30353 -10.30275 -10.30127 -10.29309 -10.29051
 Alpha  occ. eigenvalues --  -10.28849 -10.28810 -10.28241 -10.28215 -10.28132
 Alpha  occ. eigenvalues --  -10.27662 -10.27659 -10.27595 -10.27319 -10.27268
 Alpha  occ. eigenvalues --  -10.27223 -10.27073 -10.27034 -10.26982 -10.26933
 Alpha  occ. eigenvalues --  -10.26785 -10.26657 -10.26655 -10.26072 -10.25891
 Alpha  occ. eigenvalues --  -10.25810 -10.25709 -10.25690 -10.25684 -10.25640
 Alpha  occ. eigenvalues --  -10.25609 -10.25498 -10.25426 -10.25351 -10.25105
 Alpha  occ. eigenvalues --  -10.24960 -10.24794 -10.24784 -10.24588 -10.24539
 Alpha  occ. eigenvalues --  -10.24526 -10.24436 -10.24408 -10.24387 -10.24094
 Alpha  occ. eigenvalues --  -10.24006  -3.16744  -1.91630  -1.91189  -1.91075
 Alpha  occ. eigenvalues --   -1.18049  -1.15703  -1.09256  -1.08034  -1.07767
 Alpha  occ. eigenvalues --   -1.07190  -1.05034  -1.04194  -1.03238  -1.00941
 Alpha  occ. eigenvalues --   -0.93137  -0.90910  -0.90029  -0.89899  -0.89285
 Alpha  occ. eigenvalues --   -0.88844  -0.87882  -0.87719  -0.87067  -0.86893
 Alpha  occ. eigenvalues --   -0.86103  -0.85696  -0.84171  -0.83560  -0.83239
 Alpha  occ. eigenvalues --   -0.82521  -0.81880  -0.81312  -0.80833  -0.80129
 Alpha  occ. eigenvalues --   -0.79906  -0.78597  -0.78370  -0.77233  -0.75953
 Alpha  occ. eigenvalues --   -0.75918  -0.75634  -0.75186  -0.74860  -0.74191
 Alpha  occ. eigenvalues --   -0.73684  -0.72106  -0.71694  -0.70584  -0.69528
 Alpha  occ. eigenvalues --   -0.68388  -0.68070  -0.67528  -0.66585  -0.65551
 Alpha  occ. eigenvalues --   -0.65200  -0.65068  -0.64448  -0.64386  -0.64066
 Alpha  occ. eigenvalues --   -0.63751  -0.63651  -0.62506  -0.61857  -0.60681
 Alpha  occ. eigenvalues --   -0.59862  -0.59512  -0.59294  -0.58585  -0.58342
 Alpha  occ. eigenvalues --   -0.57928  -0.57311  -0.56816  -0.55752  -0.55584
 Alpha  occ. eigenvalues --   -0.55096  -0.54740  -0.54437  -0.54080  -0.54004
 Alpha  occ. eigenvalues --   -0.53904  -0.53673  -0.53444  -0.52998  -0.52898
 Alpha  occ. eigenvalues --   -0.52632  -0.52399  -0.52000  -0.51706  -0.51608
 Alpha  occ. eigenvalues --   -0.51568  -0.51354  -0.51168  -0.50816  -0.50757
 Alpha  occ. eigenvalues --   -0.50579  -0.50180  -0.50020  -0.49881  -0.49637
 Alpha  occ. eigenvalues --   -0.49464  -0.49219  -0.48809  -0.48696  -0.48611
 Alpha  occ. eigenvalues --   -0.48477  -0.48444  -0.48263  -0.48000  -0.47624
 Alpha  occ. eigenvalues --   -0.47383  -0.47058  -0.46794  -0.46608  -0.46331
 Alpha  occ. eigenvalues --   -0.46221  -0.46157  -0.45867  -0.45802  -0.45622
 Alpha  occ. eigenvalues --   -0.45458  -0.45311  -0.45285  -0.44980  -0.44704
 Alpha  occ. eigenvalues --   -0.44620  -0.44573  -0.44179  -0.44099  -0.43820
 Alpha  occ. eigenvalues --   -0.43710  -0.43673  -0.43535  -0.43306  -0.43189
 Alpha  occ. eigenvalues --   -0.42900  -0.42768  -0.42676  -0.42330  -0.42206
 Alpha  occ. eigenvalues --   -0.41952  -0.41668  -0.41518  -0.41175  -0.41152
 Alpha  occ. eigenvalues --   -0.40979  -0.40551  -0.40114  -0.40068  -0.39900
 Alpha  occ. eigenvalues --   -0.39685  -0.39629  -0.39289  -0.39082  -0.38832
 Alpha  occ. eigenvalues --   -0.38806  -0.38181  -0.38000  -0.37809  -0.37609
 Alpha  occ. eigenvalues --   -0.37573  -0.37310  -0.37245  -0.36594  -0.36408
 Alpha  occ. eigenvalues --   -0.35909  -0.35809  -0.35614  -0.34933  -0.34532
 Alpha  occ. eigenvalues --   -0.34126  -0.34091  -0.33250  -0.30832  -0.30612
 Alpha  occ. eigenvalues --   -0.30446  -0.29768  -0.29542  -0.29401  -0.23709
 Alpha  occ. eigenvalues --   -0.21087
 Alpha virt. eigenvalues --   -0.08657  -0.01772   0.00082   0.02155   0.03074
 Alpha virt. eigenvalues --    0.04264   0.05104   0.05797   0.05884   0.06370
 Alpha virt. eigenvalues --    0.08109   0.08438   0.08936   0.09251   0.09276

 Mulliken charges:
               1
     1  Mg   0.850391
     2  C   -0.059909
     3  C   -0.102362
     4  C   -0.052841
     5  C   -0.086420
     6  N   -0.310691
     7  C   -0.022308
     8  C   -0.003804
     9  C   -0.073847
    10  C    0.038489
    11  C    0.077191
    12  C    0.046831
    13  C    0.044816
    14  C    0.183270
    15  O   -0.252995
    16  O   -0.311519
    17  N   -0.435731
    18  C    0.208344
    19  C   -0.165266
    20  C    0.019972
    21  C    0.140987
    22  C    0.131677
    23  C   -0.056449
    24  O   -0.220331
    25  C    0.071595
    26  N   -0.201689
    27  C   -0.021308
    28  C   -0.059038
    29  C    0.021048
    30  C   -0.024339
    31  C    0.078390
    32  C    0.010356
    33  C    0.004985
    34  N   -0.337725
    35  C    0.150653
    36  C   -0.204907
    37  C    0.007675
    38  C    0.141126
    39  C    0.124293
    40  C    0.009546
    41  O   -0.209194
    42  C    0.041709
    43  C    0.217934
    44  O   -0.212415
    45  O   -0.338185
    46  C    0.178205
    47  C    0.290687
    48  C   -0.133582
    49  C   -0.177042
    50  C    0.102938
    51  C    0.071294
    52  C   -0.011351
    53  C    0.059364
    54  C   -0.126785
    55  C    0.058500
    56  C    0.021376
    57  C    0.029776
    58  C    0.038501
    59  C   -0.135507
    60  C    0.058684
    61  C    0.090307
    62  C   -0.028944
    63  C    0.084059
    64  C   -0.159802
    65  C    0.053364
    66  C    0.049960
    67  H   -0.040445
    68  H    0.002450
    69  H   -0.027999
    70  H   -0.010278
    71  H    0.011740
    72  H    0.023822
    73  H    0.015945
    74  H    0.017128
    75  H    0.025063
    76  H    0.028187
    77  H    0.025962
    78  H    0.047356
    79  H   -0.003255
    80  H    0.028855
    81  H    0.028047
    82  H    0.029210
    83  H    0.040484
    84  H    0.016099
    85  H    0.011493
    86  H    0.002606
    87  H    0.037045
    88  H    0.012751
    89  H    0.029532
    90  H    0.012004
    91  H    0.003916
    92  H    0.016169
    93  H    0.020210
    94  H    0.014639
    95  H    0.044731
    96  H    0.038599
    97  H    0.016419
    98  H    0.044439
    99  H    0.031482
   100  H    0.047359
   101  H    0.039551
   102  H    0.044859
   103  H    0.025248
   104  H   -0.007303
   105  H    0.012199
   106  H    0.014165
   107  H    0.017275
   108  H   -0.013682
   109  H    0.009507
   110  H    0.010700
   111  H    0.010607
   112  H    0.002898
   113  H   -0.010163
   114  H   -0.000282
   115  H    0.000056
   116  H   -0.004655
   117  H    0.006487
   118  H   -0.009582
   119  H   -0.009768
   120  H    0.007507
   121  H   -0.004583
   122  H   -0.010688
   123  H   -0.006648
   124  H   -0.008026
   125  H   -0.004290
   126  H    0.009767
   127  H    0.013475
   128  H   -0.016734
   129  H   -0.014141
   130  H   -0.008333
   131  H   -0.004896
   132  H    0.000865
   133  H   -0.023539
   134  H   -0.007192
   135  H   -0.015365
   136  H    0.015287
   137  H    0.003935
   138  H    0.009416
   139  H    0.005791
   140  H    0.006502
 Sum of Mulliken charges =  -0.00000

 Dipole moment (field-independent basis, Debye):
    X=             -3.6099    Y=              2.9443    Z=             -2.9404  Tot=              5.5087
 Quadrupole moment (field-independent basis, Debye-Ang):
   XX=           -381.9079   YY=           -432.3250   ZZ=           -399.6693
   XY=              9.9291   XZ=              8.1202   YZ=              1.4603

 Normal termination of Gaussian 16 at Tue Apr 26 21:29:52 2022.
