 Gaussian 16, Revision A.03,
 Gaussian 16:  ES64L-G16RevA.03 25-Dec-2016

 ---------------------------------
 #p PBE1PBE/Def2SVP td=(nstates=5)
 ---------------------------------

 ------------------------------------------------------
 step_1001_chromophore_22 TDDFT with PBE1PBE functional
 ------------------------------------------------------
 Symbolic Z-matrix:
 Charge =  0 Multiplicity = 1

                         Standard orientation:
 ---------------------------------------------------------------------
 Center     Atomic      Atomic             Coordinates (Angstroms)
 Number     Number       Type             X           Y           Z
 ---------------------------------------------------------------------
      1         12           0        6.203304    0.577974    0.157926
      2          6           0        4.476942   -2.355672   -0.311654
      3          6           0        3.905385    2.278866   -1.645749
      4          6           0        8.243768    3.385108    0.476239
      5          6           0        8.951592   -1.301499    1.377403
      6          7           0        4.364291    0.028609   -0.722723
      7          6           0        3.834029   -1.200579   -0.818219
      8          6           0        2.403183   -1.143474   -1.454245
      9          6           0        2.333739    0.231183   -2.159944
     10          6           0        3.594953    0.894867   -1.493790
     11          6           0        2.153484    0.239900   -3.704560
     12          6           0        1.209136   -1.511828   -0.557485
     13          6           0       -0.224078   -1.027187   -0.991934
     14          6           0       -1.404975   -1.824943   -0.404092
     15          8           0       -1.402511   -2.479885    0.643950
     16          8           0       -2.503507   -1.748202   -1.188519
     17          7           0        6.050484    2.470307   -0.469267
     18          6           0        5.021979    3.009125   -1.187301
     19          6           0        5.124650    4.468495   -1.292789
     20          6           0        6.429818    4.834568   -0.689879
     21          6           0        6.962907    3.577073   -0.190423
     22          6           0        4.118892    5.354603   -1.926697
     23          6           0        6.971185    6.171322   -0.488236
     24          8           0        8.100220    6.369886   -0.036567
     25          6           0        6.233741    7.388743   -0.904301
     26          7           0        8.284854    1.007705    0.901278
     27          6           0        8.843193    2.193032    0.984528
     28          6           0       10.377323    2.124623    1.286358
     29          6           0       10.580857    0.653280    1.636363
     30          6           0        9.192661    0.079050    1.275821
     31          6           0       11.144748    2.650403    0.019511
     32          6           0       11.162616    0.325871    3.007429
     33          6           0       12.534444    0.963211    3.429576
     34          7           0        6.740100   -1.431400    0.332867
     35          6           0        7.809409   -2.016361    0.977854
     36          6           0        7.496459   -3.417738    1.155826
     37          6           0        6.211026   -3.615755    0.579291
     38          6           0        5.804350   -2.353671    0.154219
     39          6           0        8.448431   -4.463486    1.661508
     40          6           0        5.168257   -4.592855    0.294574
     41          8           0        5.158647   -5.824666    0.543862
     42          6           0        4.007294   -3.799704   -0.201596
     43          6           0        3.021994   -3.945279    0.930730
     44          8           0        2.902733   -3.207601    1.900357
     45          8           0        2.030676   -4.787635    0.491631
     46          6           0        0.844551   -4.940122    1.321126
     47          6           0       -3.617369   -2.499666   -0.608052
     48          6           0       -4.856940   -2.382371   -1.474678
     49          6           0       -5.987995   -3.122249   -1.597739
     50          6           0       -6.233870   -4.449121   -0.956787
     51          6           0       -7.093435   -2.608969   -2.463254
     52          6           0       -8.056433   -1.737950   -1.626848
     53          6           0       -8.324682   -0.280864   -2.275880
     54          6           0       -9.782271   -0.225658   -2.848258
     55          6           0       -9.696542    0.051636   -4.328456
     56          6           0      -10.721304    0.792550   -2.122752
     57          6           0      -11.589430    0.088583   -1.044539
     58          6           0      -13.024822    0.706227   -0.970367
     59          6           0      -13.374978    1.402173    0.336922
     60          6           0      -12.791382    2.839666    0.447606
     61          6           0      -14.907331    1.523844    0.528654
     62          6           0      -15.323017    1.248835    1.976992
     63          6           0      -16.740715    1.735507    2.412311
     64          6           0      -16.826857    1.989443    3.929356
     65          6           0      -18.001333    1.281565    4.618225
     66          6           0      -16.583699    3.435258    4.343647
     67          1           0        3.150328    2.797927   -2.239579
     68          1           0        8.878505    4.252099    0.673944
     69          1           0        9.829887   -1.839512    1.740150
     70          1           0        2.454253   -1.846328   -2.286268
     71          1           0        1.500966    0.815432   -1.770798
     72          1           0        3.019777    0.382617   -4.350485
     73          1           0        1.468556    1.042523   -3.976661
     74          1           0        1.740150   -0.728982   -3.986199
     75          1           0        1.455547   -1.107754    0.424871
     76          1           0        1.121725   -2.590897   -0.430347
     77          1           0       -0.240817   -1.068776   -2.080996
     78          1           0       -0.266313    0.019388   -0.689902
     79          1           0        3.309215    4.746208   -2.330433
     80          1           0        4.538507    5.928513   -2.753305
     81          1           0        3.604443    6.038094   -1.250626
     82          1           0        5.352078    7.494746   -0.272311
     83          1           0        6.131440    7.488546   -1.984609
     84          1           0        6.881887    8.211877   -0.603855
     85          1           0       10.563038    2.752334    2.157483
     86          1           0       11.196894    0.123567    0.909934
     87          1           0       10.431205    2.778187   -0.794785
     88          1           0       11.872922    1.898521   -0.283498
     89          1           0       11.599092    3.603876    0.289328
     90          1           0       11.310944   -0.732420    3.226460
     91          1           0       10.388096    0.707070    3.673130
     92          1           0       13.209414    1.081069    2.582000
     93          1           0       12.977172    0.361499    4.222598
     94          1           0       12.372917    1.953302    3.856975
     95          1           0        8.901597   -4.985685    0.818431
     96          1           0        7.745702   -5.130697    2.162320
     97          1           0        9.141589   -3.985349    2.351952
     98          1           0        3.668783   -4.274118   -1.123489
     99          1           0        0.022662   -5.219456    0.662617
    100          1           0        0.532796   -3.979404    1.733704
    101          1           0        1.056938   -5.614973    2.149986
    102          1           0       -3.907839   -2.170157    0.389408
    103          1           0       -3.246246   -3.522577   -0.557453
    104          1           0       -4.857337   -1.511744   -2.130983
    105          1           0       -7.130025   -4.255544   -0.367993
    106          1           0       -5.401418   -4.891045   -0.409616
    107          1           0       -6.520034   -5.224189   -1.667359
    108          1           0       -7.711101   -3.401210   -2.887193
    109          1           0       -6.748757   -2.097009   -3.361217
    110          1           0       -7.594731   -1.548264   -0.657820
    111          1           0       -8.999940   -2.273841   -1.519490
    112          1           0       -7.506855   -0.006608   -2.942646
    113          1           0       -8.232751    0.427843   -1.453482
    114          1           0      -10.296826   -1.184444   -2.786967
    115          1           0       -8.687242    0.300573   -4.656856
    116          1           0      -10.265681    0.922374   -4.654102
    117          1           0      -10.130784   -0.812504   -4.829617
    118          1           0      -11.380703    1.379051   -2.761686
    119          1           0      -10.116777    1.558757   -1.638055
    120          1           0      -10.930070    0.184384   -0.182381
    121          1           0      -11.713108   -0.936662   -1.391546
    122          1           0      -13.708688   -0.134323   -1.087312
    123          1           0      -13.220411    1.347014   -1.830122
    124          1           0      -12.985222    0.714381    1.088074
    125          1           0      -12.543741    3.129566   -0.572992
    126          1           0      -11.862472    2.874088    1.016597
    127          1           0      -13.480109    3.612815    0.787746
    128          1           0      -15.369295    0.854853   -0.197145
    129          1           0      -15.199925    2.542851    0.275534
    130          1           0      -14.594344    1.688615    2.658087
    131          1           0      -15.241264    0.196900    2.250990
    132          1           0      -17.544304    1.126900    1.997488
    133          1           0      -16.799449    2.726492    1.961968
    134          1           0      -15.950460    1.495620    4.349388
    135          1           0      -18.433508    1.966538    5.348108
    136          1           0      -17.786275    0.400139    5.222311
    137          1           0      -18.789578    1.100524    3.886822
    138          1           0      -15.513692    3.641079    4.366936
    139          1           0      -16.972426    3.669579    5.334439
    140          1           0      -17.077561    4.089052    3.625101
 ---------------------------------------------------------------------

 SCF Done:  E(RPBE1PBE) =  -3005.39064289     A.U. after   16 cycles

 Excitation energies and oscillator strengths:

 Excited State   1:      Singlet-A      1.8465 eV  671.46 nm  f=0.3618  <S**2>=0.000
     245 -> 248       -0.18198
     246 -> 247        0.68992
     246 <- 247       -0.10501
 This state for optimization and/or second-order correction.
 Total Energy, E(TD-HF/TD-DFT) =  -3005.32278594
 Copying the excited state density for this state as the 1-particle RhoCI density.

 Excited State   2:      Singlet-A      2.2057 eV  562.10 nm  f=0.1205  <S**2>=0.000
     245 -> 247        0.65274
     246 -> 248        0.25857

 Excited State   3:      Singlet-A      2.9501 eV  420.27 nm  f=0.0002  <S**2>=0.000
     240 -> 247        0.14310
     241 -> 247       -0.12591
     242 -> 247        0.60610
     242 -> 248       -0.10687
     242 -> 249       -0.13124
     243 -> 247        0.21347

 Excited State   4:      Singlet-A      2.9610 eV  418.72 nm  f=0.0001  <S**2>=0.000
     240 -> 247        0.34509
     240 -> 249        0.11754
     241 -> 247        0.55654
     241 -> 249        0.14097
     243 -> 247        0.12791

 Excited State   5:      Singlet-A      3.0546 eV  405.89 nm  f=0.0019  <S**2>=0.000
     239 -> 247        0.10454
     240 -> 247       -0.14996
     242 -> 247       -0.18961
     243 -> 247        0.64755

 The electronic state is 1-A.
 Alpha  occ. eigenvalues --  -46.91499 -19.27028 -19.24880 -19.20888 -19.19918
 Alpha  occ. eigenvalues --  -19.18632 -19.18159 -14.42083 -14.41352 -14.39663
 Alpha  occ. eigenvalues --  -14.38483 -10.37577 -10.36295 -10.31675 -10.31163
 Alpha  occ. eigenvalues --  -10.29969 -10.29422 -10.29214 -10.28936 -10.28213
 Alpha  occ. eigenvalues --  -10.28079 -10.27913 -10.27383 -10.27090 -10.26726
 Alpha  occ. eigenvalues --  -10.26651 -10.26325 -10.26045 -10.25874 -10.25771
 Alpha  occ. eigenvalues --  -10.25505 -10.25468 -10.25337 -10.25150 -10.24912
 Alpha  occ. eigenvalues --  -10.24895 -10.24647 -10.24634 -10.24535 -10.24389
 Alpha  occ. eigenvalues --  -10.24344 -10.24290 -10.24260 -10.23434 -10.23431
 Alpha  occ. eigenvalues --  -10.23364 -10.23335 -10.23321 -10.23281 -10.23189
 Alpha  occ. eigenvalues --  -10.23167 -10.23049 -10.22922 -10.22767 -10.22661
 Alpha  occ. eigenvalues --  -10.22530 -10.22381 -10.22311 -10.22184 -10.22142
 Alpha  occ. eigenvalues --  -10.22138 -10.21998 -10.21919 -10.21765 -10.21475
 Alpha  occ. eigenvalues --  -10.21413  -3.13758  -1.86585  -1.86122  -1.86013
 Alpha  occ. eigenvalues --   -1.12896  -1.10494  -1.03926  -1.02907  -1.02497
 Alpha  occ. eigenvalues --   -1.02031  -0.99659  -0.98862  -0.97938  -0.95562
 Alpha  occ. eigenvalues --   -0.87551  -0.85046  -0.84189  -0.84053  -0.83574
 Alpha  occ. eigenvalues --   -0.82961  -0.82192  -0.81845  -0.81305  -0.81187
 Alpha  occ. eigenvalues --   -0.80435  -0.79956  -0.78374  -0.77851  -0.77460
 Alpha  occ. eigenvalues --   -0.76770  -0.76081  -0.75498  -0.75093  -0.74340
 Alpha  occ. eigenvalues --   -0.74223  -0.72851  -0.72684  -0.71528  -0.70285
 Alpha  occ. eigenvalues --   -0.70111  -0.69724  -0.69306  -0.69241  -0.68389
 Alpha  occ. eigenvalues --   -0.67994  -0.66558  -0.66070  -0.64958  -0.63900
 Alpha  occ. eigenvalues --   -0.62785  -0.62336  -0.62033  -0.60872  -0.59975
 Alpha  occ. eigenvalues --   -0.59479  -0.59418  -0.59025  -0.58630  -0.58539
 Alpha  occ. eigenvalues --   -0.58177  -0.57904  -0.56711  -0.56437  -0.55076
 Alpha  occ. eigenvalues --   -0.54385  -0.54046  -0.53877  -0.53141  -0.52865
 Alpha  occ. eigenvalues --   -0.52253  -0.51930  -0.51300  -0.50260  -0.50166
 Alpha  occ. eigenvalues --   -0.49727  -0.49246  -0.49031  -0.48618  -0.48463
 Alpha  occ. eigenvalues --   -0.48361  -0.48184  -0.47908  -0.47552  -0.47255
 Alpha  occ. eigenvalues --   -0.47120  -0.46941  -0.46539  -0.46311  -0.46126
 Alpha  occ. eigenvalues --   -0.46110  -0.45906  -0.45823  -0.45342  -0.45279
 Alpha  occ. eigenvalues --   -0.45202  -0.44778  -0.44554  -0.44451  -0.44251
 Alpha  occ. eigenvalues --   -0.44073  -0.43818  -0.43431  -0.43292  -0.43167
 Alpha  occ. eigenvalues --   -0.43110  -0.43077  -0.42859  -0.42653  -0.42233
 Alpha  occ. eigenvalues --   -0.42054  -0.41708  -0.41450  -0.41252  -0.41041
 Alpha  occ. eigenvalues --   -0.40969  -0.40885  -0.40594  -0.40423  -0.40327
 Alpha  occ. eigenvalues --   -0.40120  -0.40065  -0.40040  -0.39695  -0.39454
 Alpha  occ. eigenvalues --   -0.39386  -0.39215  -0.38982  -0.38911  -0.38610
 Alpha  occ. eigenvalues --   -0.38490  -0.38400  -0.38280  -0.38157  -0.38052
 Alpha  occ. eigenvalues --   -0.37643  -0.37580  -0.37441  -0.37171  -0.36967
 Alpha  occ. eigenvalues --   -0.36721  -0.36498  -0.36394  -0.36086  -0.35903
 Alpha  occ. eigenvalues --   -0.35882  -0.35382  -0.35015  -0.34921  -0.34668
 Alpha  occ. eigenvalues --   -0.34503  -0.34484  -0.34086  -0.33947  -0.33781
 Alpha  occ. eigenvalues --   -0.33637  -0.32993  -0.32948  -0.32614  -0.32593
 Alpha  occ. eigenvalues --   -0.32371  -0.32330  -0.32124  -0.31479  -0.31431
 Alpha  occ. eigenvalues --   -0.30876  -0.30714  -0.30459  -0.29819  -0.29662
 Alpha  occ. eigenvalues --   -0.29142  -0.28942  -0.28813  -0.26394  -0.25484
 Alpha  occ. eigenvalues --   -0.25367  -0.25223  -0.25068  -0.24844  -0.20706
 Alpha  occ. eigenvalues --   -0.18704
 Alpha virt. eigenvalues --   -0.11106  -0.05280  -0.04110  -0.02230  -0.00401
 Alpha virt. eigenvalues --    0.00209   0.00540   0.01336   0.01485   0.03016
 Alpha virt. eigenvalues --    0.04151   0.04848   0.05014   0.05633   0.05956

 Mulliken charges:
               1
     1  Mg   1.001522
     2  C   -0.061782
     3  C   -0.095596
     4  C   -0.054819
     5  C   -0.078366
     6  N   -0.415676
     7  C    0.052370
     8  C   -0.068008
     9  C   -0.148608
    10  C    0.075461
    11  C    0.019387
    12  C   -0.010709
    13  C   -0.033805
    14  C    0.247195
    15  O   -0.284597
    16  O   -0.343552
    17  N   -0.549856
    18  C    0.227698
    19  C   -0.187343
    20  C   -0.029734
    21  C    0.168776
    22  C    0.070196
    23  C   -0.007631
    24  O   -0.256756
    25  C   -0.003563
    26  N   -0.308367
    27  C    0.025471
    28  C   -0.140742
    29  C   -0.049999
    30  C    0.019152
    31  C    0.019984
    32  C   -0.054674
    33  C   -0.065014
    34  N   -0.468822
    35  C    0.171201
    36  C   -0.220176
    37  C   -0.028405
    38  C    0.187582
    39  C    0.068172
    40  C    0.095482
    41  O   -0.253897
    42  C   -0.073766
    43  C    0.308741
    44  O   -0.245744
    45  O   -0.368982
    46  C    0.120733
    47  C    0.252023
    48  C   -0.138181
    49  C   -0.237758
    50  C    0.042941
    51  C    0.012982
    52  C   -0.073275
    53  C    0.009386
    54  C   -0.218311
    55  C    0.004571
    56  C   -0.025983
    57  C   -0.033325
    58  C   -0.016572
    59  C   -0.221602
    60  C    0.001730
    61  C    0.032401
    62  C   -0.091256
    63  C    0.027287
    64  C   -0.253911
    65  C   -0.005967
    66  C   -0.010707
    67  H   -0.006355
    68  H    0.033752
    69  H    0.002922
    70  H    0.030069
    71  H    0.050551
    72  H    0.050935
    73  H    0.042217
    74  H    0.043367
    75  H    0.058165
    76  H    0.068784
    77  H    0.059752
    78  H    0.079121
    79  H    0.025577
    80  H    0.056536
    81  H    0.055550
    82  H    0.056335
    83  H    0.066224
    84  H    0.044368
    85  H    0.048985
    86  H    0.041702
    87  H    0.066190
    88  H    0.040428
    89  H    0.056383
    90  H    0.043497
    91  H    0.038518
    92  H    0.043993
    93  H    0.047896
    94  H    0.041954
    95  H    0.072428
    96  H    0.067095
    97  H    0.043200
    98  H    0.079127
    99  H    0.053694
   100  H    0.070175
   101  H    0.062677
   102  H    0.071483
   103  H    0.051840
   104  H    0.023348
   105  H    0.041290
   106  H    0.040725
   107  H    0.044844
   108  H    0.019546
   109  H    0.040283
   110  H    0.043978
   111  H    0.041903
   112  H    0.032330
   113  H    0.022749
   114  H    0.036599
   115  H    0.026738
   116  H    0.022544
   117  H    0.033684
   118  H    0.021333
   119  H    0.023042
   120  H    0.039234
   121  H    0.028259
   122  H    0.022743
   123  H    0.024642
   124  H    0.029837
   125  H    0.023841
   126  H    0.037111
   127  H    0.039644
   128  H    0.016102
   129  H    0.018547
   130  H    0.025394
   131  H    0.029101
   132  H    0.031783
   133  H    0.011136
   134  H    0.032834
   135  H    0.012561
   136  H    0.041955
   137  H    0.031356
   138  H    0.036686
   139  H    0.033097
   140  H    0.033458
 Sum of Mulliken charges =  -0.00000

 Dipole moment (field-independent basis, Debye):
    X=             -3.6165    Y=              2.8653    Z=             -2.9031  Tot=              5.4514
 Quadrupole moment (field-independent basis, Debye-Ang):
   XX=           -376.3311   YY=           -429.9485   ZZ=           -396.7497
   XY=              9.4708   XZ=              9.3683   YZ=              1.1730

 Normal termination of Gaussian 16 at Tue Apr 26 21:44:37 2022.
