 Gaussian 16, Revision A.03,
 Gaussian 16:  ES64L-G16RevA.03 25-Dec-2016

 --------------------------------
 #p wB97XD/Def2SVP td=(nstates=5)
 --------------------------------

 -----------------------------------------------------
 step_1001_chromophore_22 TDDFT with wB97XD functional
 -----------------------------------------------------
 Symbolic Z-matrix:
 Charge =  0 Multiplicity = 1

                         Standard orientation:
 ---------------------------------------------------------------------
 Center     Atomic      Atomic             Coordinates (Angstroms)
 Number     Number       Type             X           Y           Z
 ---------------------------------------------------------------------
      1         12           0        6.203304    0.577974    0.157926
      2          6           0        4.476942   -2.355672   -0.311654
      3          6           0        3.905385    2.278866   -1.645749
      4          6           0        8.243768    3.385108    0.476239
      5          6           0        8.951592   -1.301499    1.377403
      6          7           0        4.364291    0.028609   -0.722723
      7          6           0        3.834029   -1.200579   -0.818219
      8          6           0        2.403183   -1.143474   -1.454245
      9          6           0        2.333739    0.231183   -2.159944
     10          6           0        3.594953    0.894867   -1.493790
     11          6           0        2.153484    0.239900   -3.704560
     12          6           0        1.209136   -1.511828   -0.557485
     13          6           0       -0.224078   -1.027187   -0.991934
     14          6           0       -1.404975   -1.824943   -0.404092
     15          8           0       -1.402511   -2.479885    0.643950
     16          8           0       -2.503507   -1.748202   -1.188519
     17          7           0        6.050484    2.470307   -0.469267
     18          6           0        5.021979    3.009125   -1.187301
     19          6           0        5.124650    4.468495   -1.292789
     20          6           0        6.429818    4.834568   -0.689879
     21          6           0        6.962907    3.577073   -0.190423
     22          6           0        4.118892    5.354603   -1.926697
     23          6           0        6.971185    6.171322   -0.488236
     24          8           0        8.100220    6.369886   -0.036567
     25          6           0        6.233741    7.388743   -0.904301
     26          7           0        8.284854    1.007705    0.901278
     27          6           0        8.843193    2.193032    0.984528
     28          6           0       10.377323    2.124623    1.286358
     29          6           0       10.580857    0.653280    1.636363
     30          6           0        9.192661    0.079050    1.275821
     31          6           0       11.144748    2.650403    0.019511
     32          6           0       11.162616    0.325871    3.007429
     33          6           0       12.534444    0.963211    3.429576
     34          7           0        6.740100   -1.431400    0.332867
     35          6           0        7.809409   -2.016361    0.977854
     36          6           0        7.496459   -3.417738    1.155826
     37          6           0        6.211026   -3.615755    0.579291
     38          6           0        5.804350   -2.353671    0.154219
     39          6           0        8.448431   -4.463486    1.661508
     40          6           0        5.168257   -4.592855    0.294574
     41          8           0        5.158647   -5.824666    0.543862
     42          6           0        4.007294   -3.799704   -0.201596
     43          6           0        3.021994   -3.945279    0.930730
     44          8           0        2.902733   -3.207601    1.900357
     45          8           0        2.030676   -4.787635    0.491631
     46          6           0        0.844551   -4.940122    1.321126
     47          6           0       -3.617369   -2.499666   -0.608052
     48          6           0       -4.856940   -2.382371   -1.474678
     49          6           0       -5.987995   -3.122249   -1.597739
     50          6           0       -6.233870   -4.449121   -0.956787
     51          6           0       -7.093435   -2.608969   -2.463254
     52          6           0       -8.056433   -1.737950   -1.626848
     53          6           0       -8.324682   -0.280864   -2.275880
     54          6           0       -9.782271   -0.225658   -2.848258
     55          6           0       -9.696542    0.051636   -4.328456
     56          6           0      -10.721304    0.792550   -2.122752
     57          6           0      -11.589430    0.088583   -1.044539
     58          6           0      -13.024822    0.706227   -0.970367
     59          6           0      -13.374978    1.402173    0.336922
     60          6           0      -12.791382    2.839666    0.447606
     61          6           0      -14.907331    1.523844    0.528654
     62          6           0      -15.323017    1.248835    1.976992
     63          6           0      -16.740715    1.735507    2.412311
     64          6           0      -16.826857    1.989443    3.929356
     65          6           0      -18.001333    1.281565    4.618225
     66          6           0      -16.583699    3.435258    4.343647
     67          1           0        3.150328    2.797927   -2.239579
     68          1           0        8.878505    4.252099    0.673944
     69          1           0        9.829887   -1.839512    1.740150
     70          1           0        2.454253   -1.846328   -2.286268
     71          1           0        1.500966    0.815432   -1.770798
     72          1           0        3.019777    0.382617   -4.350485
     73          1           0        1.468556    1.042523   -3.976661
     74          1           0        1.740150   -0.728982   -3.986199
     75          1           0        1.455547   -1.107754    0.424871
     76          1           0        1.121725   -2.590897   -0.430347
     77          1           0       -0.240817   -1.068776   -2.080996
     78          1           0       -0.266313    0.019388   -0.689902
     79          1           0        3.309215    4.746208   -2.330433
     80          1           0        4.538507    5.928513   -2.753305
     81          1           0        3.604443    6.038094   -1.250626
     82          1           0        5.352078    7.494746   -0.272311
     83          1           0        6.131440    7.488546   -1.984609
     84          1           0        6.881887    8.211877   -0.603855
     85          1           0       10.563038    2.752334    2.157483
     86          1           0       11.196894    0.123567    0.909934
     87          1           0       10.431205    2.778187   -0.794785
     88          1           0       11.872922    1.898521   -0.283498
     89          1           0       11.599092    3.603876    0.289328
     90          1           0       11.310944   -0.732420    3.226460
     91          1           0       10.388096    0.707070    3.673130
     92          1           0       13.209414    1.081069    2.582000
     93          1           0       12.977172    0.361499    4.222598
     94          1           0       12.372917    1.953302    3.856975
     95          1           0        8.901597   -4.985685    0.818431
     96          1           0        7.745702   -5.130697    2.162320
     97          1           0        9.141589   -3.985349    2.351952
     98          1           0        3.668783   -4.274118   -1.123489
     99          1           0        0.022662   -5.219456    0.662617
    100          1           0        0.532796   -3.979404    1.733704
    101          1           0        1.056938   -5.614973    2.149986
    102          1           0       -3.907839   -2.170157    0.389408
    103          1           0       -3.246246   -3.522577   -0.557453
    104          1           0       -4.857337   -1.511744   -2.130983
    105          1           0       -7.130025   -4.255544   -0.367993
    106          1           0       -5.401418   -4.891045   -0.409616
    107          1           0       -6.520034   -5.224189   -1.667359
    108          1           0       -7.711101   -3.401210   -2.887193
    109          1           0       -6.748757   -2.097009   -3.361217
    110          1           0       -7.594731   -1.548264   -0.657820
    111          1           0       -8.999940   -2.273841   -1.519490
    112          1           0       -7.506855   -0.006608   -2.942646
    113          1           0       -8.232751    0.427843   -1.453482
    114          1           0      -10.296826   -1.184444   -2.786967
    115          1           0       -8.687242    0.300573   -4.656856
    116          1           0      -10.265681    0.922374   -4.654102
    117          1           0      -10.130784   -0.812504   -4.829617
    118          1           0      -11.380703    1.379051   -2.761686
    119          1           0      -10.116777    1.558757   -1.638055
    120          1           0      -10.930070    0.184384   -0.182381
    121          1           0      -11.713108   -0.936662   -1.391546
    122          1           0      -13.708688   -0.134323   -1.087312
    123          1           0      -13.220411    1.347014   -1.830122
    124          1           0      -12.985222    0.714381    1.088074
    125          1           0      -12.543741    3.129566   -0.572992
    126          1           0      -11.862472    2.874088    1.016597
    127          1           0      -13.480109    3.612815    0.787746
    128          1           0      -15.369295    0.854853   -0.197145
    129          1           0      -15.199925    2.542851    0.275534
    130          1           0      -14.594344    1.688615    2.658087
    131          1           0      -15.241264    0.196900    2.250990
    132          1           0      -17.544304    1.126900    1.997488
    133          1           0      -16.799449    2.726492    1.961968
    134          1           0      -15.950460    1.495620    4.349388
    135          1           0      -18.433508    1.966538    5.348108
    136          1           0      -17.786275    0.400139    5.222311
    137          1           0      -18.789578    1.100524    3.886822
    138          1           0      -15.513692    3.641079    4.366936
    139          1           0      -16.972426    3.669579    5.334439
    140          1           0      -17.077561    4.089052    3.625101
 ---------------------------------------------------------------------

 SCF Done:  E(RwB97XD) =  -3007.89600180     A.U. after   20 cycles

 Excitation energies and oscillator strengths:

 Excited State   1:      Singlet-A      1.6267 eV  762.20 nm  f=0.3714  <S**2>=0.000
     245 -> 248       -0.19739
     246 -> 247        0.68038
     245 <- 248       -0.12119
 This state for optimization and/or second-order correction.
 Total Energy, E(TD-HF/TD-DFT) =  -3007.83622334
 Copying the excited state density for this state as the 1-particle RhoCI density.

 Excited State   2:      Singlet-A      2.1469 eV  577.51 nm  f=0.1218  <S**2>=0.000
     245 -> 247        0.63939
     246 -> 248        0.28793

 Excited State   3:      Singlet-A      3.3992 eV  364.75 nm  f=0.0022  <S**2>=0.000
     241 -> 247        0.15723
     242 -> 247       -0.22515
     243 -> 247        0.62087

 Excited State   4:      Singlet-A      3.4746 eV  356.83 nm  f=0.1489  <S**2>=0.000
     239 -> 247       -0.12235
     239 -> 249       -0.10307
     240 -> 247        0.10932
     241 -> 247       -0.34241
     241 -> 249       -0.18792
     241 -> 250        0.13833
     242 -> 247       -0.31266
     245 -> 247       -0.12809
     246 -> 248        0.37200

 Excited State   5:      Singlet-A      3.4894 eV  355.32 nm  f=0.0807  <S**2>=0.000
     239 -> 247        0.19221
     239 -> 249        0.11658
     241 -> 247        0.32862
     241 -> 249        0.24325
     241 -> 250       -0.15604
     242 -> 247       -0.29823
     243 -> 247       -0.23739
     246 -> 248        0.27026

 The electronic state is 1-A.
 Alpha  occ. eigenvalues --  -46.94417 -19.31584 -19.29419 -19.25516 -19.24600
 Alpha  occ. eigenvalues --  -19.23430 -19.23020 -14.47063 -14.46550 -14.44649
 Alpha  occ. eigenvalues --  -14.43387 -10.44333 -10.43085 -10.38528 -10.38067
 Alpha  occ. eigenvalues --  -10.36448 -10.35759 -10.35509 -10.35294 -10.34419
 Alpha  occ. eigenvalues --  -10.34356 -10.34325 -10.33880 -10.33318 -10.33233
 Alpha  occ. eigenvalues --  -10.32910 -10.32745 -10.32298 -10.32195 -10.32173
 Alpha  occ. eigenvalues --  -10.31790 -10.31709 -10.31688 -10.31351 -10.31338
 Alpha  occ. eigenvalues --  -10.31267 -10.31023 -10.30977 -10.30934 -10.30930
 Alpha  occ. eigenvalues --  -10.30839 -10.30772 -10.30590 -10.29895 -10.29762
 Alpha  occ. eigenvalues --  -10.29720 -10.29686 -10.29661 -10.29607 -10.29551
 Alpha  occ. eigenvalues --  -10.29544 -10.29370 -10.29326 -10.29297 -10.29042
 Alpha  occ. eigenvalues --  -10.28887 -10.28738 -10.28697 -10.28504 -10.28480
 Alpha  occ. eigenvalues --  -10.28446 -10.28364 -10.28350 -10.28197 -10.27899
 Alpha  occ. eigenvalues --  -10.27828  -3.20523  -1.94102  -1.93641  -1.93525
 Alpha  occ. eigenvalues --   -1.20246  -1.17869  -1.11470  -1.10230  -1.09985
 Alpha  occ. eigenvalues --   -1.09387  -1.07036  -1.06207  -1.05269  -1.02997
 Alpha  occ. eigenvalues --   -0.95140  -0.92722  -0.91827  -0.91704  -0.91137
 Alpha  occ. eigenvalues --   -0.90616  -0.89812  -0.89496  -0.89025  -0.88815
 Alpha  occ. eigenvalues --   -0.88050  -0.87597  -0.86032  -0.85468  -0.85105
 Alpha  occ. eigenvalues --   -0.84404  -0.83799  -0.83197  -0.82745  -0.81974
 Alpha  occ. eigenvalues --   -0.81851  -0.80510  -0.80324  -0.79149  -0.77887
 Alpha  occ. eigenvalues --   -0.77780  -0.77419  -0.76992  -0.76814  -0.76039
 Alpha  occ. eigenvalues --   -0.75601  -0.74094  -0.73649  -0.72536  -0.71449
 Alpha  occ. eigenvalues --   -0.70380  -0.69962  -0.69549  -0.68479  -0.67490
 Alpha  occ. eigenvalues --   -0.67054  -0.66974  -0.66460  -0.66205  -0.66069
 Alpha  occ. eigenvalues --   -0.65625  -0.65565  -0.64335  -0.63857  -0.62596
 Alpha  occ. eigenvalues --   -0.61856  -0.61476  -0.61292  -0.60551  -0.60321
 Alpha  occ. eigenvalues --   -0.59779  -0.59306  -0.58730  -0.57668  -0.57576
 Alpha  occ. eigenvalues --   -0.57070  -0.56651  -0.56416  -0.56010  -0.55844
 Alpha  occ. eigenvalues --   -0.55832  -0.55570  -0.55330  -0.54920  -0.54849
 Alpha  occ. eigenvalues --   -0.54504  -0.54336  -0.53888  -0.53630  -0.53495
 Alpha  occ. eigenvalues --   -0.53447  -0.53248  -0.53107  -0.52741  -0.52631
 Alpha  occ. eigenvalues --   -0.52503  -0.52088  -0.51949  -0.51790  -0.51585
 Alpha  occ. eigenvalues --   -0.51395  -0.51141  -0.50742  -0.50605  -0.50483
 Alpha  occ. eigenvalues --   -0.50430  -0.50348  -0.50151  -0.49911  -0.49501
 Alpha  occ. eigenvalues --   -0.49346  -0.48993  -0.48746  -0.48518  -0.48256
 Alpha  occ. eigenvalues --   -0.48162  -0.48098  -0.47757  -0.47665  -0.47516
 Alpha  occ. eigenvalues --   -0.47325  -0.47244  -0.47202  -0.46882  -0.46629
 Alpha  occ. eigenvalues --   -0.46542  -0.46426  -0.46111  -0.46017  -0.45728
 Alpha  occ. eigenvalues --   -0.45612  -0.45551  -0.45419  -0.45227  -0.45113
 Alpha  occ. eigenvalues --   -0.44774  -0.44664  -0.44602  -0.44261  -0.44095
 Alpha  occ. eigenvalues --   -0.43968  -0.43620  -0.43514  -0.43087  -0.43005
 Alpha  occ. eigenvalues --   -0.42881  -0.42513  -0.41989  -0.41960  -0.41747
 Alpha  occ. eigenvalues --   -0.41560  -0.41519  -0.41133  -0.40980  -0.40713
 Alpha  occ. eigenvalues --   -0.40676  -0.40058  -0.40006  -0.39649  -0.39501
 Alpha  occ. eigenvalues --   -0.39456  -0.39211  -0.39148  -0.38506  -0.38440
 Alpha  occ. eigenvalues --   -0.37924  -0.37661  -0.37462  -0.36840  -0.36512
 Alpha  occ. eigenvalues --   -0.36015  -0.35953  -0.35530  -0.32982  -0.32537
 Alpha  occ. eigenvalues --   -0.32501  -0.31963  -0.31582  -0.31577  -0.25628
 Alpha  occ. eigenvalues --   -0.22888
 Alpha virt. eigenvalues --   -0.07020   0.00134   0.02130   0.04254   0.06211
 Alpha virt. eigenvalues --    0.06540   0.07365   0.08026   0.08165   0.09269
 Alpha virt. eigenvalues --    0.10847   0.11565   0.11877   0.12411   0.12709

 Mulliken charges:
               1
     1  Mg   0.990117
     2  C   -0.068165
     3  C   -0.112123
     4  C   -0.064802
     5  C   -0.091344
     6  N   -0.385324
     7  C    0.019063
     8  C   -0.044761
     9  C   -0.120894
    10  C    0.062171
    11  C    0.028591
    12  C    0.009316
    13  C   -0.015743
    14  C    0.238858
    15  O   -0.282388
    16  O   -0.342968
    17  N   -0.519394
    18  C    0.223358
    19  C   -0.180376
    20  C   -0.023614
    21  C    0.161434
    22  C    0.082071
    23  C   -0.009288
    24  O   -0.251503
    25  C    0.007033
    26  N   -0.271474
    27  C    0.007813
    28  C   -0.117209
    29  C   -0.024157
    30  C    0.000139
    31  C    0.032121
    32  C   -0.039247
    33  C   -0.049751
    34  N   -0.427669
    35  C    0.162461
    36  C   -0.216449
    37  C   -0.031637
    38  C    0.171748
    39  C    0.080987
    40  C    0.080793
    41  O   -0.243971
    42  C   -0.032521
    43  C    0.282821
    44  O   -0.239653
    45  O   -0.367112
    46  C    0.135719
    47  C    0.267195
    48  C   -0.152923
    49  C   -0.212346
    50  C    0.054208
    51  C    0.026549
    52  C   -0.054889
    53  C    0.022037
    54  C   -0.184474
    55  C    0.014993
    56  C   -0.011307
    57  C   -0.018000
    58  C    0.001340
    59  C   -0.193226
    60  C    0.012192
    61  C    0.050011
    62  C   -0.071873
    63  C    0.042280
    64  C   -0.223860
    65  C    0.006908
    66  C    0.002339
    67  H   -0.015254
    68  H    0.029790
    69  H   -0.003979
    70  H    0.017070
    71  H    0.036821
    72  H    0.046693
    73  H    0.037473
    74  H    0.037064
    75  H    0.051109
    76  H    0.048192
    77  H    0.051931
    78  H    0.072735
    79  H    0.021194
    80  H    0.051218
    81  H    0.050969
    82  H    0.051544
    83  H    0.062274
    84  H    0.042831
    85  H    0.038787
    86  H    0.028907
    87  H    0.058309
    88  H    0.034578
    89  H    0.051633
    90  H    0.036195
    91  H    0.028739
    92  H    0.037525
    93  H    0.043085
    94  H    0.035285
    95  H    0.068160
    96  H    0.062237
    97  H    0.037569
    98  H    0.075501
    99  H    0.051541
   100  H    0.063539
   101  H    0.059782
   102  H    0.066312
   103  H    0.045129
   104  H    0.019566
   105  H    0.033999
   106  H    0.036563
   107  H    0.039579
   108  H    0.012761
   109  H    0.032264
   110  H    0.033921
   111  H    0.032339
   112  H    0.022953
   113  H    0.014166
   114  H    0.020875
   115  H    0.020264
   116  H    0.016508
   117  H    0.028676
   118  H    0.009975
   119  H    0.013196
   120  H    0.030896
   121  H    0.018931
   122  H    0.013972
   123  H    0.014302
   124  H    0.017059
   125  H    0.015697
   126  H    0.032183
   127  H    0.033735
   128  H    0.007957
   129  H    0.007652
   130  H    0.012102
   131  H    0.020235
   132  H    0.025545
   133  H   -0.002083
   134  H    0.019338
   135  H    0.005520
   136  H    0.037281
   137  H    0.024583
   138  H    0.030869
   139  H    0.027341
   140  H    0.026566
 Sum of Mulliken charges =  -0.00000

 Dipole moment (field-independent basis, Debye):
    X=             -3.6541    Y=              3.0418    Z=             -2.9447  Tot=              5.5925
 Quadrupole moment (field-independent basis, Debye-Ang):
   XX=           -376.8890   YY=           -427.7849   ZZ=           -396.4950
   XY=             10.3948   XZ=              8.7923   YZ=              0.9710

 Normal termination of Gaussian 16 at Tue Apr 26 22:12:12 2022.
