 Gaussian 16, Revision A.03,
 Gaussian 16:  ES64L-G16RevA.03 25-Dec-2016

 --------------------
 #p ZINDO=(nstates=5)
 --------------------

 ------------------------------
 step_1001_chromophore_22 ZINDO
 ------------------------------
 Symbolic Z-matrix:
 Charge =  0 Multiplicity = 1

                         Standard orientation:
 ---------------------------------------------------------------------
 Center     Atomic      Atomic             Coordinates (Angstroms)
 Number     Number       Type             X           Y           Z
 ---------------------------------------------------------------------
      1         12           0        6.203304    0.577974    0.157926
      2          6           0        4.476942   -2.355672   -0.311654
      3          6           0        3.905385    2.278866   -1.645749
      4          6           0        8.243768    3.385108    0.476239
      5          6           0        8.951592   -1.301499    1.377403
      6          7           0        4.364291    0.028609   -0.722723
      7          6           0        3.834029   -1.200579   -0.818219
      8          6           0        2.403183   -1.143474   -1.454245
      9          6           0        2.333739    0.231183   -2.159944
     10          6           0        3.594953    0.894867   -1.493790
     11          6           0        2.153484    0.239900   -3.704560
     12          6           0        1.209136   -1.511828   -0.557485
     13          6           0       -0.224078   -1.027187   -0.991934
     14          6           0       -1.404975   -1.824943   -0.404092
     15          8           0       -1.402511   -2.479885    0.643950
     16          8           0       -2.503507   -1.748202   -1.188519
     17          7           0        6.050484    2.470307   -0.469267
     18          6           0        5.021979    3.009125   -1.187301
     19          6           0        5.124650    4.468495   -1.292789
     20          6           0        6.429818    4.834568   -0.689879
     21          6           0        6.962907    3.577073   -0.190423
     22          6           0        4.118892    5.354603   -1.926697
     23          6           0        6.971185    6.171322   -0.488236
     24          8           0        8.100220    6.369886   -0.036567
     25          6           0        6.233741    7.388743   -0.904301
     26          7           0        8.284854    1.007705    0.901278
     27          6           0        8.843193    2.193032    0.984528
     28          6           0       10.377323    2.124623    1.286358
     29          6           0       10.580857    0.653280    1.636363
     30          6           0        9.192661    0.079050    1.275821
     31          6           0       11.144748    2.650403    0.019511
     32          6           0       11.162616    0.325871    3.007429
     33          6           0       12.534444    0.963211    3.429576
     34          7           0        6.740100   -1.431400    0.332867
     35          6           0        7.809409   -2.016361    0.977854
     36          6           0        7.496459   -3.417738    1.155826
     37          6           0        6.211026   -3.615755    0.579291
     38          6           0        5.804350   -2.353671    0.154219
     39          6           0        8.448431   -4.463486    1.661508
     40          6           0        5.168257   -4.592855    0.294574
     41          8           0        5.158647   -5.824666    0.543862
     42          6           0        4.007294   -3.799704   -0.201596
     43          6           0        3.021994   -3.945279    0.930730
     44          8           0        2.902733   -3.207601    1.900357
     45          8           0        2.030676   -4.787635    0.491631
     46          6           0        0.844551   -4.940122    1.321126
     47          6           0       -3.617369   -2.499666   -0.608052
     48          6           0       -4.856940   -2.382371   -1.474678
     49          6           0       -5.987995   -3.122249   -1.597739
     50          6           0       -6.233870   -4.449121   -0.956787
     51          6           0       -7.093435   -2.608969   -2.463254
     52          6           0       -8.056433   -1.737950   -1.626848
     53          6           0       -8.324682   -0.280864   -2.275880
     54          6           0       -9.782271   -0.225658   -2.848258
     55          6           0       -9.696542    0.051636   -4.328456
     56          6           0      -10.721304    0.792550   -2.122752
     57          6           0      -11.589430    0.088583   -1.044539
     58          6           0      -13.024822    0.706227   -0.970367
     59          6           0      -13.374978    1.402173    0.336922
     60          6           0      -12.791382    2.839666    0.447606
     61          6           0      -14.907331    1.523844    0.528654
     62          6           0      -15.323017    1.248835    1.976992
     63          6           0      -16.740715    1.735507    2.412311
     64          6           0      -16.826857    1.989443    3.929356
     65          6           0      -18.001333    1.281565    4.618225
     66          6           0      -16.583699    3.435258    4.343647
     67          1           0        3.150328    2.797927   -2.239579
     68          1           0        8.878505    4.252099    0.673944
     69          1           0        9.829887   -1.839512    1.740150
     70          1           0        2.454253   -1.846328   -2.286268
     71          1           0        1.500966    0.815432   -1.770798
     72          1           0        3.019777    0.382617   -4.350485
     73          1           0        1.468556    1.042523   -3.976661
     74          1           0        1.740150   -0.728982   -3.986199
     75          1           0        1.455547   -1.107754    0.424871
     76          1           0        1.121725   -2.590897   -0.430347
     77          1           0       -0.240817   -1.068776   -2.080996
     78          1           0       -0.266313    0.019388   -0.689902
     79          1           0        3.309215    4.746208   -2.330433
     80          1           0        4.538507    5.928513   -2.753305
     81          1           0        3.604443    6.038094   -1.250626
     82          1           0        5.352078    7.494746   -0.272311
     83          1           0        6.131440    7.488546   -1.984609
     84          1           0        6.881887    8.211877   -0.603855
     85          1           0       10.563038    2.752334    2.157483
     86          1           0       11.196894    0.123567    0.909934
     87          1           0       10.431205    2.778187   -0.794785
     88          1           0       11.872922    1.898521   -0.283498
     89          1           0       11.599092    3.603876    0.289328
     90          1           0       11.310944   -0.732420    3.226460
     91          1           0       10.388096    0.707070    3.673130
     92          1           0       13.209414    1.081069    2.582000
     93          1           0       12.977172    0.361499    4.222598
     94          1           0       12.372917    1.953302    3.856975
     95          1           0        8.901597   -4.985685    0.818431
     96          1           0        7.745702   -5.130697    2.162320
     97          1           0        9.141589   -3.985349    2.351952
     98          1           0        3.668783   -4.274118   -1.123489
     99          1           0        0.022662   -5.219456    0.662617
    100          1           0        0.532796   -3.979404    1.733704
    101          1           0        1.056938   -5.614973    2.149986
    102          1           0       -3.907839   -2.170157    0.389408
    103          1           0       -3.246246   -3.522577   -0.557453
    104          1           0       -4.857337   -1.511744   -2.130983
    105          1           0       -7.130025   -4.255544   -0.367993
    106          1           0       -5.401418   -4.891045   -0.409616
    107          1           0       -6.520034   -5.224189   -1.667359
    108          1           0       -7.711101   -3.401210   -2.887193
    109          1           0       -6.748757   -2.097009   -3.361217
    110          1           0       -7.594731   -1.548264   -0.657820
    111          1           0       -8.999940   -2.273841   -1.519490
    112          1           0       -7.506855   -0.006608   -2.942646
    113          1           0       -8.232751    0.427843   -1.453482
    114          1           0      -10.296826   -1.184444   -2.786967
    115          1           0       -8.687242    0.300573   -4.656856
    116          1           0      -10.265681    0.922374   -4.654102
    117          1           0      -10.130784   -0.812504   -4.829617
    118          1           0      -11.380703    1.379051   -2.761686
    119          1           0      -10.116777    1.558757   -1.638055
    120          1           0      -10.930070    0.184384   -0.182381
    121          1           0      -11.713108   -0.936662   -1.391546
    122          1           0      -13.708688   -0.134323   -1.087312
    123          1           0      -13.220411    1.347014   -1.830122
    124          1           0      -12.985222    0.714381    1.088074
    125          1           0      -12.543741    3.129566   -0.572992
    126          1           0      -11.862472    2.874088    1.016597
    127          1           0      -13.480109    3.612815    0.787746
    128          1           0      -15.369295    0.854853   -0.197145
    129          1           0      -15.199925    2.542851    0.275534
    130          1           0      -14.594344    1.688615    2.658087
    131          1           0      -15.241264    0.196900    2.250990
    132          1           0      -17.544304    1.126900    1.997488
    133          1           0      -16.799449    2.726492    1.961968
    134          1           0      -15.950460    1.495620    4.349388
    135          1           0      -18.433508    1.966538    5.348108
    136          1           0      -17.786275    0.400139    5.222311
    137          1           0      -18.789578    1.100524    3.886822
    138          1           0      -15.513692    3.641079    4.366936
    139          1           0      -16.972426    3.669579    5.334439
    140          1           0      -17.077561    4.089052    3.625101
 ---------------------------------------------------------------------

 SCF Done:  E(RZINDO/S) =  -474.378503621     A.U. after   21 cycles

 Excitation energies and oscillator strengths:

 Excited State   1:      Singlet-A      1.2294 eV 1008.47 nm  f=0.5755  <S**2>=0.000
     175 ->178         0.20716
     176 ->177         0.65771
 This state for optimization and/or second-order correction.
 Total Energy, E(CIS/TDA) =  -474.333322881
 Copying the excited state density for this state as the 1-particle RhoCI density.

 Excited State   2:      Singlet-A      1.8754 eV  661.12 nm  f=0.0684  <S**2>=0.000
     175 ->177         0.56057
     176 ->178        -0.40517

 Excited State   3:      Singlet-A      2.8425 eV  436.19 nm  f=0.0007  <S**2>=0.000
     170 ->177         0.32478
     170 ->178         0.14538
     170 ->179         0.30776
     170 ->180         0.35460
     170 ->184         0.13000
     170 ->186         0.20774
     170 ->187        -0.12781
     170 ->195        -0.14018

 Excited State   4:      Singlet-A      2.9263 eV  423.69 nm  f=0.0074  <S**2>=0.000
     168 ->177         0.20892
     168 ->179        -0.25826
     168 ->180         0.13085
     168 ->186        -0.10968
     169 ->177         0.25354
     169 ->179        -0.30940
     169 ->180         0.17201
     169 ->186        -0.13212
     170 ->179         0.11694
     176 ->179         0.11009

 Excited State   5:      Singlet-A      2.9820 eV  415.78 nm  f=0.1557  <S**2>=0.000
     172 ->177         0.10612
     175 ->177        -0.15351
     176 ->178        -0.26916
     176 ->179         0.58776

 The electronic state is 1-A.
 Alpha  occ. eigenvalues --   -1.85759  -1.81047  -1.78226  -1.74972  -1.72761
 Alpha  occ. eigenvalues --   -1.69661  -1.65177  -1.61288  -1.60046  -1.58912
 Alpha  occ. eigenvalues --   -1.56348  -1.52192  -1.49554  -1.47652  -1.46874
 Alpha  occ. eigenvalues --   -1.43956  -1.42004  -1.39570  -1.38607  -1.37786
 Alpha  occ. eigenvalues --   -1.35352  -1.33766  -1.31727  -1.30789  -1.28098
 Alpha  occ. eigenvalues --   -1.27069  -1.24311  -1.22234  -1.21171  -1.18722
 Alpha  occ. eigenvalues --   -1.18023  -1.16057  -1.15550  -1.15120  -1.13555
 Alpha  occ. eigenvalues --   -1.13260  -1.11226  -1.10155  -1.03965  -1.03519
 Alpha  occ. eigenvalues --   -1.02686  -1.00755  -0.98333  -0.97569  -0.96938
 Alpha  occ. eigenvalues --   -0.95203  -0.94269  -0.93227  -0.93038  -0.92737
 Alpha  occ. eigenvalues --   -0.91268  -0.90587  -0.88790  -0.87988  -0.86972
 Alpha  occ. eigenvalues --   -0.86236  -0.83759  -0.83033  -0.82173  -0.80763
 Alpha  occ. eigenvalues --   -0.79895  -0.78907  -0.77081  -0.76464  -0.76188
 Alpha  occ. eigenvalues --   -0.75695  -0.75499  -0.75043  -0.73672  -0.73046
 Alpha  occ. eigenvalues --   -0.72980  -0.72746  -0.71776  -0.70958  -0.70656
 Alpha  occ. eigenvalues --   -0.69489  -0.69223  -0.69112  -0.68235  -0.67637
 Alpha  occ. eigenvalues --   -0.67454  -0.67098  -0.66898  -0.66714  -0.66070
 Alpha  occ. eigenvalues --   -0.64871  -0.64702  -0.63892  -0.63528  -0.63380
 Alpha  occ. eigenvalues --   -0.63163  -0.63106  -0.62589  -0.62352  -0.62028
 Alpha  occ. eigenvalues --   -0.61754  -0.60986  -0.60955  -0.60639  -0.59481
 Alpha  occ. eigenvalues --   -0.59099  -0.58933  -0.58602  -0.58460  -0.57957
 Alpha  occ. eigenvalues --   -0.57744  -0.57578  -0.57399  -0.57190  -0.56348
 Alpha  occ. eigenvalues --   -0.56118  -0.55905  -0.55563  -0.55283  -0.54986
 Alpha  occ. eigenvalues --   -0.54739  -0.54423  -0.54026  -0.53616  -0.53212
 Alpha  occ. eigenvalues --   -0.52837  -0.52602  -0.52194  -0.51724  -0.51269
 Alpha  occ. eigenvalues --   -0.50697  -0.50624  -0.50349  -0.50191  -0.49994
 Alpha  occ. eigenvalues --   -0.49556  -0.49222  -0.49162  -0.49045  -0.48517
 Alpha  occ. eigenvalues --   -0.48428  -0.47873  -0.47805  -0.47747  -0.47535
 Alpha  occ. eigenvalues --   -0.47103  -0.47055  -0.46817  -0.46623  -0.46472
 Alpha  occ. eigenvalues --   -0.46367  -0.45970  -0.45837  -0.45397  -0.44973
 Alpha  occ. eigenvalues --   -0.44844  -0.44272  -0.44235  -0.44142  -0.43899
 Alpha  occ. eigenvalues --   -0.43624  -0.43172  -0.42995  -0.42825  -0.42581
 Alpha  occ. eigenvalues --   -0.41829  -0.41822  -0.41001  -0.38828  -0.38438
 Alpha  occ. eigenvalues --   -0.38196  -0.37382  -0.35034  -0.34876  -0.34698
 Alpha  occ. eigenvalues --   -0.32808  -0.32473  -0.31547  -0.31367  -0.26154
 Alpha  occ. eigenvalues --   -0.21843
 Alpha virt. eigenvalues --   -0.08585  -0.02217  -0.01032   0.00857   0.01583
 Alpha virt. eigenvalues --    0.02447   0.02785   0.02830   0.04932   0.05004
 Alpha virt. eigenvalues --    0.06208   0.07473   0.07701   0.07755   0.08476

 Mulliken charges:
               1
     1  Mg   0.429583
     2  C   -0.056231
     3  C   -0.089252
     4  C   -0.055044
     5  C   -0.056830
     6  N   -0.271270
     7  C    0.136028
     8  C    0.006695
     9  C    0.001746
    10  C    0.113370
    11  C   -0.046669
    12  C   -0.022788
    13  C    0.003501
    14  C    0.468006
    15  O   -0.522004
    16  O   -0.258426
    17  N   -0.332073
    18  C    0.128126
    19  C   -0.006271
    20  C   -0.044533
    21  C    0.111950
    22  C   -0.036810
    23  C    0.334897
    24  O   -0.539961
    25  C   -0.034045
    26  N   -0.240233
    27  C    0.130349
    28  C    0.006076
    29  C    0.009913
    30  C    0.109295
    31  C   -0.050236
    32  C   -0.028345
    33  C   -0.059334
    34  N   -0.322243
    35  C    0.088916
    36  C    0.037639
    37  C   -0.066175
    38  C    0.134170
    39  C   -0.043897
    40  C    0.335674
    41  O   -0.547335
    42  C    0.070280
    43  C    0.496301
    44  O   -0.518809
    45  O   -0.273634
    46  C    0.073183
    47  C    0.113522
    48  C   -0.109518
    49  C    0.006126
    50  C   -0.041871
    51  C   -0.016654
    52  C   -0.039123
    53  C   -0.040282
    54  C   -0.008920
    55  C   -0.059997
    56  C   -0.042624
    57  C   -0.047623
    58  C   -0.031758
    59  C   -0.009894
    60  C   -0.057944
    61  C   -0.033468
    62  C   -0.035607
    63  C   -0.035691
    64  C   -0.008169
    65  C   -0.058031
    66  C   -0.049472
    67  H    0.021619
    68  H    0.048839
    69  H    0.026469
    70  H    0.015799
    71  H    0.026956
    72  H    0.028029
    73  H    0.018809
    74  H    0.019919
    75  H    0.034716
    76  H    0.033668
    77  H    0.034679
    78  H    0.047531
    79  H    0.017626
    80  H    0.030450
    81  H    0.032532
    82  H    0.038863
    83  H    0.044793
    84  H    0.027677
    85  H    0.033471
    86  H    0.024203
    87  H    0.031936
    88  H    0.020549
    89  H    0.028754
    90  H    0.022860
    91  H    0.017280
    92  H    0.022846
    93  H    0.021544
    94  H    0.017424
    95  H    0.042823
    96  H    0.038551
    97  H    0.029161
    98  H    0.060030
    99  H    0.035251
   100  H    0.047632
   101  H    0.048245
   102  H    0.057668
   103  H    0.048226
   104  H    0.019743
   105  H    0.029945
   106  H    0.026440
   107  H    0.023988
   108  H    0.010785
   109  H    0.023950
   110  H    0.021292
   111  H    0.025050
   112  H    0.030726
   113  H    0.011982
   114  H    0.025197
   115  H    0.018676
   116  H    0.011683
   117  H    0.016510
   118  H    0.020303
   119  H    0.012255
   120  H    0.030649
   121  H    0.021267
   122  H    0.008015
   123  H    0.022226
   124  H    0.021172
   125  H    0.013344
   126  H    0.017081
   127  H    0.024324
   128  H    0.017778
   129  H    0.019549
   130  H    0.016786
   131  H    0.013659
   132  H    0.027302
   133  H    0.011579
   134  H    0.008178
   135  H    0.008781
   136  H    0.025375
   137  H    0.018120
   138  H    0.017644
   139  H    0.017487
   140  H    0.017484
 Sum of Mulliken charges =  -0.00000

 Dipole moment (field-independent basis, Debye):
    X=             -3.8681    Y=              4.1224    Z=             -5.3776  Tot=              7.8022
 N-N= 4.135153470734D+03 E-N= 0.000000000000D+00  KE=-8.945056075481D+03
 Leave Link  601 at Tue Apr 26 22:25:17 2022, MaxMem=  6710886400 cpu:               1.0 elap:               0.1
 (Enter /sw/apps/gaussian-16.0/g16/l9999.exe)
 1\1\GINC-BP1-COMPUTE148\SP\RZINDO CIS\STO-3G\C55H74Mg1N4O6\OF15641\26-
 Apr-2022\0\\#p ZINDO=(nstates=5)\\step_1001_chromophore_22 ZINDO\\0,1\
 Mg,0,8.082,47.764,24.694\C,0,5.769,48.208,27.196\C,0,10.55,48.904,26.7
 03\C,0,10.22,47.541,21.951\C,0,5.422,47.299,22.396\N,0,8.142,48.332,26
 .727\C,0,7.11,48.456,27.576\C,0,7.613,48.798,29.02\C,0,9.054,49.326,28
 .827\C,0,9.278,48.845,27.346\C,0,9.343,50.798,29.237\C,0,7.416,47.735,
 30.114\C,0,8.298,47.834,31.414\C,0,7.734,47.121,32.659\O,0,6.946,46.16

 Normal termination of Gaussian 16 at Tue Apr 26 22:25:17 2022.
