 Gaussian 16, Revision A.03,
 Gaussian 16:  ES64L-G16RevA.03 25-Dec-2016

 ------------------------------
 #p blyp/Def2SVP td=(nstates=5)
 ------------------------------

 --------------------------------------------------
 step_201_chromophore_17 TDDFT with blyp functional
 --------------------------------------------------
 Symbolic Z-matrix:
 Charge =  0 Multiplicity = 1

                         Standard orientation:
 ---------------------------------------------------------------------
 Center     Atomic      Atomic             Coordinates (Angstroms)
 Number     Number       Type             X           Y           Z
 ---------------------------------------------------------------------
      1         12           0        4.307217    1.018986   -0.548838
      2          6           0        3.488805   -2.385152   -1.012300
      3          6           0        1.784149    1.618582   -2.904337
      4          6           0        4.087527    4.181033    0.558839
      5          6           0        6.309867    0.144698    2.132973
      6          7           0        2.766889   -0.263489   -1.726563
      7          6           0        2.677702   -1.632169   -1.849964
      8          6           0        1.483918   -2.094663   -2.711894
      9          6           0        1.220920   -0.796108   -3.489660
     10          6           0        1.934231    0.284859   -2.652528
     11          6           0        1.794064   -0.835762   -4.943428
     12          6           0        0.332981   -2.547548   -1.730032
     13          6           0       -0.463478   -3.894104   -2.119685
     14          6           0       -2.017294   -3.812432   -2.218738
     15          8           0       -2.748662   -3.988364   -3.201570
     16          8           0       -2.587389   -3.541521   -1.012872
     17          7           0        3.186008    2.694219   -1.171116
     18          6           0        2.278947    2.750545   -2.189859
     19          6           0        1.911841    4.131133   -2.318332
     20          6           0        2.623900    4.925301   -1.411505
     21          6           0        3.385957    3.930168   -0.610067
     22          6           0        0.864705    4.533945   -3.214017
     23          6           0        2.449015    6.452070   -1.246416
     24          8           0        1.697733    7.147950   -1.991093
     25          6           0        3.070662    7.194936   -0.091664
     26          7           0        4.905566    1.974637    1.170209
     27          6           0        4.846064    3.339148    1.307878
     28          6           0        5.544199    3.833437    2.584290
     29          6           0        6.348549    2.548675    2.992807
     30          6           0        5.906863    1.479075    1.989473
     31          6           0        6.316167    5.175034    2.484897
     32          6           0        6.126541    2.041662    4.425845
     33          6           0        7.417937    1.816533    5.151984
     34          7           0        4.898864   -0.713962    0.353672
     35          6           0        5.737265   -0.971183    1.449571
     36          6           0        5.890396   -2.394436    1.602142
     37          6           0        5.045155   -2.942779    0.677372
     38          6           0        4.436775   -1.920373   -0.065786
     39          6           0        6.719016   -2.989166    2.612312
     40          6           0        4.488896   -4.209952    0.233788
     41          8           0        4.699900   -5.356182    0.577685
     42          6           0        3.386371   -3.873159   -0.769690
     43          6           0        3.481070   -4.588521   -2.090098
     44          8           0        4.259939   -4.408201   -3.042653
     45          8           0        2.656176   -5.609081   -1.990734
     46          6           0        2.861386   -6.683491   -2.993322
     47          6           0       -4.013851   -3.546417   -0.927219
     48          6           0       -4.407479   -3.624354    0.526048
     49          6           0       -5.613308   -3.999724    1.129149
     50          6           0       -6.811749   -4.125058    0.245835
     51          6           0       -5.725208   -4.515771    2.605089
     52          6           0       -6.689589   -3.606757    3.480752
     53          6           0       -5.887059   -2.758591    4.497974
     54          6           0       -6.166721   -1.203984    4.530233
     55          6           0       -6.175209   -0.518240    5.914644
     56          6           0       -5.204003   -0.450265    3.546974
     57          6           0       -5.867142    0.824695    2.979445
     58          6           0       -6.109611    0.632890    1.458457
     59          6           0       -7.314764    1.477203    0.959705
     60          6           0       -8.634000    0.812401    1.445292
     61          6           0       -7.306467    1.713303   -0.560695
     62          6           0       -7.248903    3.198887   -0.978943
     63          6           0       -8.773149    3.684015   -0.929032
     64          6           0       -9.355485    4.107363   -2.248301
     65          6           0       -8.608778    5.293168   -2.844471
     66          6           0      -10.868106    4.348438   -2.104449
     67          1           0        1.134776    1.733972   -3.773623
     68          1           0        4.065032    5.158142    1.045407
     69          1           0        7.028814   -0.199099    2.879095
     70          1           0        1.741948   -2.947074   -3.341806
     71          1           0        0.192758   -0.433636   -3.462776
     72          1           0        2.704193   -0.238713   -4.899511
     73          1           0        1.128413   -0.207580   -5.535087
     74          1           0        1.955630   -1.833300   -5.352898
     75          1           0       -0.383302   -1.728818   -1.671091
     76          1           0        0.711568   -2.585985   -0.708285
     77          1           0       -0.249438   -4.711667   -1.431265
     78          1           0       -0.053578   -4.147456   -3.097255
     79          1           0        0.063360    3.795990   -3.242617
     80          1           0        1.220406    4.760610   -4.219765
     81          1           0        0.474677    5.540634   -3.063642
     82          1           0        2.860712    6.986742    0.957077
     83          1           0        2.768001    8.236159   -0.202575
     84          1           0        4.128427    7.160653   -0.351581
     85          1           0        4.682157    3.945904    3.242221
     86          1           0        7.416793    2.653771    2.806223
     87          1           0        5.674430    5.905801    2.975989
     88          1           0        6.502032    5.393252    1.433255
     89          1           0        7.343321    5.131480    2.849298
     90          1           0        5.668561    1.057349    4.329491
     91          1           0        5.627166    2.768327    5.066198
     92          1           0        7.510240    0.745309    5.328653
     93          1           0        7.477118    2.389394    6.077151
     94          1           0        8.267254    2.120388    4.540184
     95          1           0        7.772537   -2.710505    2.597890
     96          1           0        6.628376   -4.072040    2.526834
     97          1           0        6.145498   -2.596084    3.452173
     98          1           0        2.370314   -4.097462   -0.443141
     99          1           0        3.783785   -7.222459   -2.775115
    100          1           0        2.961577   -6.286771   -4.003312
    101          1           0        2.056480   -7.419177   -2.994170
    102          1           0       -4.367893   -4.460307   -1.403207
    103          1           0       -4.426260   -2.635162   -1.359909
    104          1           0       -3.611238   -3.396622    1.234792
    105          1           0       -6.710766   -3.681878   -0.744285
    106          1           0       -7.601749   -3.454335    0.584945
    107          1           0       -7.267608   -5.111032    0.161637
    108          1           0       -4.689058   -4.638372    2.921902
    109          1           0       -6.072139   -5.549123    2.615853
    110          1           0       -7.370841   -4.288235    3.989395
    111          1           0       -7.291332   -2.964948    2.837517
    112          1           0       -4.808700   -2.832414    4.353042
    113          1           0       -6.005175   -3.202687    5.486187
    114          1           0       -7.213111   -1.146037    4.228417
    115          1           0       -5.423979    0.271960    5.945226
    116          1           0       -5.974714   -1.207295    6.734882
    117          1           0       -7.135883   -0.020547    6.042191
    118          1           0       -4.808293   -1.036918    2.717847
    119          1           0       -4.422796   -0.069274    4.204506
    120          1           0       -5.108640    1.607695    2.964417
    121          1           0       -6.738130    1.102937    3.572662
    122          1           0       -6.224790   -0.422555    1.210626
    123          1           0       -5.169300    0.823246    0.940976
    124          1           0       -7.200527    2.462992    1.410357
    125          1           0       -8.775818    0.005281    0.727287
    126          1           0       -9.419938    1.531824    1.211324
    127          1           0       -8.672276    0.498325    2.488109
    128          1           0       -8.230556    1.261287   -0.918923
    129          1           0       -6.501956    1.121210   -0.998130
    130          1           0       -6.875550    3.316627   -1.996078
    131          1           0       -6.597844    3.740325   -0.293142
    132          1           0       -8.841674    4.591440   -0.329025
    133          1           0       -9.347581    2.968164   -0.342614
    134          1           0       -9.164374    3.181377   -2.791279
    135          1           0       -9.146518    5.636886   -3.728186
    136          1           0       -7.598034    5.129402   -3.219685
    137          1           0       -8.604783    5.997800   -2.012684
    138          1           0      -11.107733    5.164381   -2.786651
    139          1           0      -11.064140    4.785168   -1.124730
    140          1           0      -11.540752    3.530644   -2.364692
 ---------------------------------------------------------------------

 SCF Done:  E(RB-LYP) =  -3007.36192309     A.U. after   21 cycles

 Excitation energies and oscillator strengths:

 Excited State   1:      Singlet-A      1.7949 eV  690.77 nm  f=0.3076  <S**2>=0.000
     244 -> 247       -0.11871
     245 -> 248       -0.16073
     246 -> 247        0.68429
     246 <- 247       -0.15370
 This state for optimization and/or second-order correction.
 Total Energy, E(TD-HF/TD-DFT) =  -3007.29596276
 Copying the excited state density for this state as the 1-particle RhoCI density.

 Excited State   2:      Singlet-A      1.8877 eV  656.79 nm  f=0.0112  <S**2>=0.000
     244 -> 247        0.68427
     245 -> 247       -0.12117
     246 -> 247        0.11811

 Excited State   3:      Singlet-A      2.0412 eV  607.41 nm  f=0.0538  <S**2>=0.000
     243 -> 247       -0.35011
     244 -> 247        0.11526
     245 -> 247        0.55106
     246 -> 248        0.19028
     246 -> 249        0.10025

 Excited State   4:      Singlet-A      2.0592 eV  602.10 nm  f=0.0144  <S**2>=0.000
     242 -> 247        0.19967
     243 -> 247        0.59333
     245 -> 247        0.29210
     246 -> 248        0.11081

 Excited State   5:      Singlet-A      2.0654 eV  600.28 nm  f=0.0025  <S**2>=0.000
     242 -> 247        0.67696
     243 -> 247       -0.15299
     245 -> 247       -0.11941

 The electronic state is 1-A.
 Alpha  occ. eigenvalues --  -46.27238 -18.83319 -18.82084 -18.76588 -18.76463
 Alpha  occ. eigenvalues --  -18.75989 -18.75693 -14.03214 -14.03197 -14.01363
 Alpha  occ. eigenvalues --  -14.00880 -10.04543 -10.03878 -10.00556  -9.99837
 Alpha  occ. eigenvalues --   -9.98121  -9.98107  -9.96854  -9.96499  -9.96266
 Alpha  occ. eigenvalues --   -9.96151  -9.95954  -9.95586  -9.95434  -9.94936
 Alpha  occ. eigenvalues --   -9.94758  -9.94581  -9.94292  -9.94272  -9.94184
 Alpha  occ. eigenvalues --   -9.93652  -9.93507  -9.93482  -9.93332  -9.93236
 Alpha  occ. eigenvalues --   -9.93227  -9.93170  -9.92894  -9.92800  -9.92667
 Alpha  occ. eigenvalues --   -9.92661  -9.92629  -9.92388  -9.92231  -9.92227
 Alpha  occ. eigenvalues --   -9.92142  -9.92070  -9.92048  -9.91804  -9.91738
 Alpha  occ. eigenvalues --   -9.91583  -9.91511  -9.91376  -9.91201  -9.90979
 Alpha  occ. eigenvalues --   -9.90924  -9.90880  -9.90847  -9.90815  -9.90735
 Alpha  occ. eigenvalues --   -9.90686  -9.90638  -9.90524  -9.90481  -9.90479
 Alpha  occ. eigenvalues --   -9.90465  -2.91981  -1.72353  -1.71896  -1.71686
 Alpha  occ. eigenvalues --   -0.99564  -0.98588  -0.92055  -0.89527  -0.89132
 Alpha  occ. eigenvalues --   -0.89049  -0.86608  -0.85881  -0.85725  -0.84903
 Alpha  occ. eigenvalues --   -0.76072  -0.73202  -0.73116  -0.72798  -0.72471
 Alpha  occ. eigenvalues --   -0.72415  -0.71904  -0.71820  -0.71198  -0.70726
 Alpha  occ. eigenvalues --   -0.70131  -0.69290  -0.68413  -0.68313  -0.67525
 Alpha  occ. eigenvalues --   -0.66726  -0.66189  -0.65727  -0.65260  -0.64755
 Alpha  occ. eigenvalues --   -0.63755  -0.62871  -0.62436  -0.61902  -0.60941
 Alpha  occ. eigenvalues --   -0.60286  -0.60152  -0.60084  -0.59186  -0.58479
 Alpha  occ. eigenvalues --   -0.58315  -0.57795  -0.57072  -0.56030  -0.54228
 Alpha  occ. eigenvalues --   -0.54176  -0.53783  -0.52964  -0.52625  -0.52067
 Alpha  occ. eigenvalues --   -0.51572  -0.51231  -0.50921  -0.50698  -0.49975
 Alpha  occ. eigenvalues --   -0.49426  -0.48928  -0.48879  -0.48241  -0.46996
 Alpha  occ. eigenvalues --   -0.46476  -0.46190  -0.46049  -0.45114  -0.44669
 Alpha  occ. eigenvalues --   -0.44252  -0.43816  -0.43516  -0.43266  -0.42901
 Alpha  occ. eigenvalues --   -0.42456  -0.42218  -0.42089  -0.41526  -0.41061
 Alpha  occ. eigenvalues --   -0.40897  -0.40888  -0.40862  -0.40573  -0.40240
 Alpha  occ. eigenvalues --   -0.40063  -0.39922  -0.39864  -0.39506  -0.39221
 Alpha  occ. eigenvalues --   -0.39107  -0.38741  -0.38675  -0.38614  -0.38455
 Alpha  occ. eigenvalues --   -0.38292  -0.38061  -0.37689  -0.37635  -0.37504
 Alpha  occ. eigenvalues --   -0.37201  -0.36938  -0.36926  -0.36603  -0.36472
 Alpha  occ. eigenvalues --   -0.36207  -0.35991  -0.35974  -0.35654  -0.35421
 Alpha  occ. eigenvalues --   -0.35366  -0.35214  -0.34998  -0.34804  -0.34680
 Alpha  occ. eigenvalues --   -0.34336  -0.34278  -0.34207  -0.33936  -0.33802
 Alpha  occ. eigenvalues --   -0.33745  -0.33619  -0.33474  -0.33354  -0.33255
 Alpha  occ. eigenvalues --   -0.32904  -0.32655  -0.32589  -0.32423  -0.32408
 Alpha  occ. eigenvalues --   -0.32352  -0.31739  -0.31533  -0.31386  -0.31083
 Alpha  occ. eigenvalues --   -0.31061  -0.30939  -0.30889  -0.30651  -0.30533
 Alpha  occ. eigenvalues --   -0.30362  -0.30147  -0.30047  -0.29758  -0.29636
 Alpha  occ. eigenvalues --   -0.29612  -0.29465  -0.29429  -0.29390  -0.29159
 Alpha  occ. eigenvalues --   -0.28940  -0.28832  -0.28462  -0.28325  -0.27936
 Alpha  occ. eigenvalues --   -0.27553  -0.27323  -0.26937  -0.26792  -0.26638
 Alpha  occ. eigenvalues --   -0.26241  -0.25925  -0.25796  -0.25626  -0.25556
 Alpha  occ. eigenvalues --   -0.25319  -0.24928  -0.24789  -0.23933  -0.23656
 Alpha  occ. eigenvalues --   -0.23554  -0.22601  -0.21673  -0.21456  -0.20896
 Alpha  occ. eigenvalues --   -0.20387  -0.19344  -0.19201  -0.18621  -0.17592
 Alpha  occ. eigenvalues --   -0.15933
 Alpha virt. eigenvalues --   -0.11756  -0.07179  -0.06157  -0.05208  -0.03917
 Alpha virt. eigenvalues --   -0.03389  -0.02837  -0.02552  -0.01880  -0.00016
 Alpha virt. eigenvalues --    0.00818   0.01893   0.02012   0.02442   0.02724

 Mulliken charges:
               1
     1  Mg   0.710293
     2  C    0.003982
     3  C   -0.053201
     4  C   -0.053349
     5  C   -0.087537
     6  N   -0.187068
     7  C   -0.117679
     8  C    0.016536
     9  C    0.017219
    10  C   -0.041373
    11  C    0.144455
    12  C    0.115088
    13  C    0.145641
    14  C    0.063589
    15  O   -0.204922
    16  O   -0.263391
    17  N   -0.281287
    18  C    0.149638
    19  C   -0.120385
    20  C    0.038525
    21  C    0.155411
    22  C    0.188108
    23  C   -0.058324
    24  O   -0.194278
    25  C    0.131773
    26  N   -0.278423
    27  C   -0.019825
    28  C    0.029288
    29  C    0.031725
    30  C    0.080376
    31  C    0.145758
    32  C    0.106678
    33  C    0.054158
    34  N   -0.289494
    35  C    0.045616
    36  C   -0.170880
    37  C    0.095669
    38  C    0.114658
    39  C    0.158720
    40  C   -0.021195
    41  O   -0.117861
    42  C    0.061358
    43  C    0.074709
    44  O   -0.209330
    45  O   -0.234037
    46  C    0.213568
    47  C    0.343385
    48  C   -0.143679
    49  C   -0.150429
    50  C    0.126492
    51  C    0.126371
    52  C    0.096619
    53  C    0.101778
    54  C   -0.115586
    55  C    0.117099
    56  C    0.113725
    57  C    0.073075
    58  C    0.057870
    59  C   -0.063034
    60  C    0.102853
    61  C    0.108314
    62  C    0.091928
    63  C    0.053094
    64  C   -0.069447
    65  C    0.108953
    66  C    0.130883
    67  H   -0.067312
    68  H   -0.089871
    69  H   -0.068340
    70  H   -0.007612
    71  H   -0.025224
    72  H   -0.006813
    73  H   -0.006574
    74  H    0.016774
    75  H   -0.020909
    76  H   -0.005589
    77  H    0.018097
    78  H   -0.011869
    79  H   -0.007245
    80  H   -0.016975
    81  H   -0.014856
    82  H    0.032728
    83  H   -0.016493
    84  H    0.001709
    85  H   -0.015874
    86  H   -0.029845
    87  H    0.007529
    88  H   -0.011200
    89  H   -0.009789
    90  H   -0.006134
    91  H   -0.018386
    92  H   -0.006902
    93  H   -0.010332
    94  H   -0.020909
    95  H    0.011256
    96  H    0.004343
    97  H    0.012177
    98  H    0.000633
    99  H    0.022445
   100  H    0.018954
   101  H    0.016165
   102  H    0.008999
   103  H    0.009983
   104  H   -0.026394
   105  H   -0.022520
   106  H   -0.014831
   107  H   -0.001131
   108  H   -0.028869
   109  H   -0.022537
   110  H   -0.029710
   111  H   -0.008841
   112  H   -0.033686
   113  H   -0.047435
   114  H   -0.034848
   115  H   -0.023399
   116  H   -0.015109
   117  H   -0.014191
   118  H   -0.017321
   119  H   -0.040395
   120  H   -0.037903
   121  H   -0.019478
   122  H   -0.037610
   123  H   -0.040778
   124  H   -0.041649
   125  H   -0.016217
   126  H   -0.018539
   127  H   -0.005066
   128  H   -0.046978
   129  H   -0.049857
   130  H   -0.031240
   131  H   -0.023129
   132  H   -0.055570
   133  H   -0.028068
   134  H   -0.047426
   135  H   -0.012450
   136  H   -0.009205
   137  H   -0.016422
   138  H   -0.038136
   139  H   -0.024259
   140  H   -0.004502
 Sum of Mulliken charges =  -0.00000

 Dipole moment (field-independent basis, Debye):
    X=              1.0734    Y=              0.7511    Z=              3.2532  Tot=              3.5071
 Quadrupole moment (field-independent basis, Debye-Ang):
   XX=           -382.2922   YY=           -429.2460   ZZ=           -400.6278
   XY=             30.7173   XZ=              8.5205   YZ=             16.0308

 Normal termination of Gaussian 16 at Fri Apr 29 08:49:52 2022.
