 Gaussian 16, Revision A.03,
 Gaussian 16:  ES64L-G16RevA.03 25-Dec-2016

 -----------------------------------
 #p cam-b3lyp/Def2SVP td=(nstates=5)
 -----------------------------------

 -------------------------------------------------------
 step_201_chromophore_17 TDDFT with cam-b3lyp functional
 -------------------------------------------------------
 Symbolic Z-matrix:
 Charge =  0 Multiplicity = 1

                         Standard orientation:
 ---------------------------------------------------------------------
 Center     Atomic      Atomic             Coordinates (Angstroms)
 Number     Number       Type             X           Y           Z
 ---------------------------------------------------------------------
      1         12           0        4.307217    1.018986   -0.548838
      2          6           0        3.488805   -2.385152   -1.012300
      3          6           0        1.784149    1.618582   -2.904337
      4          6           0        4.087527    4.181033    0.558839
      5          6           0        6.309867    0.144698    2.132973
      6          7           0        2.766889   -0.263489   -1.726563
      7          6           0        2.677702   -1.632169   -1.849964
      8          6           0        1.483918   -2.094663   -2.711894
      9          6           0        1.220920   -0.796108   -3.489660
     10          6           0        1.934231    0.284859   -2.652528
     11          6           0        1.794064   -0.835762   -4.943428
     12          6           0        0.332981   -2.547548   -1.730032
     13          6           0       -0.463478   -3.894104   -2.119685
     14          6           0       -2.017294   -3.812432   -2.218738
     15          8           0       -2.748662   -3.988364   -3.201570
     16          8           0       -2.587389   -3.541521   -1.012872
     17          7           0        3.186008    2.694219   -1.171116
     18          6           0        2.278947    2.750545   -2.189859
     19          6           0        1.911841    4.131133   -2.318332
     20          6           0        2.623900    4.925301   -1.411505
     21          6           0        3.385957    3.930168   -0.610067
     22          6           0        0.864705    4.533945   -3.214017
     23          6           0        2.449015    6.452070   -1.246416
     24          8           0        1.697733    7.147950   -1.991093
     25          6           0        3.070662    7.194936   -0.091664
     26          7           0        4.905566    1.974637    1.170209
     27          6           0        4.846064    3.339148    1.307878
     28          6           0        5.544199    3.833437    2.584290
     29          6           0        6.348549    2.548675    2.992807
     30          6           0        5.906863    1.479075    1.989473
     31          6           0        6.316167    5.175034    2.484897
     32          6           0        6.126541    2.041662    4.425845
     33          6           0        7.417937    1.816533    5.151984
     34          7           0        4.898864   -0.713962    0.353672
     35          6           0        5.737265   -0.971183    1.449571
     36          6           0        5.890396   -2.394436    1.602142
     37          6           0        5.045155   -2.942779    0.677372
     38          6           0        4.436775   -1.920373   -0.065786
     39          6           0        6.719016   -2.989166    2.612312
     40          6           0        4.488896   -4.209952    0.233788
     41          8           0        4.699900   -5.356182    0.577685
     42          6           0        3.386371   -3.873159   -0.769690
     43          6           0        3.481070   -4.588521   -2.090098
     44          8           0        4.259939   -4.408201   -3.042653
     45          8           0        2.656176   -5.609081   -1.990734
     46          6           0        2.861386   -6.683491   -2.993322
     47          6           0       -4.013851   -3.546417   -0.927219
     48          6           0       -4.407479   -3.624354    0.526048
     49          6           0       -5.613308   -3.999724    1.129149
     50          6           0       -6.811749   -4.125058    0.245835
     51          6           0       -5.725208   -4.515771    2.605089
     52          6           0       -6.689589   -3.606757    3.480752
     53          6           0       -5.887059   -2.758591    4.497974
     54          6           0       -6.166721   -1.203984    4.530233
     55          6           0       -6.175209   -0.518240    5.914644
     56          6           0       -5.204003   -0.450265    3.546974
     57          6           0       -5.867142    0.824695    2.979445
     58          6           0       -6.109611    0.632890    1.458457
     59          6           0       -7.314764    1.477203    0.959705
     60          6           0       -8.634000    0.812401    1.445292
     61          6           0       -7.306467    1.713303   -0.560695
     62          6           0       -7.248903    3.198887   -0.978943
     63          6           0       -8.773149    3.684015   -0.929032
     64          6           0       -9.355485    4.107363   -2.248301
     65          6           0       -8.608778    5.293168   -2.844471
     66          6           0      -10.868106    4.348438   -2.104449
     67          1           0        1.134776    1.733972   -3.773623
     68          1           0        4.065032    5.158142    1.045407
     69          1           0        7.028814   -0.199099    2.879095
     70          1           0        1.741948   -2.947074   -3.341806
     71          1           0        0.192758   -0.433636   -3.462776
     72          1           0        2.704193   -0.238713   -4.899511
     73          1           0        1.128413   -0.207580   -5.535087
     74          1           0        1.955630   -1.833300   -5.352898
     75          1           0       -0.383302   -1.728818   -1.671091
     76          1           0        0.711568   -2.585985   -0.708285
     77          1           0       -0.249438   -4.711667   -1.431265
     78          1           0       -0.053578   -4.147456   -3.097255
     79          1           0        0.063360    3.795990   -3.242617
     80          1           0        1.220406    4.760610   -4.219765
     81          1           0        0.474677    5.540634   -3.063642
     82          1           0        2.860712    6.986742    0.957077
     83          1           0        2.768001    8.236159   -0.202575
     84          1           0        4.128427    7.160653   -0.351581
     85          1           0        4.682157    3.945904    3.242221
     86          1           0        7.416793    2.653771    2.806223
     87          1           0        5.674430    5.905801    2.975989
     88          1           0        6.502032    5.393252    1.433255
     89          1           0        7.343321    5.131480    2.849298
     90          1           0        5.668561    1.057349    4.329491
     91          1           0        5.627166    2.768327    5.066198
     92          1           0        7.510240    0.745309    5.328653
     93          1           0        7.477118    2.389394    6.077151
     94          1           0        8.267254    2.120388    4.540184
     95          1           0        7.772537   -2.710505    2.597890
     96          1           0        6.628376   -4.072040    2.526834
     97          1           0        6.145498   -2.596084    3.452173
     98          1           0        2.370314   -4.097462   -0.443141
     99          1           0        3.783785   -7.222459   -2.775115
    100          1           0        2.961577   -6.286771   -4.003312
    101          1           0        2.056480   -7.419177   -2.994170
    102          1           0       -4.367893   -4.460307   -1.403207
    103          1           0       -4.426260   -2.635162   -1.359909
    104          1           0       -3.611238   -3.396622    1.234792
    105          1           0       -6.710766   -3.681878   -0.744285
    106          1           0       -7.601749   -3.454335    0.584945
    107          1           0       -7.267608   -5.111032    0.161637
    108          1           0       -4.689058   -4.638372    2.921902
    109          1           0       -6.072139   -5.549123    2.615853
    110          1           0       -7.370841   -4.288235    3.989395
    111          1           0       -7.291332   -2.964948    2.837517
    112          1           0       -4.808700   -2.832414    4.353042
    113          1           0       -6.005175   -3.202687    5.486187
    114          1           0       -7.213111   -1.146037    4.228417
    115          1           0       -5.423979    0.271960    5.945226
    116          1           0       -5.974714   -1.207295    6.734882
    117          1           0       -7.135883   -0.020547    6.042191
    118          1           0       -4.808293   -1.036918    2.717847
    119          1           0       -4.422796   -0.069274    4.204506
    120          1           0       -5.108640    1.607695    2.964417
    121          1           0       -6.738130    1.102937    3.572662
    122          1           0       -6.224790   -0.422555    1.210626
    123          1           0       -5.169300    0.823246    0.940976
    124          1           0       -7.200527    2.462992    1.410357
    125          1           0       -8.775818    0.005281    0.727287
    126          1           0       -9.419938    1.531824    1.211324
    127          1           0       -8.672276    0.498325    2.488109
    128          1           0       -8.230556    1.261287   -0.918923
    129          1           0       -6.501956    1.121210   -0.998130
    130          1           0       -6.875550    3.316627   -1.996078
    131          1           0       -6.597844    3.740325   -0.293142
    132          1           0       -8.841674    4.591440   -0.329025
    133          1           0       -9.347581    2.968164   -0.342614
    134          1           0       -9.164374    3.181377   -2.791279
    135          1           0       -9.146518    5.636886   -3.728186
    136          1           0       -7.598034    5.129402   -3.219685
    137          1           0       -8.604783    5.997800   -2.012684
    138          1           0      -11.107733    5.164381   -2.786651
    139          1           0      -11.064140    4.785168   -1.124730
    140          1           0      -11.540752    3.530644   -2.364692
 ---------------------------------------------------------------------

 SCF Done:  E(RCAM-B3LYP) =  -3007.16198569     A.U. after   17 cycles

 Excitation energies and oscillator strengths:

 Excited State   1:      Singlet-A      1.6848 eV  735.91 nm  f=0.3818  <S**2>=0.000
     245 -> 248       -0.16563
     246 -> 247        0.68848
     245 <- 248       -0.10353
 This state for optimization and/or second-order correction.
 Total Energy, E(TD-HF/TD-DFT) =  -3007.10007127
 Copying the excited state density for this state as the 1-particle RhoCI density.

 Excited State   2:      Singlet-A      2.2592 eV  548.81 nm  f=0.1062  <S**2>=0.000
     245 -> 247        0.63666
     246 -> 248        0.29013

 Excited State   3:      Singlet-A      3.3475 eV  370.38 nm  f=0.0023  <S**2>=0.000
     243 -> 247        0.68386

 Excited State   4:      Singlet-A      3.4715 eV  357.15 nm  f=0.1714  <S**2>=0.000
     242 -> 247        0.49918
     243 -> 247       -0.11047
     245 -> 247        0.15176
     246 -> 248       -0.44109

 Excited State   5:      Singlet-A      3.5552 eV  348.74 nm  f=0.0006  <S**2>=0.000
     241 -> 247        0.47056
     241 -> 248        0.21866
     241 -> 249        0.29043
     241 -> 250       -0.10197
     241 -> 251        0.27828
     242 -> 247        0.13216

 The electronic state is 1-A.
 Alpha  occ. eigenvalues --  -46.88832 -19.26359 -19.24919 -19.19593 -19.19553
 Alpha  occ. eigenvalues --  -19.19194 -19.18998 -14.42261 -14.41972 -14.39923
 Alpha  occ. eigenvalues --  -14.39250 -10.39881 -10.39341 -10.35973 -10.35116
 Alpha  occ. eigenvalues --  -10.32237 -10.32040 -10.31226 -10.30949 -10.30924
 Alpha  occ. eigenvalues --  -10.30743 -10.30435 -10.30005 -10.29559 -10.29064
 Alpha  occ. eigenvalues --  -10.28880 -10.28760 -10.28305 -10.28263 -10.28219
 Alpha  occ. eigenvalues --  -10.27850 -10.27665 -10.27662 -10.27538 -10.27476
 Alpha  occ. eigenvalues --  -10.27407 -10.27182 -10.27167 -10.27122 -10.26947
 Alpha  occ. eigenvalues --  -10.26435 -10.26371 -10.26245 -10.26197 -10.26062
 Alpha  occ. eigenvalues --  -10.25927 -10.25855 -10.25842 -10.25544 -10.25346
 Alpha  occ. eigenvalues --  -10.25162 -10.25141 -10.25101 -10.24906 -10.24905
 Alpha  occ. eigenvalues --  -10.24655 -10.24502 -10.24439 -10.24394 -10.24332
 Alpha  occ. eigenvalues --  -10.24322 -10.24275 -10.24274 -10.24194 -10.24158
 Alpha  occ. eigenvalues --  -10.24143  -3.17476  -1.92322  -1.91952  -1.91768
 Alpha  occ. eigenvalues --   -1.18187  -1.17025  -1.10489  -1.07929  -1.07036
 Alpha  occ. eigenvalues --   -1.06996  -1.04389  -1.03582  -1.03341  -1.02438
 Alpha  occ. eigenvalues --   -0.93248  -0.89966  -0.89953  -0.89580  -0.89237
 Alpha  occ. eigenvalues --   -0.89104  -0.88565  -0.88443  -0.87744  -0.87299
 Alpha  occ. eigenvalues --   -0.86869  -0.85688  -0.84603  -0.84570  -0.83739
 Alpha  occ. eigenvalues --   -0.82784  -0.82256  -0.81761  -0.81249  -0.80572
 Alpha  occ. eigenvalues --   -0.79535  -0.78530  -0.78002  -0.77560  -0.76423
 Alpha  occ. eigenvalues --   -0.75627  -0.75500  -0.75423  -0.74470  -0.73570
 Alpha  occ. eigenvalues --   -0.73446  -0.72791  -0.71991  -0.70874  -0.68835
 Alpha  occ. eigenvalues --   -0.68715  -0.68348  -0.67551  -0.67006  -0.66242
 Alpha  occ. eigenvalues --   -0.65833  -0.65278  -0.64922  -0.64890  -0.63789
 Alpha  occ. eigenvalues --   -0.63448  -0.62878  -0.62667  -0.62104  -0.60723
 Alpha  occ. eigenvalues --   -0.60079  -0.59753  -0.59562  -0.58474  -0.58237
 Alpha  occ. eigenvalues --   -0.57791  -0.57171  -0.56808  -0.56559  -0.55933
 Alpha  occ. eigenvalues --   -0.55530  -0.55278  -0.54941  -0.54776  -0.54197
 Alpha  occ. eigenvalues --   -0.53831  -0.53563  -0.53547  -0.53187  -0.52997
 Alpha  occ. eigenvalues --   -0.52674  -0.52502  -0.52482  -0.52158  -0.51966
 Alpha  occ. eigenvalues --   -0.51695  -0.51435  -0.51342  -0.50972  -0.50782
 Alpha  occ. eigenvalues --   -0.50704  -0.50541  -0.50495  -0.50040  -0.49894
 Alpha  occ. eigenvalues --   -0.49438  -0.49258  -0.49134  -0.49002  -0.48793
 Alpha  occ. eigenvalues --   -0.48605  -0.48435  -0.48107  -0.47963  -0.47645
 Alpha  occ. eigenvalues --   -0.47251  -0.47202  -0.47134  -0.46731  -0.46682
 Alpha  occ. eigenvalues --   -0.46212  -0.46173  -0.46018  -0.45797  -0.45651
 Alpha  occ. eigenvalues --   -0.45473  -0.45396  -0.45293  -0.45169  -0.45090
 Alpha  occ. eigenvalues --   -0.44687  -0.44344  -0.44149  -0.44093  -0.44015
 Alpha  occ. eigenvalues --   -0.43895  -0.43480  -0.43303  -0.43004  -0.42734
 Alpha  occ. eigenvalues --   -0.42536  -0.42402  -0.42272  -0.41954  -0.41910
 Alpha  occ. eigenvalues --   -0.41789  -0.41630  -0.41401  -0.41208  -0.40913
 Alpha  occ. eigenvalues --   -0.40854  -0.40763  -0.40667  -0.40603  -0.40338
 Alpha  occ. eigenvalues --   -0.40022  -0.39960  -0.39649  -0.39359  -0.38901
 Alpha  occ. eigenvalues --   -0.38553  -0.38109  -0.37693  -0.37682  -0.37346
 Alpha  occ. eigenvalues --   -0.37296  -0.37251  -0.36858  -0.36781  -0.36590
 Alpha  occ. eigenvalues --   -0.36192  -0.35498  -0.35325  -0.34668  -0.34306
 Alpha  occ. eigenvalues --   -0.33943  -0.33803  -0.33173  -0.31772  -0.31272
 Alpha  occ. eigenvalues --   -0.31029  -0.30197  -0.29809  -0.28730  -0.24455
 Alpha  occ. eigenvalues --   -0.21242
 Alpha virt. eigenvalues --   -0.08884  -0.01838   0.00125   0.01166   0.01743
 Alpha virt. eigenvalues --    0.04193   0.04686   0.04987   0.05458   0.06990
 Alpha virt. eigenvalues --    0.07820   0.07968   0.08362   0.08676   0.09044

 Mulliken charges:
               1
     1  Mg   0.839157
     2  C   -0.023301
     3  C   -0.066943
     4  C   -0.081055
     5  C   -0.099832
     6  N   -0.248390
     7  C   -0.073373
     8  C   -0.032073
     9  C   -0.039956
    10  C   -0.021825
    11  C    0.087303
    12  C    0.063958
    13  C    0.079244
    14  C    0.143908
    15  O   -0.247035
    16  O   -0.326911
    17  N   -0.369421
    18  C    0.158452
    19  C   -0.124000
    20  C   -0.030740
    21  C    0.189698
    22  C    0.117053
    23  C    0.023699
    24  O   -0.235549
    25  C    0.044589
    26  N   -0.350842
    27  C    0.010927
    28  C   -0.028212
    29  C   -0.025269
    30  C    0.103221
    31  C    0.082007
    32  C    0.044279
    33  C   -0.006073
    34  N   -0.377698
    35  C    0.055210
    36  C   -0.166461
    37  C    0.005729
    38  C    0.151631
    39  C    0.101440
    40  C    0.082205
    41  O   -0.156539
    42  C   -0.016401
    43  C    0.162912
    44  O   -0.247684
    45  O   -0.295913
    46  C    0.172732
    47  C    0.310972
    48  C   -0.161614
    49  C   -0.175167
    50  C    0.063493
    51  C    0.074415
    52  C    0.037506
    53  C    0.052532
    54  C   -0.166831
    55  C    0.059065
    56  C    0.059059
    57  C    0.018062
    58  C    0.015733
    59  C   -0.121682
    60  C    0.050291
    61  C    0.052718
    62  C    0.035515
    63  C    0.005089
    64  C   -0.130501
    65  C    0.049162
    66  C    0.068082
    67  H   -0.029475
    68  H   -0.052649
    69  H   -0.032920
    70  H    0.023641
    71  H    0.010389
    72  H    0.019722
    73  H    0.017446
    74  H    0.040874
    75  H    0.011309
    76  H    0.026207
    77  H    0.048755
    78  H    0.020103
    79  H    0.019138
    80  H    0.013672
    81  H    0.021333
    82  H    0.059760
    83  H    0.021264
    84  H    0.028977
    85  H    0.020010
    86  H    0.004899
    87  H    0.029888
    88  H    0.014699
    89  H    0.017096
    90  H    0.026067
    91  H    0.010770
    92  H    0.015382
    93  H    0.014467
    94  H    0.002272
    95  H    0.036156
    96  H    0.032795
    97  H    0.035855
    98  H    0.042595
    99  H    0.046362
   100  H    0.044025
   101  H    0.040126
   102  H    0.037818
   103  H    0.034898
   104  H    0.005761
   105  H    0.002980
   106  H    0.007950
   107  H    0.023732
   108  H    0.001776
   109  H    0.007575
   110  H    0.001172
   111  H    0.014388
   112  H   -0.006503
   113  H   -0.016997
   114  H   -0.006315
   115  H    0.000424
   116  H    0.009773
   117  H    0.009241
   118  H    0.008024
   119  H   -0.010633
   120  H   -0.006883
   121  H    0.005105
   122  H   -0.014599
   123  H   -0.011281
   124  H   -0.010818
   125  H    0.005461
   126  H    0.004738
   127  H    0.017210
   128  H   -0.017173
   129  H   -0.018426
   130  H   -0.002247
   131  H    0.005645
   132  H   -0.027606
   133  H   -0.004040
   134  H   -0.016863
   135  H    0.012033
   136  H    0.014885
   137  H    0.006089
   138  H   -0.012033
   139  H    0.000112
   140  H    0.020861
 Sum of Mulliken charges =  -0.00000

 Dipole moment (field-independent basis, Debye):
    X=              1.0752    Y=              1.1737    Z=              3.1786  Tot=              3.5549
 Quadrupole moment (field-independent basis, Debye-Ang):
   XX=           -382.9611   YY=           -424.9738   ZZ=           -399.4947
   XY=             32.9329   XZ=              8.9808   YZ=             17.0625

 Normal termination of Gaussian 16 at Fri Apr 29 07:39:31 2022.
