 Gaussian 16, Revision A.03,
 Gaussian 16:  ES64L-G16RevA.03 25-Dec-2016

 ---------------------------------
 #p PBE1PBE/Def2SVP td=(nstates=5)
 ---------------------------------

 -----------------------------------------------------
 step_201_chromophore_17 TDDFT with PBE1PBE functional
 -----------------------------------------------------
 Symbolic Z-matrix:
 Charge =  0 Multiplicity = 1

                         Standard orientation:
 ---------------------------------------------------------------------
 Center     Atomic      Atomic             Coordinates (Angstroms)
 Number     Number       Type             X           Y           Z
 ---------------------------------------------------------------------
      1         12           0        4.307217    1.018986   -0.548838
      2          6           0        3.488805   -2.385152   -1.012300
      3          6           0        1.784149    1.618582   -2.904337
      4          6           0        4.087527    4.181033    0.558839
      5          6           0        6.309867    0.144698    2.132973
      6          7           0        2.766889   -0.263489   -1.726563
      7          6           0        2.677702   -1.632169   -1.849964
      8          6           0        1.483918   -2.094663   -2.711894
      9          6           0        1.220920   -0.796108   -3.489660
     10          6           0        1.934231    0.284859   -2.652528
     11          6           0        1.794064   -0.835762   -4.943428
     12          6           0        0.332981   -2.547548   -1.730032
     13          6           0       -0.463478   -3.894104   -2.119685
     14          6           0       -2.017294   -3.812432   -2.218738
     15          8           0       -2.748662   -3.988364   -3.201570
     16          8           0       -2.587389   -3.541521   -1.012872
     17          7           0        3.186008    2.694219   -1.171116
     18          6           0        2.278947    2.750545   -2.189859
     19          6           0        1.911841    4.131133   -2.318332
     20          6           0        2.623900    4.925301   -1.411505
     21          6           0        3.385957    3.930168   -0.610067
     22          6           0        0.864705    4.533945   -3.214017
     23          6           0        2.449015    6.452070   -1.246416
     24          8           0        1.697733    7.147950   -1.991093
     25          6           0        3.070662    7.194936   -0.091664
     26          7           0        4.905566    1.974637    1.170209
     27          6           0        4.846064    3.339148    1.307878
     28          6           0        5.544199    3.833437    2.584290
     29          6           0        6.348549    2.548675    2.992807
     30          6           0        5.906863    1.479075    1.989473
     31          6           0        6.316167    5.175034    2.484897
     32          6           0        6.126541    2.041662    4.425845
     33          6           0        7.417937    1.816533    5.151984
     34          7           0        4.898864   -0.713962    0.353672
     35          6           0        5.737265   -0.971183    1.449571
     36          6           0        5.890396   -2.394436    1.602142
     37          6           0        5.045155   -2.942779    0.677372
     38          6           0        4.436775   -1.920373   -0.065786
     39          6           0        6.719016   -2.989166    2.612312
     40          6           0        4.488896   -4.209952    0.233788
     41          8           0        4.699900   -5.356182    0.577685
     42          6           0        3.386371   -3.873159   -0.769690
     43          6           0        3.481070   -4.588521   -2.090098
     44          8           0        4.259939   -4.408201   -3.042653
     45          8           0        2.656176   -5.609081   -1.990734
     46          6           0        2.861386   -6.683491   -2.993322
     47          6           0       -4.013851   -3.546417   -0.927219
     48          6           0       -4.407479   -3.624354    0.526048
     49          6           0       -5.613308   -3.999724    1.129149
     50          6           0       -6.811749   -4.125058    0.245835
     51          6           0       -5.725208   -4.515771    2.605089
     52          6           0       -6.689589   -3.606757    3.480752
     53          6           0       -5.887059   -2.758591    4.497974
     54          6           0       -6.166721   -1.203984    4.530233
     55          6           0       -6.175209   -0.518240    5.914644
     56          6           0       -5.204003   -0.450265    3.546974
     57          6           0       -5.867142    0.824695    2.979445
     58          6           0       -6.109611    0.632890    1.458457
     59          6           0       -7.314764    1.477203    0.959705
     60          6           0       -8.634000    0.812401    1.445292
     61          6           0       -7.306467    1.713303   -0.560695
     62          6           0       -7.248903    3.198887   -0.978943
     63          6           0       -8.773149    3.684015   -0.929032
     64          6           0       -9.355485    4.107363   -2.248301
     65          6           0       -8.608778    5.293168   -2.844471
     66          6           0      -10.868106    4.348438   -2.104449
     67          1           0        1.134776    1.733972   -3.773623
     68          1           0        4.065032    5.158142    1.045407
     69          1           0        7.028814   -0.199099    2.879095
     70          1           0        1.741948   -2.947074   -3.341806
     71          1           0        0.192758   -0.433636   -3.462776
     72          1           0        2.704193   -0.238713   -4.899511
     73          1           0        1.128413   -0.207580   -5.535087
     74          1           0        1.955630   -1.833300   -5.352898
     75          1           0       -0.383302   -1.728818   -1.671091
     76          1           0        0.711568   -2.585985   -0.708285
     77          1           0       -0.249438   -4.711667   -1.431265
     78          1           0       -0.053578   -4.147456   -3.097255
     79          1           0        0.063360    3.795990   -3.242617
     80          1           0        1.220406    4.760610   -4.219765
     81          1           0        0.474677    5.540634   -3.063642
     82          1           0        2.860712    6.986742    0.957077
     83          1           0        2.768001    8.236159   -0.202575
     84          1           0        4.128427    7.160653   -0.351581
     85          1           0        4.682157    3.945904    3.242221
     86          1           0        7.416793    2.653771    2.806223
     87          1           0        5.674430    5.905801    2.975989
     88          1           0        6.502032    5.393252    1.433255
     89          1           0        7.343321    5.131480    2.849298
     90          1           0        5.668561    1.057349    4.329491
     91          1           0        5.627166    2.768327    5.066198
     92          1           0        7.510240    0.745309    5.328653
     93          1           0        7.477118    2.389394    6.077151
     94          1           0        8.267254    2.120388    4.540184
     95          1           0        7.772537   -2.710505    2.597890
     96          1           0        6.628376   -4.072040    2.526834
     97          1           0        6.145498   -2.596084    3.452173
     98          1           0        2.370314   -4.097462   -0.443141
     99          1           0        3.783785   -7.222459   -2.775115
    100          1           0        2.961577   -6.286771   -4.003312
    101          1           0        2.056480   -7.419177   -2.994170
    102          1           0       -4.367893   -4.460307   -1.403207
    103          1           0       -4.426260   -2.635162   -1.359909
    104          1           0       -3.611238   -3.396622    1.234792
    105          1           0       -6.710766   -3.681878   -0.744285
    106          1           0       -7.601749   -3.454335    0.584945
    107          1           0       -7.267608   -5.111032    0.161637
    108          1           0       -4.689058   -4.638372    2.921902
    109          1           0       -6.072139   -5.549123    2.615853
    110          1           0       -7.370841   -4.288235    3.989395
    111          1           0       -7.291332   -2.964948    2.837517
    112          1           0       -4.808700   -2.832414    4.353042
    113          1           0       -6.005175   -3.202687    5.486187
    114          1           0       -7.213111   -1.146037    4.228417
    115          1           0       -5.423979    0.271960    5.945226
    116          1           0       -5.974714   -1.207295    6.734882
    117          1           0       -7.135883   -0.020547    6.042191
    118          1           0       -4.808293   -1.036918    2.717847
    119          1           0       -4.422796   -0.069274    4.204506
    120          1           0       -5.108640    1.607695    2.964417
    121          1           0       -6.738130    1.102937    3.572662
    122          1           0       -6.224790   -0.422555    1.210626
    123          1           0       -5.169300    0.823246    0.940976
    124          1           0       -7.200527    2.462992    1.410357
    125          1           0       -8.775818    0.005281    0.727287
    126          1           0       -9.419938    1.531824    1.211324
    127          1           0       -8.672276    0.498325    2.488109
    128          1           0       -8.230556    1.261287   -0.918923
    129          1           0       -6.501956    1.121210   -0.998130
    130          1           0       -6.875550    3.316627   -1.996078
    131          1           0       -6.597844    3.740325   -0.293142
    132          1           0       -8.841674    4.591440   -0.329025
    133          1           0       -9.347581    2.968164   -0.342614
    134          1           0       -9.164374    3.181377   -2.791279
    135          1           0       -9.146518    5.636886   -3.728186
    136          1           0       -7.598034    5.129402   -3.219685
    137          1           0       -8.604783    5.997800   -2.012684
    138          1           0      -11.107733    5.164381   -2.786651
    139          1           0      -11.064140    4.785168   -1.124730
    140          1           0      -11.540752    3.530644   -2.364692
 ---------------------------------------------------------------------

 SCF Done:  E(RPBE1PBE) =  -3005.35155478     A.U. after   15 cycles

 Excitation energies and oscillator strengths:

 Excited State   1:      Singlet-A      1.8424 eV  672.95 nm  f=0.3725  <S**2>=0.000
     245 -> 248        0.15562
     246 -> 247        0.69631
     246 <- 247       -0.11383
 This state for optimization and/or second-order correction.
 Total Energy, E(TD-HF/TD-DFT) =  -3005.28384798
 Copying the excited state density for this state as the 1-particle RhoCI density.

 Excited State   2:      Singlet-A      2.2634 eV  547.78 nm  f=0.1009  <S**2>=0.000
     245 -> 247        0.64747
     246 -> 248       -0.26193

 Excited State   3:      Singlet-A      3.0093 eV  412.00 nm  f=0.0018  <S**2>=0.000
     243 -> 247        0.69822

 Excited State   4:      Singlet-A      3.0656 eV  404.44 nm  f=0.0002  <S**2>=0.000
     242 -> 247        0.65773
     242 -> 248        0.14529
     242 -> 249       -0.15334
     242 -> 250        0.11978

 Excited State   5:      Singlet-A      3.1166 eV  397.82 nm  f=0.0001  <S**2>=0.000
     240 -> 247        0.17806
     244 -> 247        0.67695

 The electronic state is 1-A.
 Alpha  occ. eigenvalues --  -46.92236 -19.26981 -19.25618 -19.19913 -19.19812
 Alpha  occ. eigenvalues --  -19.19436 -19.19196 -14.41680 -14.41579 -14.39527
 Alpha  occ. eigenvalues --  -14.38985 -10.36962 -10.36352 -10.33083 -10.32272
 Alpha  occ. eigenvalues --  -10.29450 -10.29445 -10.29063 -10.28750 -10.28471
 Alpha  occ. eigenvalues --  -10.28361 -10.28089 -10.27612 -10.27428 -10.26881
 Alpha  occ. eigenvalues --  -10.26556 -10.26393 -10.26072 -10.25992 -10.25962
 Alpha  occ. eigenvalues --  -10.25471 -10.25432 -10.25412 -10.25367 -10.25182
 Alpha  occ. eigenvalues --  -10.24961 -10.24951 -10.24783 -10.24684 -10.24417
 Alpha  occ. eigenvalues --  -10.24017 -10.23879 -10.23831 -10.23636 -10.23518
 Alpha  occ. eigenvalues --  -10.23468 -10.23439 -10.23397 -10.23254 -10.22774
 Alpha  occ. eigenvalues --  -10.22769 -10.22740 -10.22692 -10.22621 -10.22452
 Alpha  occ. eigenvalues --  -10.22222 -10.21903 -10.21892 -10.21820 -10.21802
 Alpha  occ. eigenvalues --  -10.21784 -10.21726 -10.21721 -10.21705 -10.21695
 Alpha  occ. eigenvalues --  -10.21645  -3.14454  -1.87239  -1.86850  -1.86669
 Alpha  occ. eigenvalues --   -1.12976  -1.11886  -1.05261  -1.02577  -1.01880
 Alpha  occ. eigenvalues --   -1.01829  -0.98982  -0.98167  -0.98018  -0.97097
 Alpha  occ. eigenvalues --   -0.87624  -0.84262  -0.84020  -0.83770  -0.83420
 Alpha  occ. eigenvalues --   -0.83372  -0.82867  -0.82648  -0.82091  -0.81407
 Alpha  occ. eigenvalues --   -0.81114  -0.79906  -0.78930  -0.78819  -0.77908
 Alpha  occ. eigenvalues --   -0.77042  -0.76410  -0.76041  -0.75501  -0.74840
 Alpha  occ. eigenvalues --   -0.73674  -0.72850  -0.72331  -0.71825  -0.70746
 Alpha  occ. eigenvalues --   -0.69826  -0.69733  -0.69581  -0.68566  -0.67978
 Alpha  occ. eigenvalues --   -0.67678  -0.67097  -0.66414  -0.65158  -0.63300
 Alpha  occ. eigenvalues --   -0.63119  -0.62572  -0.61944  -0.61246  -0.60704
 Alpha  occ. eigenvalues --   -0.60247  -0.59795  -0.59477  -0.59087  -0.58274
 Alpha  occ. eigenvalues --   -0.57535  -0.57253  -0.57008  -0.56269  -0.55254
 Alpha  occ. eigenvalues --   -0.54547  -0.54321  -0.54044  -0.53068  -0.52770
 Alpha  occ. eigenvalues --   -0.52248  -0.51618  -0.51237  -0.51098  -0.50561
 Alpha  occ. eigenvalues --   -0.50078  -0.49795  -0.49364  -0.49247  -0.48822
 Alpha  occ. eigenvalues --   -0.48450  -0.48165  -0.47947  -0.47775  -0.47485
 Alpha  occ. eigenvalues --   -0.47267  -0.47040  -0.46923  -0.46712  -0.46407
 Alpha  occ. eigenvalues --   -0.46198  -0.46031  -0.45835  -0.45615  -0.45327
 Alpha  occ. eigenvalues --   -0.45200  -0.45130  -0.45114  -0.44621  -0.44439
 Alpha  occ. eigenvalues --   -0.44071  -0.43900  -0.43751  -0.43522  -0.43482
 Alpha  occ. eigenvalues --   -0.43194  -0.42983  -0.42720  -0.42543  -0.42266
 Alpha  occ. eigenvalues --   -0.41958  -0.41847  -0.41806  -0.41459  -0.41345
 Alpha  occ. eigenvalues --   -0.40976  -0.40814  -0.40609  -0.40486  -0.40381
 Alpha  occ. eigenvalues --   -0.40147  -0.40083  -0.39948  -0.39889  -0.39829
 Alpha  occ. eigenvalues --   -0.39438  -0.39119  -0.38902  -0.38882  -0.38809
 Alpha  occ. eigenvalues --   -0.38586  -0.38255  -0.38077  -0.37761  -0.37552
 Alpha  occ. eigenvalues --   -0.37310  -0.37203  -0.37091  -0.36791  -0.36685
 Alpha  occ. eigenvalues --   -0.36590  -0.36337  -0.36112  -0.36075  -0.35700
 Alpha  occ. eigenvalues --   -0.35652  -0.35600  -0.35589  -0.35330  -0.35080
 Alpha  occ. eigenvalues --   -0.34937  -0.34689  -0.34545  -0.34182  -0.33708
 Alpha  occ. eigenvalues --   -0.33533  -0.32915  -0.32713  -0.32531  -0.32351
 Alpha  occ. eigenvalues --   -0.32176  -0.32172  -0.31875  -0.31769  -0.31452
 Alpha  occ. eigenvalues --   -0.31037  -0.30275  -0.30145  -0.29838  -0.29268
 Alpha  occ. eigenvalues --   -0.28871  -0.28753  -0.28536  -0.27371  -0.26171
 Alpha  occ. eigenvalues --   -0.25875  -0.25725  -0.25368  -0.24076  -0.21343
 Alpha  occ. eigenvalues --   -0.18881
 Alpha virt. eigenvalues --   -0.11361  -0.05411  -0.03930  -0.02693  -0.01629
 Alpha virt. eigenvalues --   -0.00318   0.00159   0.00496   0.01024   0.02958
 Alpha virt. eigenvalues --    0.03811   0.04685   0.04813   0.05209   0.05576

 Mulliken charges:
               1
     1  Mg   0.980400
     2  C   -0.042589
     3  C   -0.063321
     4  C   -0.074468
     5  C   -0.097923
     6  N   -0.345487
     7  C    0.014308
     8  C   -0.108251
     9  C   -0.120072
    10  C    0.020932
    11  C    0.033178
    12  C    0.023706
    13  C    0.003920
    14  C    0.206061
    15  O   -0.279802
    16  O   -0.357885
    17  N   -0.486232
    18  C    0.193287
    19  C   -0.168293
    20  C   -0.065095
    21  C    0.211554
    22  C    0.063020
    23  C    0.070458
    24  O   -0.270493
    25  C   -0.031925
    26  N   -0.448901
    27  C    0.048634
    28  C   -0.104456
    29  C   -0.099810
    30  C    0.133395
    31  C    0.020524
    32  C   -0.021175
    33  C   -0.074093
    34  N   -0.503445
    35  C    0.088031
    36  C   -0.191773
    37  C   -0.055256
    38  C    0.205547
    39  C    0.046923
    40  C    0.190370
    41  O   -0.205332
    42  C   -0.131278
    43  C    0.256813
    44  O   -0.282989
    45  O   -0.329778
    46  C    0.116452
    47  C    0.270669
    48  C   -0.172721
    49  C   -0.221817
    50  C    0.006731
    51  C    0.016231
    52  C   -0.030519
    53  C    0.003520
    54  C   -0.252523
    55  C    0.002293
    56  C   -0.004097
    57  C   -0.043707
    58  C   -0.034603
    59  C   -0.205250
    60  C   -0.016331
    61  C   -0.005343
    62  C   -0.028134
    63  C   -0.050373
    64  C   -0.229812
    65  C   -0.011263
    66  C    0.008000
    67  H    0.001459
    68  H   -0.015563
    69  H    0.002438
    70  H    0.060922
    71  H    0.046084
    72  H    0.048474
    73  H    0.045043
    74  H    0.066712
    75  H    0.044047
    76  H    0.057979
    77  H    0.079386
    78  H    0.052885
    79  H    0.045323
    80  H    0.042461
    81  H    0.049183
    82  H    0.082552
    83  H    0.049675
    84  H    0.057380
    85  H    0.058059
    86  H    0.042880
    87  H    0.056111
    88  H    0.043107
    89  H    0.044840
    90  H    0.061280
    91  H    0.043815
    92  H    0.041841
    93  H    0.042374
    94  H    0.029397
    95  H    0.062956
    96  H    0.062131
    97  H    0.064603
    98  H    0.082506
    99  H    0.068380
   100  H    0.065075
   101  H    0.061577
   102  H    0.064542
   103  H    0.060775
   104  H    0.035220
   105  H    0.029782
   106  H    0.035348
   107  H    0.050492
   108  H    0.032491
   109  H    0.039988
   110  H    0.033691
   111  H    0.046608
   112  H    0.025774
   113  H    0.015665
   114  H    0.034489
   115  H    0.027319
   116  H    0.036726
   117  H    0.035688
   118  H    0.041690
   119  H    0.023652
   120  H    0.028104
   121  H    0.035988
   122  H    0.019862
   123  H    0.021171
   124  H    0.027905
   125  H    0.033718
   126  H    0.035414
   127  H    0.044742
   128  H    0.017141
   129  H    0.014293
   130  H    0.030435
   131  H    0.037925
   132  H    0.006376
   133  H    0.031903
   134  H    0.023414
   135  H    0.039873
   136  H    0.041399
   137  H    0.033336
   138  H    0.016168
   139  H    0.027248
   140  H    0.047930
 Sum of Mulliken charges =  -0.00000

 Dipole moment (field-independent basis, Debye):
    X=              1.1743    Y=              1.0723    Z=              3.3374  Tot=              3.6969
 Quadrupole moment (field-independent basis, Debye-Ang):
   XX=           -378.2590   YY=           -422.6484   ZZ=           -395.5253
   XY=             32.8627   XZ=             10.7331   YZ=             17.3745

 Normal termination of Gaussian 16 at Fri Apr 29 07:59:56 2022.
