 Gaussian 16, Revision A.03,
 Gaussian 16:  ES64L-G16RevA.03 25-Dec-2016

 --------------------------------
 #p wB97XD/Def2SVP td=(nstates=5)
 --------------------------------

 ----------------------------------------------------
 step_201_chromophore_17 TDDFT with wB97XD functional
 ----------------------------------------------------
 Symbolic Z-matrix:
 Charge =  0 Multiplicity = 1

                         Standard orientation:
 ---------------------------------------------------------------------
 Center     Atomic      Atomic             Coordinates (Angstroms)
 Number     Number       Type             X           Y           Z
 ---------------------------------------------------------------------
      1         12           0        4.307217    1.018986   -0.548838
      2          6           0        3.488805   -2.385152   -1.012300
      3          6           0        1.784149    1.618582   -2.904337
      4          6           0        4.087527    4.181033    0.558839
      5          6           0        6.309867    0.144698    2.132973
      6          7           0        2.766889   -0.263489   -1.726563
      7          6           0        2.677702   -1.632169   -1.849964
      8          6           0        1.483918   -2.094663   -2.711894
      9          6           0        1.220920   -0.796108   -3.489660
     10          6           0        1.934231    0.284859   -2.652528
     11          6           0        1.794064   -0.835762   -4.943428
     12          6           0        0.332981   -2.547548   -1.730032
     13          6           0       -0.463478   -3.894104   -2.119685
     14          6           0       -2.017294   -3.812432   -2.218738
     15          8           0       -2.748662   -3.988364   -3.201570
     16          8           0       -2.587389   -3.541521   -1.012872
     17          7           0        3.186008    2.694219   -1.171116
     18          6           0        2.278947    2.750545   -2.189859
     19          6           0        1.911841    4.131133   -2.318332
     20          6           0        2.623900    4.925301   -1.411505
     21          6           0        3.385957    3.930168   -0.610067
     22          6           0        0.864705    4.533945   -3.214017
     23          6           0        2.449015    6.452070   -1.246416
     24          8           0        1.697733    7.147950   -1.991093
     25          6           0        3.070662    7.194936   -0.091664
     26          7           0        4.905566    1.974637    1.170209
     27          6           0        4.846064    3.339148    1.307878
     28          6           0        5.544199    3.833437    2.584290
     29          6           0        6.348549    2.548675    2.992807
     30          6           0        5.906863    1.479075    1.989473
     31          6           0        6.316167    5.175034    2.484897
     32          6           0        6.126541    2.041662    4.425845
     33          6           0        7.417937    1.816533    5.151984
     34          7           0        4.898864   -0.713962    0.353672
     35          6           0        5.737265   -0.971183    1.449571
     36          6           0        5.890396   -2.394436    1.602142
     37          6           0        5.045155   -2.942779    0.677372
     38          6           0        4.436775   -1.920373   -0.065786
     39          6           0        6.719016   -2.989166    2.612312
     40          6           0        4.488896   -4.209952    0.233788
     41          8           0        4.699900   -5.356182    0.577685
     42          6           0        3.386371   -3.873159   -0.769690
     43          6           0        3.481070   -4.588521   -2.090098
     44          8           0        4.259939   -4.408201   -3.042653
     45          8           0        2.656176   -5.609081   -1.990734
     46          6           0        2.861386   -6.683491   -2.993322
     47          6           0       -4.013851   -3.546417   -0.927219
     48          6           0       -4.407479   -3.624354    0.526048
     49          6           0       -5.613308   -3.999724    1.129149
     50          6           0       -6.811749   -4.125058    0.245835
     51          6           0       -5.725208   -4.515771    2.605089
     52          6           0       -6.689589   -3.606757    3.480752
     53          6           0       -5.887059   -2.758591    4.497974
     54          6           0       -6.166721   -1.203984    4.530233
     55          6           0       -6.175209   -0.518240    5.914644
     56          6           0       -5.204003   -0.450265    3.546974
     57          6           0       -5.867142    0.824695    2.979445
     58          6           0       -6.109611    0.632890    1.458457
     59          6           0       -7.314764    1.477203    0.959705
     60          6           0       -8.634000    0.812401    1.445292
     61          6           0       -7.306467    1.713303   -0.560695
     62          6           0       -7.248903    3.198887   -0.978943
     63          6           0       -8.773149    3.684015   -0.929032
     64          6           0       -9.355485    4.107363   -2.248301
     65          6           0       -8.608778    5.293168   -2.844471
     66          6           0      -10.868106    4.348438   -2.104449
     67          1           0        1.134776    1.733972   -3.773623
     68          1           0        4.065032    5.158142    1.045407
     69          1           0        7.028814   -0.199099    2.879095
     70          1           0        1.741948   -2.947074   -3.341806
     71          1           0        0.192758   -0.433636   -3.462776
     72          1           0        2.704193   -0.238713   -4.899511
     73          1           0        1.128413   -0.207580   -5.535087
     74          1           0        1.955630   -1.833300   -5.352898
     75          1           0       -0.383302   -1.728818   -1.671091
     76          1           0        0.711568   -2.585985   -0.708285
     77          1           0       -0.249438   -4.711667   -1.431265
     78          1           0       -0.053578   -4.147456   -3.097255
     79          1           0        0.063360    3.795990   -3.242617
     80          1           0        1.220406    4.760610   -4.219765
     81          1           0        0.474677    5.540634   -3.063642
     82          1           0        2.860712    6.986742    0.957077
     83          1           0        2.768001    8.236159   -0.202575
     84          1           0        4.128427    7.160653   -0.351581
     85          1           0        4.682157    3.945904    3.242221
     86          1           0        7.416793    2.653771    2.806223
     87          1           0        5.674430    5.905801    2.975989
     88          1           0        6.502032    5.393252    1.433255
     89          1           0        7.343321    5.131480    2.849298
     90          1           0        5.668561    1.057349    4.329491
     91          1           0        5.627166    2.768327    5.066198
     92          1           0        7.510240    0.745309    5.328653
     93          1           0        7.477118    2.389394    6.077151
     94          1           0        8.267254    2.120388    4.540184
     95          1           0        7.772537   -2.710505    2.597890
     96          1           0        6.628376   -4.072040    2.526834
     97          1           0        6.145498   -2.596084    3.452173
     98          1           0        2.370314   -4.097462   -0.443141
     99          1           0        3.783785   -7.222459   -2.775115
    100          1           0        2.961577   -6.286771   -4.003312
    101          1           0        2.056480   -7.419177   -2.994170
    102          1           0       -4.367893   -4.460307   -1.403207
    103          1           0       -4.426260   -2.635162   -1.359909
    104          1           0       -3.611238   -3.396622    1.234792
    105          1           0       -6.710766   -3.681878   -0.744285
    106          1           0       -7.601749   -3.454335    0.584945
    107          1           0       -7.267608   -5.111032    0.161637
    108          1           0       -4.689058   -4.638372    2.921902
    109          1           0       -6.072139   -5.549123    2.615853
    110          1           0       -7.370841   -4.288235    3.989395
    111          1           0       -7.291332   -2.964948    2.837517
    112          1           0       -4.808700   -2.832414    4.353042
    113          1           0       -6.005175   -3.202687    5.486187
    114          1           0       -7.213111   -1.146037    4.228417
    115          1           0       -5.423979    0.271960    5.945226
    116          1           0       -5.974714   -1.207295    6.734882
    117          1           0       -7.135883   -0.020547    6.042191
    118          1           0       -4.808293   -1.036918    2.717847
    119          1           0       -4.422796   -0.069274    4.204506
    120          1           0       -5.108640    1.607695    2.964417
    121          1           0       -6.738130    1.102937    3.572662
    122          1           0       -6.224790   -0.422555    1.210626
    123          1           0       -5.169300    0.823246    0.940976
    124          1           0       -7.200527    2.462992    1.410357
    125          1           0       -8.775818    0.005281    0.727287
    126          1           0       -9.419938    1.531824    1.211324
    127          1           0       -8.672276    0.498325    2.488109
    128          1           0       -8.230556    1.261287   -0.918923
    129          1           0       -6.501956    1.121210   -0.998130
    130          1           0       -6.875550    3.316627   -1.996078
    131          1           0       -6.597844    3.740325   -0.293142
    132          1           0       -8.841674    4.591440   -0.329025
    133          1           0       -9.347581    2.968164   -0.342614
    134          1           0       -9.164374    3.181377   -2.791279
    135          1           0       -9.146518    5.636886   -3.728186
    136          1           0       -7.598034    5.129402   -3.219685
    137          1           0       -8.604783    5.997800   -2.012684
    138          1           0      -11.107733    5.164381   -2.786651
    139          1           0      -11.064140    4.785168   -1.124730
    140          1           0      -11.540752    3.530644   -2.364692
 ---------------------------------------------------------------------

 SCF Done:  E(RwB97XD) =  -3007.86241935     A.U. after   17 cycles

 Excitation energies and oscillator strengths:

 Excited State   1:      Singlet-A      1.6291 eV  761.04 nm  f=0.3812  <S**2>=0.000
     245 -> 248       -0.17156
     246 -> 247        0.68612
     245 <- 248       -0.11281
 This state for optimization and/or second-order correction.
 Total Energy, E(TD-HF/TD-DFT) =  -3007.80254959
 Copying the excited state density for this state as the 1-particle RhoCI density.

 Excited State   2:      Singlet-A      2.2059 eV  562.06 nm  f=0.1040  <S**2>=0.000
     245 -> 247        0.63501
     246 -> 248        0.29233

 Excited State   3:      Singlet-A      3.3749 eV  367.37 nm  f=0.0033  <S**2>=0.000
     243 -> 247        0.67474

 Excited State   4:      Singlet-A      3.4895 eV  355.31 nm  f=0.1877  <S**2>=0.000
     242 -> 247        0.48552
     243 -> 247       -0.13173
     245 -> 247        0.15374
     246 -> 248       -0.44424

 Excited State   5:      Singlet-A      3.5698 eV  347.32 nm  f=0.0014  <S**2>=0.000
     241 -> 247        0.45867
     241 -> 248        0.22010
     241 -> 249        0.34478
     241 -> 250        0.24507
     241 -> 251       -0.14252
     242 -> 247        0.10223

 The electronic state is 1-A.
 Alpha  occ. eigenvalues --  -46.95194 -19.31560 -19.30177 -19.24568 -19.24519
 Alpha  occ. eigenvalues --  -19.24225 -19.24056 -14.46886 -14.46555 -14.44528
 Alpha  occ. eigenvalues --  -14.43840 -10.43724 -10.43195 -10.39980 -10.39109
 Alpha  occ. eigenvalues --  -10.35985 -10.35929 -10.35223 -10.35022 -10.34934
 Alpha  occ. eigenvalues --  -10.34767 -10.34455 -10.34069 -10.33562 -10.33147
 Alpha  occ. eigenvalues --  -10.32816 -10.32735 -10.32305 -10.32300 -10.32270
 Alpha  occ. eigenvalues --  -10.31888 -10.31789 -10.31694 -10.31613 -10.31571
 Alpha  occ. eigenvalues --  -10.31448 -10.31245 -10.31239 -10.31191 -10.30827
 Alpha  occ. eigenvalues --  -10.30387 -10.30258 -10.30247 -10.30081 -10.30009
 Alpha  occ. eigenvalues --  -10.29777 -10.29766 -10.29764 -10.29532 -10.29176
 Alpha  occ. eigenvalues --  -10.29067 -10.29060 -10.28964 -10.28914 -10.28828
 Alpha  occ. eigenvalues --  -10.28590 -10.28348 -10.28272 -10.28261 -10.28214
 Alpha  occ. eigenvalues --  -10.28207 -10.28186 -10.28139 -10.28110 -10.28084
 Alpha  occ. eigenvalues --  -10.28054  -3.21278  -1.94810  -1.94424  -1.94237
 Alpha  occ. eigenvalues --   -1.20377  -1.19241  -1.12712  -1.10151  -1.09221
 Alpha  occ. eigenvalues --   -1.09215  -1.06388  -1.05583  -1.05373  -1.04470
 Alpha  occ. eigenvalues --   -0.95220  -0.91833  -0.91703  -0.91420  -0.91041
 Alpha  occ. eigenvalues --   -0.91006  -0.90409  -0.90305  -0.89670  -0.89077
 Alpha  occ. eigenvalues --   -0.88852  -0.87577  -0.86526  -0.86454  -0.85578
 Alpha  occ. eigenvalues --   -0.84692  -0.84109  -0.83705  -0.83167  -0.82468
 Alpha  occ. eigenvalues --   -0.81349  -0.80459  -0.79922  -0.79498  -0.78363
 Alpha  occ. eigenvalues --   -0.77468  -0.77366  -0.77292  -0.76270  -0.75500
 Alpha  occ. eigenvalues --   -0.75328  -0.74711  -0.73962  -0.72789  -0.70822
 Alpha  occ. eigenvalues --   -0.70632  -0.70216  -0.69554  -0.68881  -0.68182
 Alpha  occ. eigenvalues --   -0.67784  -0.67264  -0.66917  -0.66742  -0.65758
 Alpha  occ. eigenvalues --   -0.65235  -0.64685  -0.64648  -0.63919  -0.62701
 Alpha  occ. eigenvalues --   -0.62019  -0.61748  -0.61510  -0.60432  -0.60199
 Alpha  occ. eigenvalues --   -0.59766  -0.59073  -0.58715  -0.58519  -0.57893
 Alpha  occ. eigenvalues --   -0.57475  -0.57192  -0.56767  -0.56710  -0.56179
 Alpha  occ. eigenvalues --   -0.55773  -0.55481  -0.55413  -0.55106  -0.54900
 Alpha  occ. eigenvalues --   -0.54594  -0.54425  -0.54353  -0.54096  -0.53920
 Alpha  occ. eigenvalues --   -0.53582  -0.53386  -0.53221  -0.52907  -0.52674
 Alpha  occ. eigenvalues --   -0.52573  -0.52474  -0.52430  -0.51987  -0.51777
 Alpha  occ. eigenvalues --   -0.51360  -0.51192  -0.51039  -0.50869  -0.50699
 Alpha  occ. eigenvalues --   -0.50514  -0.50393  -0.50006  -0.49841  -0.49609
 Alpha  occ. eigenvalues --   -0.49168  -0.49076  -0.49051  -0.48661  -0.48588
 Alpha  occ. eigenvalues --   -0.48119  -0.48061  -0.47881  -0.47704  -0.47570
 Alpha  occ. eigenvalues --   -0.47375  -0.47302  -0.47147  -0.47102  -0.46999
 Alpha  occ. eigenvalues --   -0.46620  -0.46292  -0.46056  -0.46003  -0.45910
 Alpha  occ. eigenvalues --   -0.45758  -0.45440  -0.45216  -0.44937  -0.44662
 Alpha  occ. eigenvalues --   -0.44459  -0.44274  -0.44260  -0.43870  -0.43784
 Alpha  occ. eigenvalues --   -0.43694  -0.43481  -0.43261  -0.43145  -0.42913
 Alpha  occ. eigenvalues --   -0.42705  -0.42658  -0.42565  -0.42454  -0.42186
 Alpha  occ. eigenvalues --   -0.41916  -0.41798  -0.41525  -0.41199  -0.40741
 Alpha  occ. eigenvalues --   -0.40436  -0.39932  -0.39706  -0.39524  -0.39352
 Alpha  occ. eigenvalues --   -0.39253  -0.39174  -0.38851  -0.38803  -0.38432
 Alpha  occ. eigenvalues --   -0.38046  -0.37321  -0.37153  -0.36660  -0.36276
 Alpha  occ. eigenvalues --   -0.35761  -0.35745  -0.35388  -0.33973  -0.33241
 Alpha  occ. eigenvalues --   -0.32973  -0.32347  -0.31998  -0.30758  -0.26380
 Alpha  occ. eigenvalues --   -0.23049
 Alpha virt. eigenvalues --   -0.07221   0.00096   0.02305   0.03789   0.04337
 Alpha virt. eigenvalues --    0.06448   0.06921   0.07237   0.07815   0.09629
 Alpha virt. eigenvalues --    0.10571   0.11278   0.11425   0.11816   0.12335

 Mulliken charges:
               1
     1  Mg   0.971173
     2  C   -0.035712
     3  C   -0.078980
     4  C   -0.089216
     5  C   -0.111300
     6  N   -0.311066
     7  C   -0.027329
     8  C   -0.076922
     9  C   -0.093104
    10  C    0.006093
    11  C    0.041028
    12  C    0.027550
    13  C    0.020339
    14  C    0.198181
    15  O   -0.277719
    16  O   -0.356550
    17  N   -0.452371
    18  C    0.179847
    19  C   -0.148188
    20  C   -0.067970
    21  C    0.212541
    22  C    0.069410
    23  C    0.068547
    24  O   -0.265513
    25  C   -0.019835
    26  N   -0.420926
    27  C    0.039251
    28  C   -0.080273
    29  C   -0.074608
    30  C    0.126731
    31  C    0.031720
    32  C   -0.002987
    33  C   -0.059670
    34  N   -0.466930
    35  C    0.072864
    36  C   -0.179515
    37  C   -0.047853
    38  C    0.185757
    39  C    0.053564
    40  C    0.166014
    41  O   -0.194750
    42  C   -0.086254
    43  C    0.228419
    44  O   -0.276565
    45  O   -0.326628
    46  C    0.132351
    47  C    0.283004
    48  C   -0.177110
    49  C   -0.209131
    50  C    0.016876
    51  C    0.031988
    52  C   -0.010830
    53  C    0.016775
    54  C   -0.220744
    55  C    0.012517
    56  C    0.022842
    57  C   -0.030675
    58  C   -0.014502
    59  C   -0.177780
    60  C    0.002320
    61  C    0.016419
    62  C   -0.013548
    63  C   -0.028906
    64  C   -0.193961
    65  C    0.000827
    66  C    0.018811
    67  H   -0.003378
    68  H   -0.032157
    69  H   -0.006738
    70  H    0.045407
    71  H    0.036505
    72  H    0.041011
    73  H    0.039560
    74  H    0.063427
    75  H    0.036566
    76  H    0.050055
    77  H    0.075020
    78  H    0.046314
    79  H    0.040810
    80  H    0.038761
    81  H    0.045921
    82  H    0.080799
    83  H    0.048236
    84  H    0.050674
    85  H    0.047270
    86  H    0.029126
    87  H    0.051392
    88  H    0.035504
    89  H    0.040416
    90  H    0.049925
    91  H    0.036159
    92  H    0.036207
    93  H    0.037525
    94  H    0.022058
    95  H    0.058848
    96  H    0.058433
    97  H    0.057474
    98  H    0.070509
    99  H    0.064606
   100  H    0.060797
   101  H    0.058673
   102  H    0.058781
   103  H    0.056276
   104  H    0.031026
   105  H    0.024352
   106  H    0.028794
   107  H    0.046291
   108  H    0.024636
   109  H    0.033658
   110  H    0.028291
   111  H    0.032167
   112  H    0.014621
   113  H    0.008464
   114  H    0.017153
   115  H    0.020275
   116  H    0.031702
   117  H    0.030743
   118  H    0.025202
   119  H    0.013204
   120  H    0.020468
   121  H    0.024732
   122  H    0.002853
   123  H    0.013079
   124  H    0.013257
   125  H    0.025059
   126  H    0.027992
   127  H    0.038366
   128  H    0.003633
   129  H    0.007179
   130  H    0.021167
   131  H    0.030319
   132  H   -0.006286
   133  H    0.014005
   134  H    0.009563
   135  H    0.033673
   136  H    0.036354
   137  H    0.025387
   138  H    0.009280
   139  H    0.020641
   140  H    0.044086
 Sum of Mulliken charges =  -0.00000

 Dipole moment (field-independent basis, Debye):
    X=              1.0567    Y=              1.2688    Z=              3.1756  Tot=              3.5793
 Quadrupole moment (field-independent basis, Debye-Ang):
   XX=           -379.1720   YY=           -420.7201   ZZ=           -395.3726
   XY=             33.3949   XZ=              9.6532   YZ=             17.0296

 Normal termination of Gaussian 16 at Fri Apr 29 08:35:23 2022.
