 Gaussian 16, Revision A.03,
 Gaussian 16:  ES64L-G16RevA.03 25-Dec-2016

 --------------------
 #p ZINDO=(nstates=5)
 --------------------

 -----------------------------
 step_201_chromophore_17 ZINDO
 -----------------------------
 Symbolic Z-matrix:
 Charge =  0 Multiplicity = 1

                         Standard orientation:
 ---------------------------------------------------------------------
 Center     Atomic      Atomic             Coordinates (Angstroms)
 Number     Number       Type             X           Y           Z
 ---------------------------------------------------------------------
      1         12           0        4.307217    1.018986   -0.548838
      2          6           0        3.488805   -2.385152   -1.012300
      3          6           0        1.784149    1.618582   -2.904337
      4          6           0        4.087527    4.181033    0.558839
      5          6           0        6.309867    0.144698    2.132973
      6          7           0        2.766889   -0.263489   -1.726563
      7          6           0        2.677702   -1.632169   -1.849964
      8          6           0        1.483918   -2.094663   -2.711894
      9          6           0        1.220920   -0.796108   -3.489660
     10          6           0        1.934231    0.284859   -2.652528
     11          6           0        1.794064   -0.835762   -4.943428
     12          6           0        0.332981   -2.547548   -1.730032
     13          6           0       -0.463478   -3.894104   -2.119685
     14          6           0       -2.017294   -3.812432   -2.218738
     15          8           0       -2.748662   -3.988364   -3.201570
     16          8           0       -2.587389   -3.541521   -1.012872
     17          7           0        3.186008    2.694219   -1.171116
     18          6           0        2.278947    2.750545   -2.189859
     19          6           0        1.911841    4.131133   -2.318332
     20          6           0        2.623900    4.925301   -1.411505
     21          6           0        3.385957    3.930168   -0.610067
     22          6           0        0.864705    4.533945   -3.214017
     23          6           0        2.449015    6.452070   -1.246416
     24          8           0        1.697733    7.147950   -1.991093
     25          6           0        3.070662    7.194936   -0.091664
     26          7           0        4.905566    1.974637    1.170209
     27          6           0        4.846064    3.339148    1.307878
     28          6           0        5.544199    3.833437    2.584290
     29          6           0        6.348549    2.548675    2.992807
     30          6           0        5.906863    1.479075    1.989473
     31          6           0        6.316167    5.175034    2.484897
     32          6           0        6.126541    2.041662    4.425845
     33          6           0        7.417937    1.816533    5.151984
     34          7           0        4.898864   -0.713962    0.353672
     35          6           0        5.737265   -0.971183    1.449571
     36          6           0        5.890396   -2.394436    1.602142
     37          6           0        5.045155   -2.942779    0.677372
     38          6           0        4.436775   -1.920373   -0.065786
     39          6           0        6.719016   -2.989166    2.612312
     40          6           0        4.488896   -4.209952    0.233788
     41          8           0        4.699900   -5.356182    0.577685
     42          6           0        3.386371   -3.873159   -0.769690
     43          6           0        3.481070   -4.588521   -2.090098
     44          8           0        4.259939   -4.408201   -3.042653
     45          8           0        2.656176   -5.609081   -1.990734
     46          6           0        2.861386   -6.683491   -2.993322
     47          6           0       -4.013851   -3.546417   -0.927219
     48          6           0       -4.407479   -3.624354    0.526048
     49          6           0       -5.613308   -3.999724    1.129149
     50          6           0       -6.811749   -4.125058    0.245835
     51          6           0       -5.725208   -4.515771    2.605089
     52          6           0       -6.689589   -3.606757    3.480752
     53          6           0       -5.887059   -2.758591    4.497974
     54          6           0       -6.166721   -1.203984    4.530233
     55          6           0       -6.175209   -0.518240    5.914644
     56          6           0       -5.204003   -0.450265    3.546974
     57          6           0       -5.867142    0.824695    2.979445
     58          6           0       -6.109611    0.632890    1.458457
     59          6           0       -7.314764    1.477203    0.959705
     60          6           0       -8.634000    0.812401    1.445292
     61          6           0       -7.306467    1.713303   -0.560695
     62          6           0       -7.248903    3.198887   -0.978943
     63          6           0       -8.773149    3.684015   -0.929032
     64          6           0       -9.355485    4.107363   -2.248301
     65          6           0       -8.608778    5.293168   -2.844471
     66          6           0      -10.868106    4.348438   -2.104449
     67          1           0        1.134776    1.733972   -3.773623
     68          1           0        4.065032    5.158142    1.045407
     69          1           0        7.028814   -0.199099    2.879095
     70          1           0        1.741948   -2.947074   -3.341806
     71          1           0        0.192758   -0.433636   -3.462776
     72          1           0        2.704193   -0.238713   -4.899511
     73          1           0        1.128413   -0.207580   -5.535087
     74          1           0        1.955630   -1.833300   -5.352898
     75          1           0       -0.383302   -1.728818   -1.671091
     76          1           0        0.711568   -2.585985   -0.708285
     77          1           0       -0.249438   -4.711667   -1.431265
     78          1           0       -0.053578   -4.147456   -3.097255
     79          1           0        0.063360    3.795990   -3.242617
     80          1           0        1.220406    4.760610   -4.219765
     81          1           0        0.474677    5.540634   -3.063642
     82          1           0        2.860712    6.986742    0.957077
     83          1           0        2.768001    8.236159   -0.202575
     84          1           0        4.128427    7.160653   -0.351581
     85          1           0        4.682157    3.945904    3.242221
     86          1           0        7.416793    2.653771    2.806223
     87          1           0        5.674430    5.905801    2.975989
     88          1           0        6.502032    5.393252    1.433255
     89          1           0        7.343321    5.131480    2.849298
     90          1           0        5.668561    1.057349    4.329491
     91          1           0        5.627166    2.768327    5.066198
     92          1           0        7.510240    0.745309    5.328653
     93          1           0        7.477118    2.389394    6.077151
     94          1           0        8.267254    2.120388    4.540184
     95          1           0        7.772537   -2.710505    2.597890
     96          1           0        6.628376   -4.072040    2.526834
     97          1           0        6.145498   -2.596084    3.452173
     98          1           0        2.370314   -4.097462   -0.443141
     99          1           0        3.783785   -7.222459   -2.775115
    100          1           0        2.961577   -6.286771   -4.003312
    101          1           0        2.056480   -7.419177   -2.994170
    102          1           0       -4.367893   -4.460307   -1.403207
    103          1           0       -4.426260   -2.635162   -1.359909
    104          1           0       -3.611238   -3.396622    1.234792
    105          1           0       -6.710766   -3.681878   -0.744285
    106          1           0       -7.601749   -3.454335    0.584945
    107          1           0       -7.267608   -5.111032    0.161637
    108          1           0       -4.689058   -4.638372    2.921902
    109          1           0       -6.072139   -5.549123    2.615853
    110          1           0       -7.370841   -4.288235    3.989395
    111          1           0       -7.291332   -2.964948    2.837517
    112          1           0       -4.808700   -2.832414    4.353042
    113          1           0       -6.005175   -3.202687    5.486187
    114          1           0       -7.213111   -1.146037    4.228417
    115          1           0       -5.423979    0.271960    5.945226
    116          1           0       -5.974714   -1.207295    6.734882
    117          1           0       -7.135883   -0.020547    6.042191
    118          1           0       -4.808293   -1.036918    2.717847
    119          1           0       -4.422796   -0.069274    4.204506
    120          1           0       -5.108640    1.607695    2.964417
    121          1           0       -6.738130    1.102937    3.572662
    122          1           0       -6.224790   -0.422555    1.210626
    123          1           0       -5.169300    0.823246    0.940976
    124          1           0       -7.200527    2.462992    1.410357
    125          1           0       -8.775818    0.005281    0.727287
    126          1           0       -9.419938    1.531824    1.211324
    127          1           0       -8.672276    0.498325    2.488109
    128          1           0       -8.230556    1.261287   -0.918923
    129          1           0       -6.501956    1.121210   -0.998130
    130          1           0       -6.875550    3.316627   -1.996078
    131          1           0       -6.597844    3.740325   -0.293142
    132          1           0       -8.841674    4.591440   -0.329025
    133          1           0       -9.347581    2.968164   -0.342614
    134          1           0       -9.164374    3.181377   -2.791279
    135          1           0       -9.146518    5.636886   -3.728186
    136          1           0       -7.598034    5.129402   -3.219685
    137          1           0       -8.604783    5.997800   -2.012684
    138          1           0      -11.107733    5.164381   -2.786651
    139          1           0      -11.064140    4.785168   -1.124730
    140          1           0      -11.540752    3.530644   -2.364692
 ---------------------------------------------------------------------

 SCF Done:  E(RZINDO/S) =  -474.465928428     A.U. after   20 cycles

 Excitation energies and oscillator strengths:

 Excited State   1:      Singlet-A      1.2203 eV 1016.05 nm  f=0.5887  <S**2>=0.000
     175 ->178         0.17966
     176 ->177         0.66502
 This state for optimization and/or second-order correction.
 Total Energy, E(CIS/TDA) =  -474.421084600
 Copying the excited state density for this state as the 1-particle RhoCI density.

 Excited State   2:      Singlet-A      1.9021 eV  651.83 nm  f=0.0296  <S**2>=0.000
     175 ->177         0.53853
     176 ->178        -0.42906

 Excited State   3:      Singlet-A      2.8369 eV  437.05 nm  f=0.0007  <S**2>=0.000
     176 ->179         0.34819
     176 ->180         0.59386
     176 ->181        -0.10909

 Excited State   4:      Singlet-A      2.9132 eV  425.59 nm  f=0.0190  <S**2>=0.000
     168 ->177         0.25638
     168 ->178         0.22395
     168 ->179         0.39467
     168 ->181         0.31585
     168 ->186         0.19505

 Excited State   5:      Singlet-A      2.9884 eV  414.88 nm  f=1.1005  <S**2>=0.000
     175 ->177         0.39733
     176 ->178         0.52133
     176 ->181         0.10228

 The electronic state is 1-A.
 Alpha  occ. eigenvalues --   -1.85354  -1.82149  -1.81037  -1.75020  -1.74455
 Alpha  occ. eigenvalues --   -1.72264  -1.66213  -1.61177  -1.59605  -1.57063
 Alpha  occ. eigenvalues --   -1.54575  -1.51054  -1.49936  -1.49377  -1.45831
 Alpha  occ. eigenvalues --   -1.43677  -1.43150  -1.42384  -1.39841  -1.38843
 Alpha  occ. eigenvalues --   -1.37094  -1.36437  -1.32805  -1.31682  -1.28887
 Alpha  occ. eigenvalues --   -1.27560  -1.26106  -1.23401  -1.20625  -1.18590
 Alpha  occ. eigenvalues --   -1.17543  -1.15210  -1.15153  -1.14306  -1.13023
 Alpha  occ. eigenvalues --   -1.12589  -1.10336  -1.08653  -1.05295  -1.03813
 Alpha  occ. eigenvalues --   -1.03101  -1.02105  -0.98994  -0.98332  -0.96810
 Alpha  occ. eigenvalues --   -0.95358  -0.95055  -0.93063  -0.92953  -0.92360
 Alpha  occ. eigenvalues --   -0.91760  -0.91548  -0.89347  -0.88343  -0.86969
 Alpha  occ. eigenvalues --   -0.86391  -0.84911  -0.84035  -0.82407  -0.80031
 Alpha  occ. eigenvalues --   -0.79555  -0.79025  -0.78439  -0.77254  -0.76099
 Alpha  occ. eigenvalues --   -0.75656  -0.74834  -0.74507  -0.73985  -0.73824
 Alpha  occ. eigenvalues --   -0.73234  -0.72103  -0.71973  -0.71129  -0.70805
 Alpha  occ. eigenvalues --   -0.70049  -0.69820  -0.69022  -0.68881  -0.68158
 Alpha  occ. eigenvalues --   -0.68000  -0.67236  -0.66754  -0.66294  -0.65444
 Alpha  occ. eigenvalues --   -0.65290  -0.64887  -0.64499  -0.64263  -0.64224
 Alpha  occ. eigenvalues --   -0.63669  -0.63366  -0.62818  -0.62549  -0.62354
 Alpha  occ. eigenvalues --   -0.62316  -0.62168  -0.61161  -0.61137  -0.59744
 Alpha  occ. eigenvalues --   -0.59271  -0.58819  -0.58794  -0.58490  -0.58155
 Alpha  occ. eigenvalues --   -0.57927  -0.57649  -0.57322  -0.56422  -0.56132
 Alpha  occ. eigenvalues --   -0.55906  -0.55637  -0.55435  -0.54820  -0.54458
 Alpha  occ. eigenvalues --   -0.54280  -0.53683  -0.52973  -0.52348  -0.52210
 Alpha  occ. eigenvalues --   -0.52072  -0.51957  -0.51790  -0.51427  -0.51266
 Alpha  occ. eigenvalues --   -0.51065  -0.50829  -0.50361  -0.50307  -0.50204
 Alpha  occ. eigenvalues --   -0.50064  -0.50004  -0.49680  -0.49310  -0.48873
 Alpha  occ. eigenvalues --   -0.48762  -0.48657  -0.48167  -0.47866  -0.47700
 Alpha  occ. eigenvalues --   -0.47416  -0.47190  -0.47012  -0.46904  -0.46838
 Alpha  occ. eigenvalues --   -0.46608  -0.46269  -0.46092  -0.45668  -0.45526
 Alpha  occ. eigenvalues --   -0.45390  -0.44762  -0.44753  -0.44206  -0.43990
 Alpha  occ. eigenvalues --   -0.43320  -0.43251  -0.43116  -0.42888  -0.42193
 Alpha  occ. eigenvalues --   -0.41910  -0.41534  -0.41323  -0.39211  -0.38895
 Alpha  occ. eigenvalues --   -0.38332  -0.37442  -0.35879  -0.35167  -0.34801
 Alpha  occ. eigenvalues --   -0.33567  -0.32953  -0.32680  -0.30903  -0.26978
 Alpha  occ. eigenvalues --   -0.21792
 Alpha virt. eigenvalues --   -0.08674  -0.02297  -0.00665   0.00378   0.00931
 Alpha virt. eigenvalues --    0.01564   0.02330   0.02629   0.03864   0.04419
 Alpha virt. eigenvalues --    0.05663   0.06754   0.07350   0.07690   0.08163

 Mulliken charges:
               1
     1  Mg   0.436642
     2  C   -0.041326
     3  C   -0.074008
     4  C   -0.084728
     5  C   -0.069682
     6  N   -0.297575
     7  C    0.110727
     8  C    0.013309
     9  C    0.007003
    10  C    0.146428
    11  C   -0.051618
    12  C   -0.028037
    13  C    0.003468
    14  C    0.463928
    15  O   -0.522575
    16  O   -0.267806
    17  N   -0.320951
    18  C    0.116012
    19  C    0.068201
    20  C   -0.063476
    21  C    0.141673
    22  C   -0.045718
    23  C    0.330769
    24  O   -0.531793
    25  C   -0.032120
    26  N   -0.280983
    27  C    0.142478
    28  C   -0.003386
    29  C    0.000854
    30  C    0.110368
    31  C   -0.052762
    32  C   -0.032657
    33  C   -0.059642
    34  N   -0.327437
    35  C    0.062593
    36  C    0.048078
    37  C   -0.054601
    38  C    0.106159
    39  C   -0.040494
    40  C    0.340567
    41  O   -0.520472
    42  C    0.051042
    43  C    0.488826
    44  O   -0.545005
    45  O   -0.253768
    46  C    0.072551
    47  C    0.122774
    48  C   -0.094099
    49  C   -0.024635
    50  C   -0.047159
    51  C   -0.020306
    52  C   -0.024971
    53  C   -0.037565
    54  C   -0.015619
    55  C   -0.056030
    56  C   -0.037962
    57  C   -0.044100
    58  C   -0.036772
    59  C   -0.012117
    60  C   -0.059887
    61  C   -0.034018
    62  C   -0.040836
    63  C   -0.039418
    64  C   -0.000947
    65  C   -0.052092
    66  C   -0.058758
    67  H    0.025182
    68  H    0.024977
    69  H    0.028795
    70  H    0.042776
    71  H    0.031912
    72  H    0.025978
    73  H    0.019053
    74  H    0.038918
    75  H    0.024071
    76  H    0.029788
    77  H    0.048348
    78  H    0.037578
    79  H    0.026044
    80  H    0.035472
    81  H    0.040435
    82  H    0.047608
    83  H    0.029310
    84  H    0.035822
    85  H    0.034782
    86  H    0.032192
    87  H    0.028533
    88  H    0.020943
    89  H    0.025613
    90  H    0.034258
    91  H    0.023784
    92  H    0.017753
    93  H    0.018370
    94  H    0.015883
    95  H    0.037200
    96  H    0.030659
    97  H    0.039971
    98  H    0.057048
    99  H    0.045661
   100  H    0.045957
   101  H    0.031864
   102  H    0.055593
   103  H    0.054116
   104  H    0.023771
   105  H    0.017947
   106  H    0.018782
   107  H    0.029563
   108  H    0.025991
   109  H    0.024437
   110  H    0.019990
   111  H    0.028808
   112  H    0.015332
   113  H    0.012680
   114  H    0.014628
   115  H    0.017593
   116  H    0.021937
   117  H    0.017571
   118  H    0.030011
   119  H    0.015870
   120  H    0.013408
   121  H    0.031806
   122  H    0.013703
   123  H    0.012944
   124  H    0.016070
   125  H    0.019907
   126  H    0.013670
   127  H    0.028511
   128  H    0.015663
   129  H    0.010469
   130  H    0.021185
   131  H    0.024743
   132  H    0.001613
   133  H    0.023414
   134  H    0.013770
   135  H    0.014891
   136  H    0.021011
   137  H    0.025030
   138  H    0.008073
   139  H    0.020782
   140  H    0.027647
 Sum of Mulliken charges =  -0.00000

 Dipole moment (field-independent basis, Debye):
    X=              0.4858    Y=              3.3874    Z=              4.7662  Tot=              5.8674
 N-N= 4.515429285069D+03 E-N= 0.000000000000D+00  KE=-9.704983219070D+03
 Leave Link  601 at Fri Apr 29 08:50:00 2022, MaxMem=  6710886400 cpu:               0.8 elap:               0.1
 (Enter /sw/apps/gaussian-16.0/g16/l9999.exe)
 1\1\GINC-BP1-COMPUTE148\SP\RZINDO CIS\STO-3G\C55H74Mg1N4O6\OF15641\29-
 Apr-2022\0\\#p ZINDO=(nstates=5)\\step_201_chromophore_17 ZINDO\\0,1\M
 g,0,29.67,59.696,41.172\C,0,26.718,57.962,40.305\C,0,31.321,56.905,39.
 846\C,0,32.439,61.561,40.814\C,0,27.781,62.509,41.869\N,0,29.05,57.721
 ,40.114\C,0,27.8,57.164,39.96\C,0,27.811,55.84,39.167\C,0,29.287,55.45
 4,39.348\C,0,29.964,56.775,39.766\C,0,29.495,54.357,40.442\C,0,27.367,
 56.166,37.687\C,0,26.344,55.131,36.993\C,0,26.754,54.521,35.618\O,0,26

 Normal termination of Gaussian 16 at Fri Apr 29 08:50:00 2022.
