 Gaussian 16, Revision A.03,
 Gaussian 16:  ES64L-G16RevA.03 25-Dec-2016

 ------------------------------
 #p blyp/Def2SVP td=(nstates=5)
 ------------------------------

 --------------------------------------------------
 step_551_chromophore_10 TDDFT with blyp functional
 --------------------------------------------------
 Symbolic Z-matrix:
 Charge =  0 Multiplicity = 1

                         Standard orientation:
 ---------------------------------------------------------------------
 Center     Atomic      Atomic             Coordinates (Angstroms)
 Number     Number       Type             X           Y           Z
 ---------------------------------------------------------------------
      1         12           0        5.870569    0.520768    0.066824
      2          6           0        3.423796   -2.070947   -0.086979
      3          6           0        3.702128    2.735297   -1.199456
      4          6           0        8.425860    2.834257   -0.089114
      5          6           0        8.289369   -2.009422    0.858339
      6          7           0        3.779806    0.374846   -0.479901
      7          6           0        2.960288   -0.728692   -0.415806
      8          6           0        1.502610   -0.281813   -0.736538
      9          6           0        1.662344    1.179310   -1.135570
     10          6           0        3.141367    1.487657   -0.945929
     11          6           0        1.030038    1.493930   -2.590451
     12          6           0        0.456544   -0.602256    0.405121
     13          6           0       -1.005266   -0.678330   -0.167384
     14          6           0       -1.870193   -1.897356    0.087759
     15          8           0       -2.213522   -2.645974   -0.785892
     16          8           0       -2.227447   -2.029414    1.422000
     17          7           0        6.065398    2.549683   -0.420221
     18          6           0        5.014348    3.223009   -0.981297
     19          6           0        5.426873    4.619167   -1.068997
     20          6           0        6.730535    4.705585   -0.507043
     21          6           0        7.139693    3.352454   -0.318311
     22          6           0        4.632200    5.740347   -1.628137
     23          6           0        7.646592    5.861617   -0.120287
     24          8           0        8.784161    5.616940    0.259892
     25          6           0        7.000839    7.194857   -0.094312
     26          7           0        8.085434    0.394455    0.231814
     27          6           0        8.822334    1.516909    0.245291
     28          6           0       10.244448    1.158158    0.628399
     29          6           0       10.273902   -0.339445    0.935573
     30          6           0        8.799807   -0.699385    0.720537
     31          6           0       11.379702    1.629098   -0.273374
     32          6           0       10.873208   -0.861810    2.275768
     33          6           0       10.225882   -0.414871    3.559079
     34          7           0        5.888635   -1.600980    0.274620
     35          6           0        6.954803   -2.419548    0.509054
     36          6           0        6.441973   -3.803187    0.473299
     37          6           0        5.034009   -3.695085    0.334666
     38          6           0        4.759503   -2.317401    0.170415
     39          6           0        7.225769   -5.066871    0.787612
     40          6           0        3.785316   -4.478408    0.300340
     41          8           0        3.617877   -5.678099    0.568836
     42          6           0        2.649742   -3.451711   -0.095185
     43          6           0        2.052388   -3.870909   -1.447567
     44          8           0        2.663006   -4.546288   -2.277799
     45          8           0        0.807123   -3.363234   -1.601656
     46          6           0        0.064944   -3.517429   -2.913470
     47          6           0       -3.422756   -2.854338    1.609936
     48          6           0       -4.667687   -2.416112    0.840597
     49          6           0       -5.745865   -3.103060    0.431350
     50          6           0       -6.189238   -4.449140    0.901068
     51          6           0       -6.709128   -2.490938   -0.552793
     52          6           0       -7.872978   -1.663022    0.059178
     53          6           0       -8.359141   -0.738897   -1.048429
     54          6           0       -9.697846   -0.081405   -0.676738
     55          6           0      -10.886573   -0.473481   -1.571828
     56          6           0       -9.521642    1.448317   -0.806783
     57          6           0      -10.748854    2.353195   -0.416819
     58          6           0      -10.446768    3.040219    0.894186
     59          6           0      -11.729709    3.317187    1.771807
     60          6           0      -11.315057    4.243082    2.978642
     61          6           0      -12.357386    2.045216    2.251662
     62          6           0      -13.884187    1.896285    1.941283
     63          6           0      -14.132237    0.777659    0.877050
     64          6           0      -15.069698    1.090427   -0.272414
     65          6           0      -15.920577   -0.238980   -0.635779
     66          6           0      -14.220531    1.467895   -1.512175
     67          1           0        2.973971    3.482775   -1.519096
     68          1           0        9.266049    3.523465   -0.195214
     69          1           0        9.005217   -2.792471    1.115392
     70          1           0        1.208514   -0.897791   -1.586786
     71          1           0        1.264548    1.911214   -0.432400
     72          1           0        0.347506    0.721903   -2.944889
     73          1           0        1.905550    1.324960   -3.216975
     74          1           0        0.650115    2.511910   -2.677610
     75          1           0        0.460692    0.150477    1.193972
     76          1           0        0.666663   -1.527569    0.943409
     77          1           0       -0.902110   -0.520921   -1.241412
     78          1           0       -1.477522    0.224696    0.218538
     79          1           0        4.082204    6.160101   -0.786484
     80          1           0        3.974057    5.276382   -2.362871
     81          1           0        5.223551    6.495487   -2.146709
     82          1           0        7.716013    7.758978    0.504950
     83          1           0        6.037161    7.129432    0.409616
     84          1           0        6.898988    7.450556   -1.148893
     85          1           0       10.413531    1.628733    1.597443
     86          1           0       10.741139   -0.874108    0.107808
     87          1           0       10.862534    2.083625   -1.118288
     88          1           0       12.044691    0.838294   -0.621227
     89          1           0       11.872452    2.412217    0.301564
     90          1           0       11.938866   -0.634570    2.307457
     91          1           0       10.696358   -1.936430    2.310826
     92          1           0        9.346069    0.172501    3.295713
     93          1           0       10.917927    0.219657    4.113510
     94          1           0        9.901716   -1.259425    4.166117
     95          1           0        7.091099   -5.275017    1.848582
     96          1           0        8.255196   -4.804961    0.542977
     97          1           0        6.969393   -5.838741    0.062024
     98          1           0        1.800230   -3.558663    0.579288
     99          1           0       -0.510970   -4.431521   -2.772657
    100          1           0        0.780778   -3.691971   -3.717128
    101          1           0       -0.554964   -2.631158   -3.048048
    102          1           0       -3.718241   -2.709948    2.649417
    103          1           0       -3.229189   -3.881640    1.302164
    104          1           0       -4.517243   -1.408080    0.453160
    105          1           0       -7.171460   -4.393032    1.371620
    106          1           0       -5.538196   -4.802335    1.700997
    107          1           0       -6.185387   -5.167292    0.081003
    108          1           0       -7.153710   -3.313710   -1.113118
    109          1           0       -6.097201   -1.874560   -1.212356
    110          1           0       -7.487168   -1.243955    0.987870
    111          1           0       -8.563804   -2.429802    0.409544
    112          1           0       -8.638510   -1.463044   -1.812900
    113          1           0       -7.697221    0.002290   -1.494562
    114          1           0      -10.103677   -0.262594    0.318752
    115          1           0      -11.011964    0.312389   -2.317215
    116          1           0      -11.700679   -0.579632   -0.854427
    117          1           0      -10.788069   -1.442699   -2.061411
    118          1           0       -9.229912    1.643300   -1.838338
    119          1           0       -8.609487    1.753070   -0.294543
    120          1           0      -11.603575    1.682710   -0.326572
    121          1           0      -11.003499    3.034641   -1.229320
    122          1           0       -9.755066    3.879142    0.821130
    123          1           0       -9.874234    2.423851    1.586968
    124          1           0      -12.394550    3.932419    1.166083
    125          1           0      -10.232371    4.322044    3.081448
    126          1           0      -11.838288    3.766061    3.807539
    127          1           0      -11.699185    5.257984    2.875302
    128          1           0      -12.311838    1.879579    3.328219
    129          1           0      -11.706307    1.226380    1.944831
    130          1           0      -14.305832    2.826717    1.561871
    131          1           0      -14.267149    1.559316    2.904161
    132          1           0      -14.621471    0.001688    1.464135
    133          1           0      -13.170993    0.431439    0.497908
    134          1           0      -15.761722    1.916902   -0.109347
    135          1           0      -15.426660   -0.846958   -1.394240
    136          1           0      -16.868281    0.121067   -1.036264
    137          1           0      -16.098214   -0.973486    0.150046
    138          1           0      -13.651046    2.381058   -1.340475
    139          1           0      -14.955461    1.663465   -2.293320
    140          1           0      -13.510704    0.685219   -1.781640
 ---------------------------------------------------------------------

 SCF Done:  E(RB-LYP) =  -3007.38223995     A.U. after   21 cycles

 Excitation energies and oscillator strengths:

 Excited State   1:      Singlet-A      1.7762 eV  698.04 nm  f=0.3019  <S**2>=0.000
     245 -> 248       -0.19749
     246 -> 247        0.69180
     246 <- 247       -0.15379
 This state for optimization and/or second-order correction.
 Total Energy, E(TD-HF/TD-DFT) =  -3007.31696694
 Copying the excited state density for this state as the 1-particle RhoCI density.

 Excited State   2:      Singlet-A      1.8759 eV  660.92 nm  f=0.0003  <S**2>=0.000
     244 -> 247        0.70503

 Excited State   3:      Singlet-A      2.0152 eV  615.26 nm  f=0.0548  <S**2>=0.000
     243 -> 247        0.13214
     245 -> 247        0.63158
     246 -> 248        0.26016

 Excited State   4:      Singlet-A      2.1767 eV  569.60 nm  f=0.0016  <S**2>=0.000
     243 -> 247        0.68884
     245 -> 247       -0.10218
     246 -> 248       -0.10529

 Excited State   5:      Singlet-A      2.2310 eV  555.75 nm  f=0.0000  <S**2>=0.000
     242 -> 247        0.70701

 The electronic state is 1-A.
 Alpha  occ. eigenvalues --  -46.27339 -18.82316 -18.82269 -18.77510 -18.76071
 Alpha  occ. eigenvalues --  -18.75956 -18.75124 -14.03614 -14.02704 -14.00680
 Alpha  occ. eigenvalues --  -14.00670 -10.04388 -10.03954  -9.99914  -9.99239
 Alpha  occ. eigenvalues --   -9.98143  -9.97998  -9.97284  -9.96575  -9.96246
 Alpha  occ. eigenvalues --   -9.95954  -9.95686  -9.95635  -9.94874  -9.94644
 Alpha  occ. eigenvalues --   -9.94588  -9.94392  -9.94302  -9.94100  -9.93843
 Alpha  occ. eigenvalues --   -9.93658  -9.93580  -9.93311  -9.93258  -9.93148
 Alpha  occ. eigenvalues --   -9.93141  -9.93005  -9.93001  -9.92572  -9.92493
 Alpha  occ. eigenvalues --   -9.92475  -9.92268  -9.92231  -9.92140  -9.91869
 Alpha  occ. eigenvalues --   -9.91699  -9.91633  -9.91619  -9.91598  -9.91594
 Alpha  occ. eigenvalues --   -9.91565  -9.91550  -9.91468  -9.91390  -9.91282
 Alpha  occ. eigenvalues --   -9.91258  -9.91226  -9.90969  -9.90916  -9.90906
 Alpha  occ. eigenvalues --   -9.90770  -9.90623  -9.90610  -9.90517  -9.90501
 Alpha  occ. eigenvalues --   -9.90426  -2.91812  -1.72258  -1.71670  -1.71533
 Alpha  occ. eigenvalues --   -0.98322  -0.96994  -0.91960  -0.90965  -0.89637
 Alpha  occ. eigenvalues --   -0.88701  -0.86385  -0.85813  -0.85497  -0.84845
 Alpha  occ. eigenvalues --   -0.74527  -0.74030  -0.73156  -0.72586  -0.72377
 Alpha  occ. eigenvalues --   -0.72114  -0.71608  -0.70810  -0.70693  -0.70479
 Alpha  occ. eigenvalues --   -0.69217  -0.68844  -0.68151  -0.67468  -0.67100
 Alpha  occ. eigenvalues --   -0.66640  -0.66332  -0.65492  -0.64971  -0.64272
 Alpha  occ. eigenvalues --   -0.64012  -0.62581  -0.62139  -0.61886  -0.60727
 Alpha  occ. eigenvalues --   -0.60508  -0.59723  -0.59621  -0.59162  -0.58954
 Alpha  occ. eigenvalues --   -0.58266  -0.57136  -0.56889  -0.56029  -0.54753
 Alpha  occ. eigenvalues --   -0.54129  -0.53417  -0.52682  -0.52497  -0.51847
 Alpha  occ. eigenvalues --   -0.51339  -0.50852  -0.50206  -0.49767  -0.49577
 Alpha  occ. eigenvalues --   -0.49557  -0.49013  -0.48796  -0.48359  -0.46259
 Alpha  occ. eigenvalues --   -0.46243  -0.45580  -0.45437  -0.45031  -0.43943
 Alpha  occ. eigenvalues --   -0.43755  -0.43401  -0.42584  -0.42488  -0.42269
 Alpha  occ. eigenvalues --   -0.42114  -0.41580  -0.41509  -0.41287  -0.41139
 Alpha  occ. eigenvalues --   -0.41035  -0.40909  -0.40662  -0.40532  -0.40140
 Alpha  occ. eigenvalues --   -0.40006  -0.39798  -0.39562  -0.39492  -0.39151
 Alpha  occ. eigenvalues --   -0.38983  -0.38781  -0.38688  -0.38560  -0.38355
 Alpha  occ. eigenvalues --   -0.38172  -0.37961  -0.37731  -0.37459  -0.37409
 Alpha  occ. eigenvalues --   -0.37193  -0.37069  -0.36972  -0.36849  -0.36664
 Alpha  occ. eigenvalues --   -0.36626  -0.36409  -0.35858  -0.35728  -0.35603
 Alpha  occ. eigenvalues --   -0.35464  -0.35356  -0.35159  -0.34915  -0.34858
 Alpha  occ. eigenvalues --   -0.34771  -0.34477  -0.34364  -0.34171  -0.33873
 Alpha  occ. eigenvalues --   -0.33641  -0.33627  -0.33383  -0.32946  -0.32876
 Alpha  occ. eigenvalues --   -0.32731  -0.32655  -0.32509  -0.32193  -0.31975
 Alpha  occ. eigenvalues --   -0.31896  -0.31768  -0.31574  -0.31359  -0.31285
 Alpha  occ. eigenvalues --   -0.31207  -0.31013  -0.30869  -0.30721  -0.30621
 Alpha  occ. eigenvalues --   -0.30512  -0.30291  -0.30192  -0.29952  -0.29772
 Alpha  occ. eigenvalues --   -0.29689  -0.29353  -0.29311  -0.29066  -0.28725
 Alpha  occ. eigenvalues --   -0.28626  -0.28551  -0.28256  -0.28118  -0.27949
 Alpha  occ. eigenvalues --   -0.27784  -0.27534  -0.27192  -0.26727  -0.26417
 Alpha  occ. eigenvalues --   -0.26245  -0.25694  -0.25657  -0.25550  -0.25198
 Alpha  occ. eigenvalues --   -0.24789  -0.24728  -0.23841  -0.23774  -0.23501
 Alpha  occ. eigenvalues --   -0.22744  -0.22572  -0.21887  -0.20991  -0.20229
 Alpha  occ. eigenvalues --   -0.19882  -0.19451  -0.19081  -0.18053  -0.17136
 Alpha  occ. eigenvalues --   -0.15405
 Alpha virt. eigenvalues --   -0.11252  -0.06742  -0.06019  -0.04561  -0.03487
 Alpha virt. eigenvalues --   -0.02299  -0.02253  -0.01464  -0.01204  -0.00049
 Alpha virt. eigenvalues --    0.01250   0.01666   0.02194   0.02636   0.02710

 Mulliken charges:
               1
     1  Mg   0.674604
     2  C   -0.031950
     3  C   -0.073741
     4  C   -0.053317
     5  C   -0.070799
     6  N   -0.233676
     7  C   -0.088346
     8  C    0.060154
     9  C    0.020787
    10  C    0.010886
    11  C    0.104049
    12  C    0.114661
    13  C    0.132263
    14  C    0.081783
    15  O   -0.162313
    16  O   -0.283707
    17  N   -0.280450
    18  C    0.172647
    19  C   -0.178599
    20  C    0.008056
    21  C    0.085925
    22  C    0.180229
    23  C   -0.089573
    24  O   -0.161574
    25  C    0.153153
    26  N   -0.203015
    27  C    0.029285
    28  C    0.007097
    29  C    0.055360
    30  C   -0.026533
    31  C    0.154232
    32  C    0.090559
    33  C    0.065381
    34  N   -0.223702
    35  C    0.121536
    36  C   -0.227402
    37  C    0.059349
    38  C    0.112838
    39  C    0.187810
    40  C   -0.011122
    41  O   -0.143873
    42  C    0.045897
    43  C    0.112107
    44  O   -0.183110
    45  O   -0.287892
    46  C    0.216427
    47  C    0.340109
    48  C   -0.136995
    49  C   -0.147519
    50  C    0.149118
    51  C    0.098538
    52  C    0.076800
    53  C    0.187760
    54  C   -0.095884
    55  C    0.112198
    56  C    0.036739
    57  C    0.143102
    58  C    0.064344
    59  C   -0.081385
    60  C    0.116583
    61  C    0.086676
    62  C    0.103378
    63  C    0.099676
    64  C   -0.079489
    65  C    0.068993
    66  C    0.092258
    67  H   -0.072932
    68  H   -0.041999
    69  H   -0.054344
    70  H   -0.024576
    71  H   -0.023221
    72  H   -0.000339
    73  H   -0.008383
    74  H    0.007175
    75  H   -0.028829
    76  H   -0.013519
    77  H   -0.018642
    78  H   -0.010494
    79  H    0.006833
    80  H   -0.000953
    81  H   -0.003884
    82  H   -0.001257
    83  H    0.011196
    84  H    0.017462
    85  H   -0.026890
    86  H   -0.027334
    87  H   -0.008186
    88  H   -0.004932
    89  H   -0.004388
    90  H   -0.019256
    91  H   -0.022513
    92  H   -0.004859
    93  H   -0.008897
    94  H   -0.006732
    95  H    0.024046
    96  H   -0.024964
    97  H    0.012698
    98  H    0.003100
    99  H    0.030388
   100  H    0.023284
   101  H    0.035902
   102  H    0.001268
   103  H    0.010534
   104  H   -0.037617
   105  H   -0.003482
   106  H   -0.027827
   107  H    0.005354
   108  H   -0.033522
   109  H   -0.023933
   110  H   -0.033494
   111  H   -0.034623
   112  H   -0.048410
   113  H   -0.021086
   114  H   -0.036902
   115  H    0.000453
   116  H   -0.007872
   117  H   -0.025083
   118  H   -0.048096
   119  H   -0.038414
   120  H   -0.049597
   121  H   -0.027378
   122  H   -0.037230
   123  H   -0.041183
   124  H   -0.036753
   125  H   -0.016047
   126  H   -0.024161
   127  H   -0.021822
   128  H   -0.048556
   129  H   -0.040456
   130  H   -0.021840
   131  H   -0.031876
   132  H   -0.044017
   133  H   -0.019457
   134  H   -0.030162
   135  H   -0.019522
   136  H   -0.013823
   137  H   -0.015426
   138  H   -0.013057
   139  H   -0.023465
   140  H   -0.008560
 Sum of Mulliken charges =  -0.00000

 Dipole moment (field-independent basis, Debye):
    X=             -3.3214    Y=              5.1604    Z=              0.4618  Tot=              6.1543
 Quadrupole moment (field-independent basis, Debye-Ang):
   XX=           -389.1164   YY=           -433.1241   ZZ=           -402.3350
   XY=              9.8287   XZ=              6.5805   YZ=            -11.4418

 Normal termination of Gaussian 16 at Sat Apr 30 02:48:26 2022.
