 Gaussian 16, Revision A.03,
 Gaussian 16:  ES64L-G16RevA.03 25-Dec-2016

 -----------------------------------
 #p cam-b3lyp/Def2SVP td=(nstates=5)
 -----------------------------------

 -------------------------------------------------------
 step_551_chromophore_10 TDDFT with cam-b3lyp functional
 -------------------------------------------------------
 Symbolic Z-matrix:
 Charge =  0 Multiplicity = 1

                         Standard orientation:
 ---------------------------------------------------------------------
 Center     Atomic      Atomic             Coordinates (Angstroms)
 Number     Number       Type             X           Y           Z
 ---------------------------------------------------------------------
      1         12           0        5.870569    0.520768    0.066824
      2          6           0        3.423796   -2.070947   -0.086979
      3          6           0        3.702128    2.735297   -1.199456
      4          6           0        8.425860    2.834257   -0.089114
      5          6           0        8.289369   -2.009422    0.858339
      6          7           0        3.779806    0.374846   -0.479901
      7          6           0        2.960288   -0.728692   -0.415806
      8          6           0        1.502610   -0.281813   -0.736538
      9          6           0        1.662344    1.179310   -1.135570
     10          6           0        3.141367    1.487657   -0.945929
     11          6           0        1.030038    1.493930   -2.590451
     12          6           0        0.456544   -0.602256    0.405121
     13          6           0       -1.005266   -0.678330   -0.167384
     14          6           0       -1.870193   -1.897356    0.087759
     15          8           0       -2.213522   -2.645974   -0.785892
     16          8           0       -2.227447   -2.029414    1.422000
     17          7           0        6.065398    2.549683   -0.420221
     18          6           0        5.014348    3.223009   -0.981297
     19          6           0        5.426873    4.619167   -1.068997
     20          6           0        6.730535    4.705585   -0.507043
     21          6           0        7.139693    3.352454   -0.318311
     22          6           0        4.632200    5.740347   -1.628137
     23          6           0        7.646592    5.861617   -0.120287
     24          8           0        8.784161    5.616940    0.259892
     25          6           0        7.000839    7.194857   -0.094312
     26          7           0        8.085434    0.394455    0.231814
     27          6           0        8.822334    1.516909    0.245291
     28          6           0       10.244448    1.158158    0.628399
     29          6           0       10.273902   -0.339445    0.935573
     30          6           0        8.799807   -0.699385    0.720537
     31          6           0       11.379702    1.629098   -0.273374
     32          6           0       10.873208   -0.861810    2.275768
     33          6           0       10.225882   -0.414871    3.559079
     34          7           0        5.888635   -1.600980    0.274620
     35          6           0        6.954803   -2.419548    0.509054
     36          6           0        6.441973   -3.803187    0.473299
     37          6           0        5.034009   -3.695085    0.334666
     38          6           0        4.759503   -2.317401    0.170415
     39          6           0        7.225769   -5.066871    0.787612
     40          6           0        3.785316   -4.478408    0.300340
     41          8           0        3.617877   -5.678099    0.568836
     42          6           0        2.649742   -3.451711   -0.095185
     43          6           0        2.052388   -3.870909   -1.447567
     44          8           0        2.663006   -4.546288   -2.277799
     45          8           0        0.807123   -3.363234   -1.601656
     46          6           0        0.064944   -3.517429   -2.913470
     47          6           0       -3.422756   -2.854338    1.609936
     48          6           0       -4.667687   -2.416112    0.840597
     49          6           0       -5.745865   -3.103060    0.431350
     50          6           0       -6.189238   -4.449140    0.901068
     51          6           0       -6.709128   -2.490938   -0.552793
     52          6           0       -7.872978   -1.663022    0.059178
     53          6           0       -8.359141   -0.738897   -1.048429
     54          6           0       -9.697846   -0.081405   -0.676738
     55          6           0      -10.886573   -0.473481   -1.571828
     56          6           0       -9.521642    1.448317   -0.806783
     57          6           0      -10.748854    2.353195   -0.416819
     58          6           0      -10.446768    3.040219    0.894186
     59          6           0      -11.729709    3.317187    1.771807
     60          6           0      -11.315057    4.243082    2.978642
     61          6           0      -12.357386    2.045216    2.251662
     62          6           0      -13.884187    1.896285    1.941283
     63          6           0      -14.132237    0.777659    0.877050
     64          6           0      -15.069698    1.090427   -0.272414
     65          6           0      -15.920577   -0.238980   -0.635779
     66          6           0      -14.220531    1.467895   -1.512175
     67          1           0        2.973971    3.482775   -1.519096
     68          1           0        9.266049    3.523465   -0.195214
     69          1           0        9.005217   -2.792471    1.115392
     70          1           0        1.208514   -0.897791   -1.586786
     71          1           0        1.264548    1.911214   -0.432400
     72          1           0        0.347506    0.721903   -2.944889
     73          1           0        1.905550    1.324960   -3.216975
     74          1           0        0.650115    2.511910   -2.677610
     75          1           0        0.460692    0.150477    1.193972
     76          1           0        0.666663   -1.527569    0.943409
     77          1           0       -0.902110   -0.520921   -1.241412
     78          1           0       -1.477522    0.224696    0.218538
     79          1           0        4.082204    6.160101   -0.786484
     80          1           0        3.974057    5.276382   -2.362871
     81          1           0        5.223551    6.495487   -2.146709
     82          1           0        7.716013    7.758978    0.504950
     83          1           0        6.037161    7.129432    0.409616
     84          1           0        6.898988    7.450556   -1.148893
     85          1           0       10.413531    1.628733    1.597443
     86          1           0       10.741139   -0.874108    0.107808
     87          1           0       10.862534    2.083625   -1.118288
     88          1           0       12.044691    0.838294   -0.621227
     89          1           0       11.872452    2.412217    0.301564
     90          1           0       11.938866   -0.634570    2.307457
     91          1           0       10.696358   -1.936430    2.310826
     92          1           0        9.346069    0.172501    3.295713
     93          1           0       10.917927    0.219657    4.113510
     94          1           0        9.901716   -1.259425    4.166117
     95          1           0        7.091099   -5.275017    1.848582
     96          1           0        8.255196   -4.804961    0.542977
     97          1           0        6.969393   -5.838741    0.062024
     98          1           0        1.800230   -3.558663    0.579288
     99          1           0       -0.510970   -4.431521   -2.772657
    100          1           0        0.780778   -3.691971   -3.717128
    101          1           0       -0.554964   -2.631158   -3.048048
    102          1           0       -3.718241   -2.709948    2.649417
    103          1           0       -3.229189   -3.881640    1.302164
    104          1           0       -4.517243   -1.408080    0.453160
    105          1           0       -7.171460   -4.393032    1.371620
    106          1           0       -5.538196   -4.802335    1.700997
    107          1           0       -6.185387   -5.167292    0.081003
    108          1           0       -7.153710   -3.313710   -1.113118
    109          1           0       -6.097201   -1.874560   -1.212356
    110          1           0       -7.487168   -1.243955    0.987870
    111          1           0       -8.563804   -2.429802    0.409544
    112          1           0       -8.638510   -1.463044   -1.812900
    113          1           0       -7.697221    0.002290   -1.494562
    114          1           0      -10.103677   -0.262594    0.318752
    115          1           0      -11.011964    0.312389   -2.317215
    116          1           0      -11.700679   -0.579632   -0.854427
    117          1           0      -10.788069   -1.442699   -2.061411
    118          1           0       -9.229912    1.643300   -1.838338
    119          1           0       -8.609487    1.753070   -0.294543
    120          1           0      -11.603575    1.682710   -0.326572
    121          1           0      -11.003499    3.034641   -1.229320
    122          1           0       -9.755066    3.879142    0.821130
    123          1           0       -9.874234    2.423851    1.586968
    124          1           0      -12.394550    3.932419    1.166083
    125          1           0      -10.232371    4.322044    3.081448
    126          1           0      -11.838288    3.766061    3.807539
    127          1           0      -11.699185    5.257984    2.875302
    128          1           0      -12.311838    1.879579    3.328219
    129          1           0      -11.706307    1.226380    1.944831
    130          1           0      -14.305832    2.826717    1.561871
    131          1           0      -14.267149    1.559316    2.904161
    132          1           0      -14.621471    0.001688    1.464135
    133          1           0      -13.170993    0.431439    0.497908
    134          1           0      -15.761722    1.916902   -0.109347
    135          1           0      -15.426660   -0.846958   -1.394240
    136          1           0      -16.868281    0.121067   -1.036264
    137          1           0      -16.098214   -0.973486    0.150046
    138          1           0      -13.651046    2.381058   -1.340475
    139          1           0      -14.955461    1.663465   -2.293320
    140          1           0      -13.510704    0.685219   -1.781640
 ---------------------------------------------------------------------

 SCF Done:  E(RCAM-B3LYP) =  -3007.17964661     A.U. after   18 cycles

 Excitation energies and oscillator strengths:

 Excited State   1:      Singlet-A      1.6612 eV  746.35 nm  f=0.3733  <S**2>=0.000
     245 -> 248        0.18527
     246 -> 247        0.68582
     245 <- 248        0.11315
 This state for optimization and/or second-order correction.
 Total Energy, E(TD-HF/TD-DFT) =  -3007.11859854
 Copying the excited state density for this state as the 1-particle RhoCI density.

 Excited State   2:      Singlet-A      2.2438 eV  552.57 nm  f=0.0748  <S**2>=0.000
     245 -> 247        0.62191
     246 -> 248       -0.32744

 Excited State   3:      Singlet-A      3.3626 eV  368.72 nm  f=0.0791  <S**2>=0.000
     242 -> 247       -0.36639
     243 -> 247        0.53233
     245 -> 247       -0.10894
     246 -> 248       -0.23616

 Excited State   4:      Singlet-A      3.4301 eV  361.46 nm  f=0.2039  <S**2>=0.000
     242 -> 247        0.33124
     243 -> 247        0.42664
     245 -> 247        0.15724
     246 -> 248        0.39488

 Excited State   5:      Singlet-A      3.4748 eV  356.81 nm  f=0.0276  <S**2>=0.000
     241 -> 247        0.54719
     241 -> 249       -0.30766
     241 -> 250        0.24128
     246 -> 248       -0.11658

 The electronic state is 1-A.
 Alpha  occ. eigenvalues --  -46.88937 -19.25232 -19.25186 -19.20562 -19.19220
 Alpha  occ. eigenvalues --  -19.19068 -19.18372 -14.42558 -14.41512 -14.39091
 Alpha  occ. eigenvalues --  -14.39067 -10.39668 -10.39342 -10.35169 -10.34633
 Alpha  occ. eigenvalues --  -10.32191 -10.32122 -10.31942 -10.31033 -10.30699
 Alpha  occ. eigenvalues --  -10.30362 -10.30012 -10.29943 -10.29196 -10.29168
 Alpha  occ. eigenvalues --  -10.29004 -10.28386 -10.28379 -10.28370 -10.28280
 Alpha  occ. eigenvalues --  -10.27828 -10.27583 -10.27458 -10.27311 -10.27172
 Alpha  occ. eigenvalues --  -10.27120 -10.27095 -10.26995 -10.26563 -10.26384
 Alpha  occ. eigenvalues --  -10.26356 -10.26176 -10.26016 -10.25919 -10.25801
 Alpha  occ. eigenvalues --  -10.25621 -10.25601 -10.25533 -10.25409 -10.25274
 Alpha  occ. eigenvalues --  -10.25259 -10.25215 -10.25194 -10.24968 -10.24964
 Alpha  occ. eigenvalues --  -10.24930 -10.24924 -10.24651 -10.24609 -10.24584
 Alpha  occ. eigenvalues --  -10.24567 -10.24393 -10.24276 -10.24240 -10.24174
 Alpha  occ. eigenvalues --  -10.24136  -3.17306  -1.92231  -1.91735  -1.91614
 Alpha  occ. eigenvalues --   -1.16853  -1.15448  -1.10426  -1.08859  -1.07988
 Alpha  occ. eigenvalues --   -1.06610  -1.04120  -1.03431  -1.03137  -1.02372
 Alpha  occ. eigenvalues --   -0.91643  -0.90951  -0.90017  -0.89358  -0.89050
 Alpha  occ. eigenvalues --   -0.88843  -0.88298  -0.87421  -0.87401  -0.87005
 Alpha  occ. eigenvalues --   -0.85669  -0.85247  -0.84441  -0.83626  -0.83329
 Alpha  occ. eigenvalues --   -0.82821  -0.82380  -0.81387  -0.80769  -0.80117
 Alpha  occ. eigenvalues --   -0.79814  -0.78323  -0.77767  -0.77438  -0.76205
 Alpha  occ. eigenvalues --   -0.75888  -0.74975  -0.74942  -0.74392  -0.74214
 Alpha  occ. eigenvalues --   -0.73344  -0.72067  -0.71841  -0.70887  -0.69379
 Alpha  occ. eigenvalues --   -0.68725  -0.68026  -0.67100  -0.66913  -0.66140
 Alpha  occ. eigenvalues --   -0.65565  -0.64883  -0.64176  -0.63619  -0.63561
 Alpha  occ. eigenvalues --   -0.63479  -0.62949  -0.62648  -0.62064  -0.59897
 Alpha  occ. eigenvalues --   -0.59833  -0.59205  -0.58833  -0.58422  -0.57344
 Alpha  occ. eigenvalues --   -0.57268  -0.56903  -0.55793  -0.55464  -0.55339
 Alpha  occ. eigenvalues --   -0.55283  -0.54767  -0.54622  -0.54373  -0.54007
 Alpha  occ. eigenvalues --   -0.53916  -0.53662  -0.53529  -0.53282  -0.52922
 Alpha  occ. eigenvalues --   -0.52508  -0.52469  -0.52261  -0.52031  -0.51865
 Alpha  occ. eigenvalues --   -0.51511  -0.51336  -0.51205  -0.51136  -0.50866
 Alpha  occ. eigenvalues --   -0.50563  -0.50282  -0.49967  -0.49854  -0.49682
 Alpha  occ. eigenvalues --   -0.49527  -0.49374  -0.49290  -0.49062  -0.49020
 Alpha  occ. eigenvalues --   -0.48932  -0.48822  -0.48311  -0.47871  -0.47774
 Alpha  occ. eigenvalues --   -0.47627  -0.47448  -0.47246  -0.47022  -0.46880
 Alpha  occ. eigenvalues --   -0.46835  -0.46500  -0.46183  -0.45979  -0.45641
 Alpha  occ. eigenvalues --   -0.45455  -0.45304  -0.45170  -0.44644  -0.44540
 Alpha  occ. eigenvalues --   -0.44475  -0.44330  -0.44253  -0.44074  -0.43857
 Alpha  occ. eigenvalues --   -0.43635  -0.43343  -0.43127  -0.42897  -0.42744
 Alpha  occ. eigenvalues --   -0.42678  -0.42386  -0.42287  -0.42224  -0.42204
 Alpha  occ. eigenvalues --   -0.42032  -0.41742  -0.41521  -0.41398  -0.41102
 Alpha  occ. eigenvalues --   -0.41004  -0.40844  -0.40501  -0.40447  -0.39937
 Alpha  occ. eigenvalues --   -0.39777  -0.39650  -0.39366  -0.39093  -0.38870
 Alpha  occ. eigenvalues --   -0.38632  -0.38348  -0.38082  -0.37511  -0.37159
 Alpha  occ. eigenvalues --   -0.37099  -0.36888  -0.36694  -0.36446  -0.36366
 Alpha  occ. eigenvalues --   -0.35833  -0.35586  -0.34678  -0.34231  -0.34018
 Alpha  occ. eigenvalues --   -0.33895  -0.33642  -0.32741  -0.31582  -0.30375
 Alpha  occ. eigenvalues --   -0.30194  -0.29576  -0.29197  -0.29167  -0.23940
 Alpha  occ. eigenvalues --   -0.20629
 Alpha virt. eigenvalues --   -0.08336  -0.01699   0.00528   0.02452   0.02745
 Alpha virt. eigenvalues --    0.04255   0.05569   0.05807   0.06011   0.06711
 Alpha virt. eigenvalues --    0.07916   0.08297   0.08556   0.08871   0.09034

 Mulliken charges:
               1
     1  Mg   0.805764
     2  C   -0.059254
     3  C   -0.086199
     4  C   -0.068244
     5  C   -0.079330
     6  N   -0.308174
     7  C   -0.040035
     8  C    0.007758
     9  C   -0.036639
    10  C    0.032630
    11  C    0.047828
    12  C    0.066087
    13  C    0.068191
    14  C    0.157696
    15  O   -0.200840
    16  O   -0.346835
    17  N   -0.369482
    18  C    0.179753
    19  C   -0.181867
    20  C   -0.057622
    21  C    0.106804
    22  C    0.117807
    23  C   -0.002200
    24  O   -0.203433
    25  C    0.065726
    26  N   -0.273779
    27  C    0.052667
    28  C   -0.051972
    29  C   -0.000244
    30  C   -0.004016
    31  C    0.090269
    32  C    0.037444
    33  C    0.002164
    34  N   -0.314329
    35  C    0.128550
    36  C   -0.223788
    37  C   -0.016105
    38  C    0.143694
    39  C    0.135995
    40  C    0.088854
    41  O   -0.181236
    42  C   -0.020090
    43  C    0.202883
    44  O   -0.224073
    45  O   -0.354895
    46  C    0.181408
    47  C    0.307280
    48  C   -0.159521
    49  C   -0.168051
    50  C    0.087176
    51  C    0.040279
    52  C    0.028466
    53  C    0.120263
    54  C   -0.141443
    55  C    0.052663
    56  C   -0.013818
    57  C    0.090574
    58  C    0.015148
    59  C   -0.136118
    60  C    0.062024
    61  C    0.027657
    62  C    0.049053
    63  C    0.050778
    64  C   -0.139563
    65  C    0.012141
    66  C    0.039141
    67  H   -0.037210
    68  H   -0.001703
    69  H   -0.019809
    70  H    0.009291
    71  H    0.011229
    72  H    0.021692
    73  H    0.017625
    74  H    0.030300
    75  H    0.003253
    76  H    0.015745
    77  H    0.009120
    78  H    0.021829
    79  H    0.033923
    80  H    0.025411
    81  H    0.022536
    82  H    0.034121
    83  H    0.039528
    84  H    0.043594
    85  H    0.008201
    86  H    0.008766
    87  H    0.017080
    88  H    0.020403
    89  H    0.020066
    90  H    0.009378
    91  H    0.004822
    92  H    0.016361
    93  H    0.015098
    94  H    0.018265
    95  H    0.049198
    96  H   -0.001022
    97  H    0.040065
    98  H    0.044204
    99  H    0.054004
   100  H    0.049770
   101  H    0.054511
   102  H    0.031018
   103  H    0.039702
   104  H   -0.006387
   105  H    0.020171
   106  H   -0.002470
   107  H    0.030667
   108  H   -0.004778
   109  H    0.005632
   110  H   -0.005002
   111  H   -0.006623
   112  H   -0.017767
   113  H    0.008378
   114  H   -0.007342
   115  H    0.022605
   116  H    0.010740
   117  H    0.001747
   118  H   -0.018667
   119  H   -0.009374
   120  H   -0.031314
   121  H    0.002465
   122  H   -0.007067
   123  H   -0.013257
   124  H   -0.006138
   125  H    0.007150
   126  H   -0.000127
   127  H    0.003103
   128  H   -0.016589
   129  H   -0.012617
   130  H    0.005126
   131  H   -0.001300
   132  H   -0.012822
   133  H   -0.002974
   134  H    0.001169
   135  H    0.004053
   136  H    0.010156
   137  H    0.008720
   138  H    0.008013
   139  H    0.002690
   140  H    0.010243
 Sum of Mulliken charges =  -0.00000

 Dipole moment (field-independent basis, Debye):
    X=             -3.5054    Y=              5.7279    Z=              0.4302  Tot=              6.7292
 Quadrupole moment (field-independent basis, Debye-Ang):
   XX=           -389.1313   YY=           -429.4102   ZZ=           -402.1593
   XY=             12.5334   XZ=              7.0380   YZ=            -12.3299

 Normal termination of Gaussian 16 at Sat Apr 30 01:49:09 2022.
