 Gaussian 16, Revision A.03,
 Gaussian 16:  ES64L-G16RevA.03 25-Dec-2016

 ---------------------------------
 #p PBE1PBE/Def2SVP td=(nstates=5)
 ---------------------------------

 -----------------------------------------------------
 step_551_chromophore_10 TDDFT with PBE1PBE functional
 -----------------------------------------------------
 Symbolic Z-matrix:
 Charge =  0 Multiplicity = 1

                         Standard orientation:
 ---------------------------------------------------------------------
 Center     Atomic      Atomic             Coordinates (Angstroms)
 Number     Number       Type             X           Y           Z
 ---------------------------------------------------------------------
      1         12           0        5.870569    0.520768    0.066824
      2          6           0        3.423796   -2.070947   -0.086979
      3          6           0        3.702128    2.735297   -1.199456
      4          6           0        8.425860    2.834257   -0.089114
      5          6           0        8.289369   -2.009422    0.858339
      6          7           0        3.779806    0.374846   -0.479901
      7          6           0        2.960288   -0.728692   -0.415806
      8          6           0        1.502610   -0.281813   -0.736538
      9          6           0        1.662344    1.179310   -1.135570
     10          6           0        3.141367    1.487657   -0.945929
     11          6           0        1.030038    1.493930   -2.590451
     12          6           0        0.456544   -0.602256    0.405121
     13          6           0       -1.005266   -0.678330   -0.167384
     14          6           0       -1.870193   -1.897356    0.087759
     15          8           0       -2.213522   -2.645974   -0.785892
     16          8           0       -2.227447   -2.029414    1.422000
     17          7           0        6.065398    2.549683   -0.420221
     18          6           0        5.014348    3.223009   -0.981297
     19          6           0        5.426873    4.619167   -1.068997
     20          6           0        6.730535    4.705585   -0.507043
     21          6           0        7.139693    3.352454   -0.318311
     22          6           0        4.632200    5.740347   -1.628137
     23          6           0        7.646592    5.861617   -0.120287
     24          8           0        8.784161    5.616940    0.259892
     25          6           0        7.000839    7.194857   -0.094312
     26          7           0        8.085434    0.394455    0.231814
     27          6           0        8.822334    1.516909    0.245291
     28          6           0       10.244448    1.158158    0.628399
     29          6           0       10.273902   -0.339445    0.935573
     30          6           0        8.799807   -0.699385    0.720537
     31          6           0       11.379702    1.629098   -0.273374
     32          6           0       10.873208   -0.861810    2.275768
     33          6           0       10.225882   -0.414871    3.559079
     34          7           0        5.888635   -1.600980    0.274620
     35          6           0        6.954803   -2.419548    0.509054
     36          6           0        6.441973   -3.803187    0.473299
     37          6           0        5.034009   -3.695085    0.334666
     38          6           0        4.759503   -2.317401    0.170415
     39          6           0        7.225769   -5.066871    0.787612
     40          6           0        3.785316   -4.478408    0.300340
     41          8           0        3.617877   -5.678099    0.568836
     42          6           0        2.649742   -3.451711   -0.095185
     43          6           0        2.052388   -3.870909   -1.447567
     44          8           0        2.663006   -4.546288   -2.277799
     45          8           0        0.807123   -3.363234   -1.601656
     46          6           0        0.064944   -3.517429   -2.913470
     47          6           0       -3.422756   -2.854338    1.609936
     48          6           0       -4.667687   -2.416112    0.840597
     49          6           0       -5.745865   -3.103060    0.431350
     50          6           0       -6.189238   -4.449140    0.901068
     51          6           0       -6.709128   -2.490938   -0.552793
     52          6           0       -7.872978   -1.663022    0.059178
     53          6           0       -8.359141   -0.738897   -1.048429
     54          6           0       -9.697846   -0.081405   -0.676738
     55          6           0      -10.886573   -0.473481   -1.571828
     56          6           0       -9.521642    1.448317   -0.806783
     57          6           0      -10.748854    2.353195   -0.416819
     58          6           0      -10.446768    3.040219    0.894186
     59          6           0      -11.729709    3.317187    1.771807
     60          6           0      -11.315057    4.243082    2.978642
     61          6           0      -12.357386    2.045216    2.251662
     62          6           0      -13.884187    1.896285    1.941283
     63          6           0      -14.132237    0.777659    0.877050
     64          6           0      -15.069698    1.090427   -0.272414
     65          6           0      -15.920577   -0.238980   -0.635779
     66          6           0      -14.220531    1.467895   -1.512175
     67          1           0        2.973971    3.482775   -1.519096
     68          1           0        9.266049    3.523465   -0.195214
     69          1           0        9.005217   -2.792471    1.115392
     70          1           0        1.208514   -0.897791   -1.586786
     71          1           0        1.264548    1.911214   -0.432400
     72          1           0        0.347506    0.721903   -2.944889
     73          1           0        1.905550    1.324960   -3.216975
     74          1           0        0.650115    2.511910   -2.677610
     75          1           0        0.460692    0.150477    1.193972
     76          1           0        0.666663   -1.527569    0.943409
     77          1           0       -0.902110   -0.520921   -1.241412
     78          1           0       -1.477522    0.224696    0.218538
     79          1           0        4.082204    6.160101   -0.786484
     80          1           0        3.974057    5.276382   -2.362871
     81          1           0        5.223551    6.495487   -2.146709
     82          1           0        7.716013    7.758978    0.504950
     83          1           0        6.037161    7.129432    0.409616
     84          1           0        6.898988    7.450556   -1.148893
     85          1           0       10.413531    1.628733    1.597443
     86          1           0       10.741139   -0.874108    0.107808
     87          1           0       10.862534    2.083625   -1.118288
     88          1           0       12.044691    0.838294   -0.621227
     89          1           0       11.872452    2.412217    0.301564
     90          1           0       11.938866   -0.634570    2.307457
     91          1           0       10.696358   -1.936430    2.310826
     92          1           0        9.346069    0.172501    3.295713
     93          1           0       10.917927    0.219657    4.113510
     94          1           0        9.901716   -1.259425    4.166117
     95          1           0        7.091099   -5.275017    1.848582
     96          1           0        8.255196   -4.804961    0.542977
     97          1           0        6.969393   -5.838741    0.062024
     98          1           0        1.800230   -3.558663    0.579288
     99          1           0       -0.510970   -4.431521   -2.772657
    100          1           0        0.780778   -3.691971   -3.717128
    101          1           0       -0.554964   -2.631158   -3.048048
    102          1           0       -3.718241   -2.709948    2.649417
    103          1           0       -3.229189   -3.881640    1.302164
    104          1           0       -4.517243   -1.408080    0.453160
    105          1           0       -7.171460   -4.393032    1.371620
    106          1           0       -5.538196   -4.802335    1.700997
    107          1           0       -6.185387   -5.167292    0.081003
    108          1           0       -7.153710   -3.313710   -1.113118
    109          1           0       -6.097201   -1.874560   -1.212356
    110          1           0       -7.487168   -1.243955    0.987870
    111          1           0       -8.563804   -2.429802    0.409544
    112          1           0       -8.638510   -1.463044   -1.812900
    113          1           0       -7.697221    0.002290   -1.494562
    114          1           0      -10.103677   -0.262594    0.318752
    115          1           0      -11.011964    0.312389   -2.317215
    116          1           0      -11.700679   -0.579632   -0.854427
    117          1           0      -10.788069   -1.442699   -2.061411
    118          1           0       -9.229912    1.643300   -1.838338
    119          1           0       -8.609487    1.753070   -0.294543
    120          1           0      -11.603575    1.682710   -0.326572
    121          1           0      -11.003499    3.034641   -1.229320
    122          1           0       -9.755066    3.879142    0.821130
    123          1           0       -9.874234    2.423851    1.586968
    124          1           0      -12.394550    3.932419    1.166083
    125          1           0      -10.232371    4.322044    3.081448
    126          1           0      -11.838288    3.766061    3.807539
    127          1           0      -11.699185    5.257984    2.875302
    128          1           0      -12.311838    1.879579    3.328219
    129          1           0      -11.706307    1.226380    1.944831
    130          1           0      -14.305832    2.826717    1.561871
    131          1           0      -14.267149    1.559316    2.904161
    132          1           0      -14.621471    0.001688    1.464135
    133          1           0      -13.170993    0.431439    0.497908
    134          1           0      -15.761722    1.916902   -0.109347
    135          1           0      -15.426660   -0.846958   -1.394240
    136          1           0      -16.868281    0.121067   -1.036264
    137          1           0      -16.098214   -0.973486    0.150046
    138          1           0      -13.651046    2.381058   -1.340475
    139          1           0      -14.955461    1.663465   -2.293320
    140          1           0      -13.510704    0.685219   -1.781640
 ---------------------------------------------------------------------

 SCF Done:  E(RPBE1PBE) =  -3005.36752541     A.U. after   15 cycles

 Excitation energies and oscillator strengths:

 Excited State   1:      Singlet-A      1.8208 eV  680.92 nm  f=0.3629  <S**2>=0.000
     245 -> 248        0.17841
     246 -> 247        0.69353
     246 <- 247       -0.11013
 This state for optimization and/or second-order correction.
 Total Energy, E(TD-HF/TD-DFT) =  -3005.30061071
 Copying the excited state density for this state as the 1-particle RhoCI density.

 Excited State   2:      Singlet-A      2.2555 eV  549.70 nm  f=0.0770  <S**2>=0.000
     245 -> 247        0.63601
     246 -> 248       -0.30054

 Excited State   3:      Singlet-A      2.9703 eV  417.42 nm  f=0.0002  <S**2>=0.000
     241 -> 247       -0.13471
     242 -> 247        0.65012
     242 -> 249       -0.16748
     242 -> 250       -0.10890
     243 -> 247        0.10945

 Excited State   4:      Singlet-A      3.0333 eV  408.74 nm  f=0.0035  <S**2>=0.000
     241 -> 247       -0.15094
     242 -> 247       -0.14310
     243 -> 247        0.66737

 Excited State   5:      Singlet-A      3.1245 eV  396.82 nm  f=0.0058  <S**2>=0.000
     240 -> 247       -0.14746
     241 -> 247        0.63452
     242 -> 247        0.10365
     243 -> 247        0.17081
     246 -> 248        0.15724

 The electronic state is 1-A.
 Alpha  occ. eigenvalues --  -46.92320 -19.25878 -19.25855 -19.20784 -19.19429
 Alpha  occ. eigenvalues --  -19.19324 -19.18616 -14.42076 -14.41061 -14.38749
 Alpha  occ. eigenvalues --  -14.38725 -10.36680 -10.36366 -10.32264 -10.31818
 Alpha  occ. eigenvalues --  -10.29720 -10.29578 -10.29346 -10.28754 -10.28486
 Alpha  occ. eigenvalues --  -10.28073 -10.27716 -10.27690 -10.26846 -10.26830
 Alpha  occ. eigenvalues --  -10.26798 -10.26208 -10.26196 -10.26055 -10.25926
 Alpha  occ. eigenvalues --  -10.25461 -10.25198 -10.25087 -10.24932 -10.24845
 Alpha  occ. eigenvalues --  -10.24786 -10.24631 -10.24573 -10.24160 -10.24002
 Alpha  occ. eigenvalues --  -10.23819 -10.23812 -10.23693 -10.23625 -10.23335
 Alpha  occ. eigenvalues --  -10.23157 -10.23131 -10.23071 -10.22981 -10.22897
 Alpha  occ. eigenvalues --  -10.22847 -10.22837 -10.22713 -10.22525 -10.22520
 Alpha  occ. eigenvalues --  -10.22466 -10.22334 -10.22329 -10.22219 -10.22208
 Alpha  occ. eigenvalues --  -10.21994 -10.21866 -10.21827 -10.21736 -10.21630
 Alpha  occ. eigenvalues --  -10.21543  -3.14275  -1.87140  -1.86621  -1.86504
 Alpha  occ. eigenvalues --   -1.11633  -1.10216  -1.05130  -1.03724  -1.02726
 Alpha  occ. eigenvalues --   -1.01435  -0.98750  -0.98123  -0.97768  -0.97045
 Alpha  occ. eigenvalues --   -0.85991  -0.85056  -0.84106  -0.83562  -0.83342
 Alpha  occ. eigenvalues --   -0.82974  -0.82605  -0.81679  -0.81516  -0.81338
 Alpha  occ. eigenvalues --   -0.79966  -0.79514  -0.78613  -0.77891  -0.77573
 Alpha  occ. eigenvalues --   -0.77059  -0.76562  -0.75664  -0.75035  -0.74442
 Alpha  occ. eigenvalues --   -0.73988  -0.72643  -0.72029  -0.71761  -0.70521
 Alpha  occ. eigenvalues --   -0.70038  -0.69371  -0.69022  -0.68561  -0.68373
 Alpha  occ. eigenvalues --   -0.67641  -0.66507  -0.66293  -0.65228  -0.63708
 Alpha  occ. eigenvalues --   -0.62963  -0.62485  -0.61392  -0.61302  -0.60317
 Alpha  occ. eigenvalues --   -0.60046  -0.59490  -0.58768  -0.58091  -0.57834
 Alpha  occ. eigenvalues --   -0.57666  -0.57170  -0.56957  -0.56632  -0.54428
 Alpha  occ. eigenvalues --   -0.54145  -0.53679  -0.53463  -0.53052  -0.51882
 Alpha  occ. eigenvalues --   -0.51774  -0.51345  -0.50320  -0.49960  -0.49896
 Alpha  occ. eigenvalues --   -0.49796  -0.49344  -0.49077  -0.48817  -0.48409
 Alpha  occ. eigenvalues --   -0.48326  -0.48153  -0.47966  -0.47763  -0.47440
 Alpha  occ. eigenvalues --   -0.47056  -0.47034  -0.46924  -0.46483  -0.46386
 Alpha  occ. eigenvalues --   -0.46230  -0.45917  -0.45730  -0.45658  -0.45373
 Alpha  occ. eigenvalues --   -0.45138  -0.44829  -0.44527  -0.44379  -0.44319
 Alpha  occ. eigenvalues --   -0.44092  -0.43953  -0.43879  -0.43656  -0.43609
 Alpha  occ. eigenvalues --   -0.43535  -0.43423  -0.43016  -0.42509  -0.42465
 Alpha  occ. eigenvalues --   -0.42304  -0.42075  -0.41849  -0.41693  -0.41640
 Alpha  occ. eigenvalues --   -0.41531  -0.41165  -0.40816  -0.40771  -0.40345
 Alpha  occ. eigenvalues --   -0.40160  -0.39941  -0.39930  -0.39405  -0.39303
 Alpha  occ. eigenvalues --   -0.39183  -0.39090  -0.38941  -0.38797  -0.38601
 Alpha  occ. eigenvalues --   -0.38430  -0.38141  -0.37872  -0.37668  -0.37547
 Alpha  occ. eigenvalues --   -0.37428  -0.37132  -0.37089  -0.37012  -0.36918
 Alpha  occ. eigenvalues --   -0.36895  -0.36590  -0.36314  -0.36189  -0.35949
 Alpha  occ. eigenvalues --   -0.35787  -0.35725  -0.35401  -0.35171  -0.34915
 Alpha  occ. eigenvalues --   -0.34664  -0.34394  -0.34190  -0.34021  -0.33665
 Alpha  occ. eigenvalues --   -0.33391  -0.33187  -0.33045  -0.32319  -0.32155
 Alpha  occ. eigenvalues --   -0.32003  -0.31897  -0.31568  -0.31427  -0.31190
 Alpha  occ. eigenvalues --   -0.30880  -0.30514  -0.29479  -0.29210  -0.29202
 Alpha  occ. eigenvalues --   -0.28854  -0.28823  -0.28041  -0.26644  -0.25760
 Alpha  occ. eigenvalues --   -0.25179  -0.25037  -0.24836  -0.24436  -0.20875
 Alpha  occ. eigenvalues --   -0.18307
 Alpha virt. eigenvalues --   -0.10829  -0.05147  -0.03720  -0.01978  -0.00293
 Alpha virt. eigenvalues --   -0.00015   0.00933   0.01478   0.01597   0.02924
 Alpha virt. eigenvalues --    0.03979   0.04640   0.04949   0.05498   0.05627

 Mulliken charges:
               1
     1  Mg   0.948625
     2  C   -0.055286
     3  C   -0.076610
     4  C   -0.055647
     5  C   -0.069420
     6  N   -0.418149
     7  C    0.035867
     8  C   -0.075980
     9  C   -0.106157
    10  C    0.071784
    11  C   -0.014829
    12  C    0.018465
    13  C   -0.011965
    14  C    0.222794
    15  O   -0.232599
    16  O   -0.378482
    17  N   -0.485555
    18  C    0.205503
    19  C   -0.218461
    20  C   -0.093055
    21  C    0.135202
    22  C    0.053480
    23  C    0.051257
    24  O   -0.242071
    25  C   -0.009282
    26  N   -0.376735
    27  C    0.086493
    28  C   -0.127668
    29  C   -0.077907
    30  C    0.036846
    31  C    0.028080
    32  C   -0.027969
    33  C   -0.069595
    34  N   -0.445913
    35  C    0.153694
    36  C   -0.243002
    37  C   -0.060888
    38  C    0.184321
    39  C    0.076188
    40  C    0.184616
    41  O   -0.225793
    42  C   -0.121878
    43  C    0.292930
    44  O   -0.257487
    45  O   -0.386062
    46  C    0.127214
    47  C    0.264882
    48  C   -0.171829
    49  C   -0.208627
    50  C    0.023849
    51  C   -0.025677
    52  C   -0.029811
    53  C    0.055738
    54  C   -0.223989
    55  C   -0.016465
    56  C   -0.065972
    57  C    0.013648
    58  C   -0.039566
    59  C   -0.218395
    60  C    0.004129
    61  C   -0.030539
    62  C   -0.011997
    63  C   -0.010920
    64  C   -0.233251
    65  C   -0.046767
    66  C   -0.030474
    67  H   -0.004734
    68  H    0.030072
    69  H    0.010759
    70  H    0.053994
    71  H    0.048953
    72  H    0.048211
    73  H    0.047096
    74  H    0.056466
    75  H    0.035249
    76  H    0.050489
    77  H    0.044418
    78  H    0.054101
    79  H    0.062557
    80  H    0.052812
    81  H    0.050781
    82  H    0.060917
    83  H    0.066824
    84  H    0.070875
    85  H    0.049045
    86  H    0.048352
    87  H    0.045793
    88  H    0.047429
    89  H    0.047229
    90  H    0.042397
    91  H    0.038588
    92  H    0.046347
    93  H    0.042836
    94  H    0.045821
    95  H    0.076577
    96  H    0.027265
    97  H    0.067898
    98  H    0.079150
    99  H    0.075552
   100  H    0.070262
   101  H    0.074088
   102  H    0.058539
   103  H    0.066961
   104  H    0.024324
   105  H    0.048020
   106  H    0.025898
   107  H    0.057826
   108  H    0.028289
   109  H    0.038215
   110  H    0.028603
   111  H    0.026237
   112  H    0.017914
   113  H    0.037702
   114  H    0.031408
   115  H    0.049578
   116  H    0.044237
   117  H    0.030270
   118  H    0.015449
   119  H    0.024330
   120  H    0.015757
   121  H    0.034725
   122  H    0.025674
   123  H    0.020678
   124  H    0.031766
   125  H    0.033425
   126  H    0.027688
   127  H    0.031048
   128  H    0.015236
   129  H    0.021880
   130  H    0.036390
   131  H    0.032002
   132  H    0.021421
   133  H    0.032731
   134  H    0.037024
   135  H    0.031045
   136  H    0.038046
   137  H    0.035117
   138  H    0.039030
   139  H    0.032441
   140  H    0.041728
 Sum of Mulliken charges =  -0.00000

 Dipole moment (field-independent basis, Debye):
    X=             -3.4462    Y=              5.6724    Z=              0.4650  Tot=              6.6535
 Quadrupole moment (field-independent basis, Debye-Ang):
   XX=           -383.3213   YY=           -426.8049   ZZ=           -399.5635
   XY=             11.7586   XZ=              8.0291   YZ=            -12.5507

 Normal termination of Gaussian 16 at Sat Apr 30 02:08:10 2022.
