 Gaussian 16, Revision A.03,
 Gaussian 16:  ES64L-G16RevA.03 25-Dec-2016

 --------------------------------
 #p wB97XD/Def2SVP td=(nstates=5)
 --------------------------------

 ----------------------------------------------------
 step_551_chromophore_10 TDDFT with wB97XD functional
 ----------------------------------------------------
 Symbolic Z-matrix:
 Charge =  0 Multiplicity = 1

                         Standard orientation:
 ---------------------------------------------------------------------
 Center     Atomic      Atomic             Coordinates (Angstroms)
 Number     Number       Type             X           Y           Z
 ---------------------------------------------------------------------
      1         12           0        5.870569    0.520768    0.066824
      2          6           0        3.423796   -2.070947   -0.086979
      3          6           0        3.702128    2.735297   -1.199456
      4          6           0        8.425860    2.834257   -0.089114
      5          6           0        8.289369   -2.009422    0.858339
      6          7           0        3.779806    0.374846   -0.479901
      7          6           0        2.960288   -0.728692   -0.415806
      8          6           0        1.502610   -0.281813   -0.736538
      9          6           0        1.662344    1.179310   -1.135570
     10          6           0        3.141367    1.487657   -0.945929
     11          6           0        1.030038    1.493930   -2.590451
     12          6           0        0.456544   -0.602256    0.405121
     13          6           0       -1.005266   -0.678330   -0.167384
     14          6           0       -1.870193   -1.897356    0.087759
     15          8           0       -2.213522   -2.645974   -0.785892
     16          8           0       -2.227447   -2.029414    1.422000
     17          7           0        6.065398    2.549683   -0.420221
     18          6           0        5.014348    3.223009   -0.981297
     19          6           0        5.426873    4.619167   -1.068997
     20          6           0        6.730535    4.705585   -0.507043
     21          6           0        7.139693    3.352454   -0.318311
     22          6           0        4.632200    5.740347   -1.628137
     23          6           0        7.646592    5.861617   -0.120287
     24          8           0        8.784161    5.616940    0.259892
     25          6           0        7.000839    7.194857   -0.094312
     26          7           0        8.085434    0.394455    0.231814
     27          6           0        8.822334    1.516909    0.245291
     28          6           0       10.244448    1.158158    0.628399
     29          6           0       10.273902   -0.339445    0.935573
     30          6           0        8.799807   -0.699385    0.720537
     31          6           0       11.379702    1.629098   -0.273374
     32          6           0       10.873208   -0.861810    2.275768
     33          6           0       10.225882   -0.414871    3.559079
     34          7           0        5.888635   -1.600980    0.274620
     35          6           0        6.954803   -2.419548    0.509054
     36          6           0        6.441973   -3.803187    0.473299
     37          6           0        5.034009   -3.695085    0.334666
     38          6           0        4.759503   -2.317401    0.170415
     39          6           0        7.225769   -5.066871    0.787612
     40          6           0        3.785316   -4.478408    0.300340
     41          8           0        3.617877   -5.678099    0.568836
     42          6           0        2.649742   -3.451711   -0.095185
     43          6           0        2.052388   -3.870909   -1.447567
     44          8           0        2.663006   -4.546288   -2.277799
     45          8           0        0.807123   -3.363234   -1.601656
     46          6           0        0.064944   -3.517429   -2.913470
     47          6           0       -3.422756   -2.854338    1.609936
     48          6           0       -4.667687   -2.416112    0.840597
     49          6           0       -5.745865   -3.103060    0.431350
     50          6           0       -6.189238   -4.449140    0.901068
     51          6           0       -6.709128   -2.490938   -0.552793
     52          6           0       -7.872978   -1.663022    0.059178
     53          6           0       -8.359141   -0.738897   -1.048429
     54          6           0       -9.697846   -0.081405   -0.676738
     55          6           0      -10.886573   -0.473481   -1.571828
     56          6           0       -9.521642    1.448317   -0.806783
     57          6           0      -10.748854    2.353195   -0.416819
     58          6           0      -10.446768    3.040219    0.894186
     59          6           0      -11.729709    3.317187    1.771807
     60          6           0      -11.315057    4.243082    2.978642
     61          6           0      -12.357386    2.045216    2.251662
     62          6           0      -13.884187    1.896285    1.941283
     63          6           0      -14.132237    0.777659    0.877050
     64          6           0      -15.069698    1.090427   -0.272414
     65          6           0      -15.920577   -0.238980   -0.635779
     66          6           0      -14.220531    1.467895   -1.512175
     67          1           0        2.973971    3.482775   -1.519096
     68          1           0        9.266049    3.523465   -0.195214
     69          1           0        9.005217   -2.792471    1.115392
     70          1           0        1.208514   -0.897791   -1.586786
     71          1           0        1.264548    1.911214   -0.432400
     72          1           0        0.347506    0.721903   -2.944889
     73          1           0        1.905550    1.324960   -3.216975
     74          1           0        0.650115    2.511910   -2.677610
     75          1           0        0.460692    0.150477    1.193972
     76          1           0        0.666663   -1.527569    0.943409
     77          1           0       -0.902110   -0.520921   -1.241412
     78          1           0       -1.477522    0.224696    0.218538
     79          1           0        4.082204    6.160101   -0.786484
     80          1           0        3.974057    5.276382   -2.362871
     81          1           0        5.223551    6.495487   -2.146709
     82          1           0        7.716013    7.758978    0.504950
     83          1           0        6.037161    7.129432    0.409616
     84          1           0        6.898988    7.450556   -1.148893
     85          1           0       10.413531    1.628733    1.597443
     86          1           0       10.741139   -0.874108    0.107808
     87          1           0       10.862534    2.083625   -1.118288
     88          1           0       12.044691    0.838294   -0.621227
     89          1           0       11.872452    2.412217    0.301564
     90          1           0       11.938866   -0.634570    2.307457
     91          1           0       10.696358   -1.936430    2.310826
     92          1           0        9.346069    0.172501    3.295713
     93          1           0       10.917927    0.219657    4.113510
     94          1           0        9.901716   -1.259425    4.166117
     95          1           0        7.091099   -5.275017    1.848582
     96          1           0        8.255196   -4.804961    0.542977
     97          1           0        6.969393   -5.838741    0.062024
     98          1           0        1.800230   -3.558663    0.579288
     99          1           0       -0.510970   -4.431521   -2.772657
    100          1           0        0.780778   -3.691971   -3.717128
    101          1           0       -0.554964   -2.631158   -3.048048
    102          1           0       -3.718241   -2.709948    2.649417
    103          1           0       -3.229189   -3.881640    1.302164
    104          1           0       -4.517243   -1.408080    0.453160
    105          1           0       -7.171460   -4.393032    1.371620
    106          1           0       -5.538196   -4.802335    1.700997
    107          1           0       -6.185387   -5.167292    0.081003
    108          1           0       -7.153710   -3.313710   -1.113118
    109          1           0       -6.097201   -1.874560   -1.212356
    110          1           0       -7.487168   -1.243955    0.987870
    111          1           0       -8.563804   -2.429802    0.409544
    112          1           0       -8.638510   -1.463044   -1.812900
    113          1           0       -7.697221    0.002290   -1.494562
    114          1           0      -10.103677   -0.262594    0.318752
    115          1           0      -11.011964    0.312389   -2.317215
    116          1           0      -11.700679   -0.579632   -0.854427
    117          1           0      -10.788069   -1.442699   -2.061411
    118          1           0       -9.229912    1.643300   -1.838338
    119          1           0       -8.609487    1.753070   -0.294543
    120          1           0      -11.603575    1.682710   -0.326572
    121          1           0      -11.003499    3.034641   -1.229320
    122          1           0       -9.755066    3.879142    0.821130
    123          1           0       -9.874234    2.423851    1.586968
    124          1           0      -12.394550    3.932419    1.166083
    125          1           0      -10.232371    4.322044    3.081448
    126          1           0      -11.838288    3.766061    3.807539
    127          1           0      -11.699185    5.257984    2.875302
    128          1           0      -12.311838    1.879579    3.328219
    129          1           0      -11.706307    1.226380    1.944831
    130          1           0      -14.305832    2.826717    1.561871
    131          1           0      -14.267149    1.559316    2.904161
    132          1           0      -14.621471    0.001688    1.464135
    133          1           0      -13.170993    0.431439    0.497908
    134          1           0      -15.761722    1.916902   -0.109347
    135          1           0      -15.426660   -0.846958   -1.394240
    136          1           0      -16.868281    0.121067   -1.036264
    137          1           0      -16.098214   -0.973486    0.150046
    138          1           0      -13.651046    2.381058   -1.340475
    139          1           0      -14.955461    1.663465   -2.293320
    140          1           0      -13.510704    0.685219   -1.781640
 ---------------------------------------------------------------------

 SCF Done:  E(RwB97XD) =  -3007.88231537     A.U. after   20 cycles

 Excitation energies and oscillator strengths:

 Excited State   1:      Singlet-A      1.5993 eV  775.24 nm  f=0.3713  <S**2>=0.000
     245 -> 248        0.19099
     246 -> 247        0.68372
     245 <- 248        0.12315
 This state for optimization and/or second-order correction.
 Total Energy, E(TD-HF/TD-DFT) =  -3007.82354230
 Copying the excited state density for this state as the 1-particle RhoCI density.

 Excited State   2:      Singlet-A      2.1864 eV  567.07 nm  f=0.0729  <S**2>=0.000
     245 -> 247        0.62040
     246 -> 248       -0.32906

 Excited State   3:      Singlet-A      3.3824 eV  366.56 nm  f=0.1150  <S**2>=0.000
     242 -> 247       -0.40209
     243 -> 247        0.47176
     245 -> 247       -0.12647
     246 -> 248       -0.28355

 Excited State   4:      Singlet-A      3.4472 eV  359.67 nm  f=0.2246  <S**2>=0.000
     242 -> 247        0.25102
     243 -> 247        0.47842
     245 -> 247        0.15985
     246 -> 248        0.39430

 Excited State   5:      Singlet-A      3.5037 eV  353.87 nm  f=0.0277  <S**2>=0.000
     241 -> 247        0.53075
     241 -> 249       -0.33102
     241 -> 250       -0.25187
     246 -> 248       -0.10993

 The electronic state is 1-A.
 Alpha  occ. eigenvalues --  -46.95282 -19.30443 -19.30440 -19.25468 -19.24242
 Alpha  occ. eigenvalues --  -19.24025 -19.23458 -14.47167 -14.46106 -14.43686
 Alpha  occ. eigenvalues --  -14.43660 -10.43483 -10.43188 -10.39116 -10.38692
 Alpha  occ. eigenvalues --  -10.36065 -10.35999 -10.35893 -10.35056 -10.34741
 Alpha  occ. eigenvalues --  -10.34373 -10.34058 -10.33988 -10.33241 -10.33218
 Alpha  occ. eigenvalues --  -10.33168 -10.32453 -10.32434 -10.32424 -10.32377
 Alpha  occ. eigenvalues --  -10.31826 -10.31606 -10.31513 -10.31377 -10.31157
 Alpha  occ. eigenvalues --  -10.31110 -10.31031 -10.31014 -10.30424 -10.30362
 Alpha  occ. eigenvalues --  -10.30356 -10.30104 -10.29999 -10.29975 -10.29683
 Alpha  occ. eigenvalues --  -10.29619 -10.29533 -10.29457 -10.29291 -10.29257
 Alpha  occ. eigenvalues --  -10.29209 -10.29171 -10.29066 -10.28898 -10.28878
 Alpha  occ. eigenvalues --  -10.28874 -10.28722 -10.28652 -10.28593 -10.28561
 Alpha  occ. eigenvalues --  -10.28408 -10.28256 -10.28201 -10.28102 -10.28091
 Alpha  occ. eigenvalues --  -10.27963  -3.21104  -1.94716  -1.94196  -1.94080
 Alpha  occ. eigenvalues --   -1.19017  -1.17624  -1.12629  -1.11069  -1.10237
 Alpha  occ. eigenvalues --   -1.08816  -1.06131  -1.05476  -1.05146  -1.04402
 Alpha  occ. eigenvalues --   -0.93626  -0.92730  -0.91784  -0.91203  -0.90913
 Alpha  occ. eigenvalues --   -0.90633  -0.90225  -0.89363  -0.89184  -0.88919
 Alpha  occ. eigenvalues --   -0.87597  -0.87151  -0.86279  -0.85515  -0.85253
 Alpha  occ. eigenvalues --   -0.84749  -0.84222  -0.83301  -0.82673  -0.82055
 Alpha  occ. eigenvalues --   -0.81656  -0.80293  -0.79678  -0.79373  -0.78146
 Alpha  occ. eigenvalues --   -0.77722  -0.76925  -0.76739  -0.76231  -0.76040
 Alpha  occ. eigenvalues --   -0.75256  -0.74039  -0.73824  -0.72824  -0.71275
 Alpha  occ. eigenvalues --   -0.70602  -0.70038  -0.68973  -0.68905  -0.67979
 Alpha  occ. eigenvalues --   -0.67545  -0.66904  -0.66186  -0.65546  -0.65398
 Alpha  occ. eigenvalues --   -0.65339  -0.64803  -0.64549  -0.64061  -0.61893
 Alpha  occ. eigenvalues --   -0.61708  -0.61149  -0.60812  -0.60419  -0.59290
 Alpha  occ. eigenvalues --   -0.59220  -0.58869  -0.57763  -0.57376  -0.57292
 Alpha  occ. eigenvalues --   -0.57225  -0.56729  -0.56539  -0.56257  -0.55915
 Alpha  occ. eigenvalues --   -0.55805  -0.55577  -0.55418  -0.55182  -0.54826
 Alpha  occ. eigenvalues --   -0.54408  -0.54355  -0.54243  -0.53881  -0.53755
 Alpha  occ. eigenvalues --   -0.53459  -0.53295  -0.53117  -0.53074  -0.52759
 Alpha  occ. eigenvalues --   -0.52483  -0.52172  -0.51874  -0.51745  -0.51616
 Alpha  occ. eigenvalues --   -0.51464  -0.51266  -0.51180  -0.50931  -0.50910
 Alpha  occ. eigenvalues --   -0.50848  -0.50745  -0.50308  -0.49786  -0.49741
 Alpha  occ. eigenvalues --   -0.49537  -0.49383  -0.49123  -0.48925  -0.48855
 Alpha  occ. eigenvalues --   -0.48766  -0.48373  -0.48054  -0.47902  -0.47551
 Alpha  occ. eigenvalues --   -0.47375  -0.47164  -0.47076  -0.46565  -0.46485
 Alpha  occ. eigenvalues --   -0.46355  -0.46239  -0.46150  -0.45988  -0.45782
 Alpha  occ. eigenvalues --   -0.45562  -0.45275  -0.45017  -0.44833  -0.44677
 Alpha  occ. eigenvalues --   -0.44552  -0.44275  -0.44210  -0.44183  -0.44064
 Alpha  occ. eigenvalues --   -0.43942  -0.43675  -0.43409  -0.43325  -0.43115
 Alpha  occ. eigenvalues --   -0.42883  -0.42766  -0.42396  -0.42290  -0.41865
 Alpha  occ. eigenvalues --   -0.41667  -0.41496  -0.41247  -0.40974  -0.40711
 Alpha  occ. eigenvalues --   -0.40450  -0.40200  -0.39974  -0.39360  -0.39156
 Alpha  occ. eigenvalues --   -0.39009  -0.38852  -0.38620  -0.38430  -0.38201
 Alpha  occ. eigenvalues --   -0.37852  -0.37457  -0.36583  -0.36094  -0.36081
 Alpha  occ. eigenvalues --   -0.35730  -0.35643  -0.34894  -0.33574  -0.32528
 Alpha  occ. eigenvalues --   -0.32186  -0.31760  -0.31387  -0.31168  -0.25861
 Alpha  occ. eigenvalues --   -0.22430
 Alpha virt. eigenvalues --   -0.06694   0.00196   0.02585   0.04548   0.05834
 Alpha virt. eigenvalues --    0.06513   0.07765   0.08149   0.08306   0.09455
 Alpha virt. eigenvalues --    0.10413   0.11471   0.11592   0.11990   0.12392

 Mulliken charges:
               1
     1  Mg   0.941310
     2  C   -0.069851
     3  C   -0.094503
     4  C   -0.074968
     5  C   -0.087683
     6  N   -0.382694
     7  C    0.005387
     8  C   -0.034339
     9  C   -0.087332
    10  C    0.056917
    11  C   -0.000198
    12  C    0.026823
    13  C    0.013347
    14  C    0.209414
    15  O   -0.228968
    16  O   -0.378178
    17  N   -0.452544
    18  C    0.195759
    19  C   -0.202807
    20  C   -0.092690
    21  C    0.128115
    22  C    0.065790
    23  C    0.046419
    24  O   -0.235584
    25  C    0.002407
    26  N   -0.344048
    27  C    0.075872
    28  C   -0.104242
    29  C   -0.048475
    30  C    0.022733
    31  C    0.039569
    32  C   -0.011263
    33  C   -0.054323
    34  N   -0.404603
    35  C    0.145078
    36  C   -0.238827
    37  C   -0.057873
    38  C    0.172549
    39  C    0.091541
    40  C    0.165504
    41  O   -0.216074
    42  C   -0.085519
    43  C    0.270931
    44  O   -0.253839
    45  O   -0.383194
    46  C    0.139781
    47  C    0.281453
    48  C   -0.181875
    49  C   -0.194440
    50  C    0.036401
    51  C   -0.004973
    52  C   -0.015760
    53  C    0.074871
    54  C   -0.194684
    55  C    0.003876
    56  C   -0.047851
    57  C    0.051136
    58  C   -0.019251
    59  C   -0.194386
    60  C    0.017060
    61  C   -0.007880
    62  C    0.000991
    63  C    0.018132
    64  C   -0.206766
    65  C   -0.034752
    66  C   -0.004411
    67  H   -0.011533
    68  H    0.024676
    69  H    0.003590
    70  H    0.030078
    71  H    0.037883
    72  H    0.042366
    73  H    0.039354
    74  H    0.052337
    75  H    0.029504
    76  H    0.039142
    77  H    0.030509
    78  H    0.048658
    79  H    0.057846
    80  H    0.047613
    81  H    0.045445
    82  H    0.059791
    83  H    0.061331
    84  H    0.064935
    85  H    0.035624
    86  H    0.036714
    87  H    0.037915
    88  H    0.042845
    89  H    0.042539
    90  H    0.035434
    91  H    0.028846
    92  H    0.035756
    93  H    0.037896
    94  H    0.041500
    95  H    0.072171
    96  H    0.019757
    97  H    0.064091
    98  H    0.073782
    99  H    0.073261
   100  H    0.067635
   101  H    0.070991
   102  H    0.054622
   103  H    0.061181
   104  H    0.018437
   105  H    0.042018
   106  H    0.020052
   107  H    0.053016
   108  H    0.019514
   109  H    0.029160
   110  H    0.019258
   111  H    0.017601
   112  H    0.005344
   113  H    0.030953
   114  H    0.016705
   115  H    0.041415
   116  H    0.032994
   117  H    0.025153
   118  H    0.004507
   119  H    0.013295
   120  H   -0.024788
   121  H    0.028763
   122  H    0.018116
   123  H    0.006707
   124  H    0.019020
   125  H    0.027701
   126  H    0.020064
   127  H    0.026053
   128  H    0.007061
   129  H    0.007039
   130  H    0.026983
   131  H    0.025605
   132  H    0.012180
   133  H    0.010366
   134  H    0.028278
   135  H    0.024641
   136  H    0.032336
   137  H    0.029522
   138  H    0.028766
   139  H    0.026656
   140  H    0.025905
 Sum of Mulliken charges =  -0.00000

 Dipole moment (field-independent basis, Debye):
    X=             -3.5475    Y=              5.8299    Z=              0.4701  Tot=              6.8406
 Quadrupole moment (field-independent basis, Debye-Ang):
   XX=           -384.3970   YY=           -424.9441   ZZ=           -399.1732
   XY=             12.7921   XZ=              7.8333   YZ=            -12.6602

 Normal termination of Gaussian 16 at Sat Apr 30 02:36:00 2022.
