 Gaussian 16, Revision A.03,
 Gaussian 16:  ES64L-G16RevA.03 25-Dec-2016

 --------------------
 #p ZINDO=(nstates=5)
 --------------------

 -----------------------------
 step_551_chromophore_10 ZINDO
 -----------------------------
 Symbolic Z-matrix:
 Charge =  0 Multiplicity = 1

                         Standard orientation:
 ---------------------------------------------------------------------
 Center     Atomic      Atomic             Coordinates (Angstroms)
 Number     Number       Type             X           Y           Z
 ---------------------------------------------------------------------
      1         12           0        5.870569    0.520768    0.066824
      2          6           0        3.423796   -2.070947   -0.086979
      3          6           0        3.702128    2.735297   -1.199456
      4          6           0        8.425860    2.834257   -0.089114
      5          6           0        8.289369   -2.009422    0.858339
      6          7           0        3.779806    0.374846   -0.479901
      7          6           0        2.960288   -0.728692   -0.415806
      8          6           0        1.502610   -0.281813   -0.736538
      9          6           0        1.662344    1.179310   -1.135570
     10          6           0        3.141367    1.487657   -0.945929
     11          6           0        1.030038    1.493930   -2.590451
     12          6           0        0.456544   -0.602256    0.405121
     13          6           0       -1.005266   -0.678330   -0.167384
     14          6           0       -1.870193   -1.897356    0.087759
     15          8           0       -2.213522   -2.645974   -0.785892
     16          8           0       -2.227447   -2.029414    1.422000
     17          7           0        6.065398    2.549683   -0.420221
     18          6           0        5.014348    3.223009   -0.981297
     19          6           0        5.426873    4.619167   -1.068997
     20          6           0        6.730535    4.705585   -0.507043
     21          6           0        7.139693    3.352454   -0.318311
     22          6           0        4.632200    5.740347   -1.628137
     23          6           0        7.646592    5.861617   -0.120287
     24          8           0        8.784161    5.616940    0.259892
     25          6           0        7.000839    7.194857   -0.094312
     26          7           0        8.085434    0.394455    0.231814
     27          6           0        8.822334    1.516909    0.245291
     28          6           0       10.244448    1.158158    0.628399
     29          6           0       10.273902   -0.339445    0.935573
     30          6           0        8.799807   -0.699385    0.720537
     31          6           0       11.379702    1.629098   -0.273374
     32          6           0       10.873208   -0.861810    2.275768
     33          6           0       10.225882   -0.414871    3.559079
     34          7           0        5.888635   -1.600980    0.274620
     35          6           0        6.954803   -2.419548    0.509054
     36          6           0        6.441973   -3.803187    0.473299
     37          6           0        5.034009   -3.695085    0.334666
     38          6           0        4.759503   -2.317401    0.170415
     39          6           0        7.225769   -5.066871    0.787612
     40          6           0        3.785316   -4.478408    0.300340
     41          8           0        3.617877   -5.678099    0.568836
     42          6           0        2.649742   -3.451711   -0.095185
     43          6           0        2.052388   -3.870909   -1.447567
     44          8           0        2.663006   -4.546288   -2.277799
     45          8           0        0.807123   -3.363234   -1.601656
     46          6           0        0.064944   -3.517429   -2.913470
     47          6           0       -3.422756   -2.854338    1.609936
     48          6           0       -4.667687   -2.416112    0.840597
     49          6           0       -5.745865   -3.103060    0.431350
     50          6           0       -6.189238   -4.449140    0.901068
     51          6           0       -6.709128   -2.490938   -0.552793
     52          6           0       -7.872978   -1.663022    0.059178
     53          6           0       -8.359141   -0.738897   -1.048429
     54          6           0       -9.697846   -0.081405   -0.676738
     55          6           0      -10.886573   -0.473481   -1.571828
     56          6           0       -9.521642    1.448317   -0.806783
     57          6           0      -10.748854    2.353195   -0.416819
     58          6           0      -10.446768    3.040219    0.894186
     59          6           0      -11.729709    3.317187    1.771807
     60          6           0      -11.315057    4.243082    2.978642
     61          6           0      -12.357386    2.045216    2.251662
     62          6           0      -13.884187    1.896285    1.941283
     63          6           0      -14.132237    0.777659    0.877050
     64          6           0      -15.069698    1.090427   -0.272414
     65          6           0      -15.920577   -0.238980   -0.635779
     66          6           0      -14.220531    1.467895   -1.512175
     67          1           0        2.973971    3.482775   -1.519096
     68          1           0        9.266049    3.523465   -0.195214
     69          1           0        9.005217   -2.792471    1.115392
     70          1           0        1.208514   -0.897791   -1.586786
     71          1           0        1.264548    1.911214   -0.432400
     72          1           0        0.347506    0.721903   -2.944889
     73          1           0        1.905550    1.324960   -3.216975
     74          1           0        0.650115    2.511910   -2.677610
     75          1           0        0.460692    0.150477    1.193972
     76          1           0        0.666663   -1.527569    0.943409
     77          1           0       -0.902110   -0.520921   -1.241412
     78          1           0       -1.477522    0.224696    0.218538
     79          1           0        4.082204    6.160101   -0.786484
     80          1           0        3.974057    5.276382   -2.362871
     81          1           0        5.223551    6.495487   -2.146709
     82          1           0        7.716013    7.758978    0.504950
     83          1           0        6.037161    7.129432    0.409616
     84          1           0        6.898988    7.450556   -1.148893
     85          1           0       10.413531    1.628733    1.597443
     86          1           0       10.741139   -0.874108    0.107808
     87          1           0       10.862534    2.083625   -1.118288
     88          1           0       12.044691    0.838294   -0.621227
     89          1           0       11.872452    2.412217    0.301564
     90          1           0       11.938866   -0.634570    2.307457
     91          1           0       10.696358   -1.936430    2.310826
     92          1           0        9.346069    0.172501    3.295713
     93          1           0       10.917927    0.219657    4.113510
     94          1           0        9.901716   -1.259425    4.166117
     95          1           0        7.091099   -5.275017    1.848582
     96          1           0        8.255196   -4.804961    0.542977
     97          1           0        6.969393   -5.838741    0.062024
     98          1           0        1.800230   -3.558663    0.579288
     99          1           0       -0.510970   -4.431521   -2.772657
    100          1           0        0.780778   -3.691971   -3.717128
    101          1           0       -0.554964   -2.631158   -3.048048
    102          1           0       -3.718241   -2.709948    2.649417
    103          1           0       -3.229189   -3.881640    1.302164
    104          1           0       -4.517243   -1.408080    0.453160
    105          1           0       -7.171460   -4.393032    1.371620
    106          1           0       -5.538196   -4.802335    1.700997
    107          1           0       -6.185387   -5.167292    0.081003
    108          1           0       -7.153710   -3.313710   -1.113118
    109          1           0       -6.097201   -1.874560   -1.212356
    110          1           0       -7.487168   -1.243955    0.987870
    111          1           0       -8.563804   -2.429802    0.409544
    112          1           0       -8.638510   -1.463044   -1.812900
    113          1           0       -7.697221    0.002290   -1.494562
    114          1           0      -10.103677   -0.262594    0.318752
    115          1           0      -11.011964    0.312389   -2.317215
    116          1           0      -11.700679   -0.579632   -0.854427
    117          1           0      -10.788069   -1.442699   -2.061411
    118          1           0       -9.229912    1.643300   -1.838338
    119          1           0       -8.609487    1.753070   -0.294543
    120          1           0      -11.603575    1.682710   -0.326572
    121          1           0      -11.003499    3.034641   -1.229320
    122          1           0       -9.755066    3.879142    0.821130
    123          1           0       -9.874234    2.423851    1.586968
    124          1           0      -12.394550    3.932419    1.166083
    125          1           0      -10.232371    4.322044    3.081448
    126          1           0      -11.838288    3.766061    3.807539
    127          1           0      -11.699185    5.257984    2.875302
    128          1           0      -12.311838    1.879579    3.328219
    129          1           0      -11.706307    1.226380    1.944831
    130          1           0      -14.305832    2.826717    1.561871
    131          1           0      -14.267149    1.559316    2.904161
    132          1           0      -14.621471    0.001688    1.464135
    133          1           0      -13.170993    0.431439    0.497908
    134          1           0      -15.761722    1.916902   -0.109347
    135          1           0      -15.426660   -0.846958   -1.394240
    136          1           0      -16.868281    0.121067   -1.036264
    137          1           0      -16.098214   -0.973486    0.150046
    138          1           0      -13.651046    2.381058   -1.340475
    139          1           0      -14.955461    1.663465   -2.293320
    140          1           0      -13.510704    0.685219   -1.781640
 ---------------------------------------------------------------------

 SCF Done:  E(RZINDO/S) =  -474.276962068     A.U. after   20 cycles

 Excitation energies and oscillator strengths:

 Excited State   1:      Singlet-A      1.2242 eV 1012.75 nm  f=0.6004  <S**2>=0.000
     175 ->178         0.19470
     176 ->177         0.66201
 This state for optimization and/or second-order correction.
 Total Energy, E(CIS/TDA) =  -474.231972388
 Copying the excited state density for this state as the 1-particle RhoCI density.

 Excited State   2:      Singlet-A      1.9114 eV  648.64 nm  f=0.0185  <S**2>=0.000
     175 ->177         0.52442
     176 ->178        -0.45162

 Excited State   3:      Singlet-A      2.9736 eV  416.95 nm  f=0.4894  <S**2>=0.000
     168 ->177         0.15353
     168 ->179         0.12268
     168 ->180         0.19091
     170 ->179        -0.10454
     175 ->177         0.25813
     176 ->178         0.35002
     176 ->179         0.37839

 Excited State   4:      Singlet-A      3.0158 eV  411.11 nm  f=0.0335  <S**2>=0.000
     167 ->180        -0.11900
     168 ->179        -0.33859
     168 ->180        -0.14773
     168 ->185        -0.18695
     169 ->177         0.20411
     169 ->180         0.19433
     170 ->177         0.15888
     170 ->180         0.18256
     171 ->177        -0.11418
     176 ->178         0.10301
     176 ->179         0.17374

 Excited State   5:      Singlet-A      3.0374 eV  408.19 nm  f=0.2393  <S**2>=0.000
     167 ->179         0.12096
     168 ->177         0.21841
     168 ->180         0.24604
     169 ->177         0.16824
     169 ->179        -0.25514
     169 ->180         0.15625
     169 ->185        -0.15900
     170 ->179        -0.15446
     175 ->177        -0.17886
     176 ->178        -0.22202

 The electronic state is 1-A.
 Alpha  occ. eigenvalues --   -1.82670  -1.82039  -1.79671  -1.73879  -1.71633
 Alpha  occ. eigenvalues --   -1.69481  -1.67941  -1.61339  -1.59577  -1.56302
 Alpha  occ. eigenvalues --   -1.54872  -1.52651  -1.49405  -1.47564  -1.45488
 Alpha  occ. eigenvalues --   -1.44866  -1.43519  -1.40771  -1.39370  -1.38801
 Alpha  occ. eigenvalues --   -1.35704  -1.33334  -1.32836  -1.31843  -1.28365
 Alpha  occ. eigenvalues --   -1.27443  -1.24902  -1.23297  -1.20230  -1.17761
 Alpha  occ. eigenvalues --   -1.17186  -1.15934  -1.14524  -1.13405  -1.12563
 Alpha  occ. eigenvalues --   -1.11281  -1.10841  -1.10404  -1.04105  -1.03595
 Alpha  occ. eigenvalues --   -1.03155  -1.00242  -0.98847  -0.97931  -0.96101
 Alpha  occ. eigenvalues --   -0.95826  -0.95087  -0.93779  -0.93611  -0.92517
 Alpha  occ. eigenvalues --   -0.92223  -0.89381  -0.88620  -0.87332  -0.87184
 Alpha  occ. eigenvalues --   -0.84646  -0.83775  -0.82907  -0.81293  -0.80407
 Alpha  occ. eigenvalues --   -0.79590  -0.79071  -0.77041  -0.76599  -0.76378
 Alpha  occ. eigenvalues --   -0.75945  -0.74509  -0.74426  -0.73931  -0.73089
 Alpha  occ. eigenvalues --   -0.72809  -0.72161  -0.71645  -0.71476  -0.70998
 Alpha  occ. eigenvalues --   -0.70458  -0.69595  -0.68744  -0.68480  -0.68301
 Alpha  occ. eigenvalues --   -0.67542  -0.67188  -0.66421  -0.65925  -0.65575
 Alpha  occ. eigenvalues --   -0.65148  -0.64689  -0.64309  -0.63920  -0.63759
 Alpha  occ. eigenvalues --   -0.63502  -0.63264  -0.62387  -0.62175  -0.61820
 Alpha  occ. eigenvalues --   -0.61739  -0.61525  -0.61295  -0.60528  -0.60437
 Alpha  occ. eigenvalues --   -0.59893  -0.59597  -0.59064  -0.58853  -0.58486
 Alpha  occ. eigenvalues --   -0.57929  -0.57477  -0.57263  -0.56873  -0.56462
 Alpha  occ. eigenvalues --   -0.55865  -0.55492  -0.55085  -0.54762  -0.54479
 Alpha  occ. eigenvalues --   -0.54125  -0.53601  -0.53345  -0.53291  -0.52978
 Alpha  occ. eigenvalues --   -0.52654  -0.52134  -0.52034  -0.51784  -0.51256
 Alpha  occ. eigenvalues --   -0.51049  -0.50655  -0.50612  -0.50435  -0.50115
 Alpha  occ. eigenvalues --   -0.49513  -0.49128  -0.49071  -0.48930  -0.48716
 Alpha  occ. eigenvalues --   -0.48616  -0.48458  -0.48358  -0.48293  -0.47832
 Alpha  occ. eigenvalues --   -0.47712  -0.47290  -0.47011  -0.46767  -0.46575
 Alpha  occ. eigenvalues --   -0.46358  -0.46032  -0.45692  -0.45341  -0.45024
 Alpha  occ. eigenvalues --   -0.44727  -0.44681  -0.44273  -0.44085  -0.43861
 Alpha  occ. eigenvalues --   -0.43302  -0.43177  -0.42539  -0.42176  -0.41584
 Alpha  occ. eigenvalues --   -0.41394  -0.41330  -0.41117  -0.39096  -0.38902
 Alpha  occ. eigenvalues --   -0.37724  -0.36563  -0.35003  -0.34779  -0.34614
 Alpha  occ. eigenvalues --   -0.32568  -0.32198  -0.31662  -0.31375  -0.26442
 Alpha  occ. eigenvalues --   -0.21269
 Alpha virt. eigenvalues --   -0.08167  -0.01973  -0.00042   0.01643   0.01978
 Alpha virt. eigenvalues --    0.02357   0.02614   0.03160   0.04791   0.05312
 Alpha virt. eigenvalues --    0.06386   0.06394   0.07533   0.07679   0.08070

 Mulliken charges:
               1
     1  Mg   0.419106
     2  C   -0.045247
     3  C   -0.073643
     4  C   -0.077148
     5  C   -0.080234
     6  N   -0.271226
     7  C    0.105847
     8  C    0.010849
     9  C    0.002025
    10  C    0.116186
    11  C   -0.062777
    12  C   -0.020856
    13  C   -0.003412
    14  C    0.481928
    15  O   -0.500659
    16  O   -0.278971
    17  N   -0.323278
    18  C    0.091241
    19  C    0.009549
    20  C   -0.065038
    21  C    0.152301
    22  C   -0.042726
    23  C    0.329513
    24  O   -0.528112
    25  C   -0.034764
    26  N   -0.280964
    27  C    0.149691
    28  C    0.010085
    29  C    0.003209
    30  C    0.123097
    31  C   -0.053819
    32  C   -0.025371
    33  C   -0.053466
    34  N   -0.315143
    35  C    0.108777
    36  C    0.021797
    37  C   -0.051916
    38  C    0.121863
    39  C   -0.041447
    40  C    0.334489
    41  O   -0.514100
    42  C    0.055791
    43  C    0.484764
    44  O   -0.511773
    45  O   -0.280621
    46  C    0.075917
    47  C    0.106802
    48  C   -0.088387
    49  C   -0.003794
    50  C   -0.038905
    51  C   -0.029656
    52  C   -0.027438
    53  C   -0.026016
    54  C   -0.019811
    55  C   -0.063212
    56  C   -0.042418
    57  C   -0.036514
    58  C   -0.035879
    59  C   -0.013666
    60  C   -0.070452
    61  C   -0.033190
    62  C   -0.044034
    63  C   -0.037712
    64  C   -0.011812
    65  C   -0.067845
    66  C   -0.059358
    67  H    0.021044
    68  H    0.046717
    69  H    0.034647
    70  H    0.037634
    71  H    0.028260
    72  H    0.027986
    73  H    0.020847
    74  H    0.030259
    75  H    0.023051
    76  H    0.028979
    77  H    0.032874
    78  H    0.033695
    79  H    0.035893
    80  H    0.023297
    81  H    0.028777
    82  H    0.042345
    83  H    0.038983
    84  H    0.050719
    85  H    0.024892
    86  H    0.026924
    87  H    0.023998
    88  H    0.028085
    89  H    0.025698
    90  H    0.020172
    91  H    0.018512
    92  H    0.020453
    93  H    0.018970
    94  H    0.021956
    95  H    0.046673
    96  H    0.015025
    97  H    0.042746
    98  H    0.058896
    99  H    0.049327
   100  H    0.050948
   101  H    0.046347
   102  H    0.038083
   103  H    0.057520
   104  H    0.020883
   105  H    0.026575
   106  H    0.011346
   107  H    0.034340
   108  H    0.019410
   109  H    0.020723
   110  H    0.022024
   111  H    0.023313
   112  H    0.015657
   113  H    0.039788
   114  H    0.022992
   115  H    0.026230
   116  H    0.019190
   117  H    0.015304
   118  H    0.006723
   119  H    0.008718
   120  H    0.025299
   121  H    0.021796
   122  H    0.019980
   123  H    0.010607
   124  H    0.018743
   125  H    0.024888
   126  H    0.022149
   127  H    0.014389
   128  H    0.010373
   129  H    0.019020
   130  H    0.030049
   131  H    0.022685
   132  H    0.011331
   133  H    0.028934
   134  H    0.028997
   135  H    0.016972
   136  H    0.015047
   137  H    0.022613
   138  H    0.014554
   139  H    0.012621
   140  H    0.026493
 Sum of Mulliken charges =  -0.00000

 Dipole moment (field-independent basis, Debye):
    X=             -4.5102    Y=              8.0258    Z=              0.9269  Tot=              9.2528
 N-N= 4.281454399297D+03 E-N= 0.000000000000D+00  KE=-9.237593704021D+03
 Leave Link  601 at Sat Apr 30 02:48:33 2022, MaxMem=  6710886400 cpu:               0.8 elap:               0.0
 (Enter /sw/apps/gaussian-16.0/g16/l9999.exe)
 1\1\GINC-BP1-COMPUTE103\SP\RZINDO CIS\STO-3G\C55H74Mg1N4O6\OF15641\30-
 Apr-2022\0\\#p ZINDO=(nstates=5)\\step_551_chromophore_10 ZINDO\\0,1\M
 g,0,40.641,8.025,28.944\C,0,42.445,9.517,31.636\C,0,38.646,6.405,31.09
 \C,0,39.23,6.359,26.272\C,0,43.159,9.313,26.735\N,0,40.495,8.041,31.10
 5\C,0,41.265,8.744,32.003\C,0,40.65,8.571,33.424\C,0,39.536,7.556,33.2
 04\C,0,39.532,7.283,31.706\C,0,39.668,6.274,34.181\C,0,40.253,9.928,34
 .132\C,0,40.201,9.761,35.694\C,0,40.99,10.691,36.595\O,0,41.915,10.319

 Normal termination of Gaussian 16 at Sat Apr 30 02:48:34 2022.
