 Gaussian 16, Revision A.03,
 Gaussian 16:  ES64L-G16RevA.03 25-Dec-2016

 ------------------------------
 #p blyp/Def2SVP td=(nstates=5)
 ------------------------------

 -------------------------------------------------
 step_301_chromophore_2 TDDFT with blyp functional
 -------------------------------------------------
 Symbolic Z-matrix:
 Charge =  0 Multiplicity = 1

                         Standard orientation:
 ---------------------------------------------------------------------
 Center     Atomic      Atomic             Coordinates (Angstroms)
 Number     Number       Type             X           Y           Z
 ---------------------------------------------------------------------
      1         12           0       -4.504872    1.233027    0.615119
      2          6           0       -5.151098   -2.250825    0.224205
      3          6           0       -2.311179    0.651260    3.061231
      4          6           0       -3.441239    4.330051    0.152360
      5          6           0       -6.689453    1.622660   -2.251322
      6          7           0       -3.816343   -0.577640    1.465723
      7          6           0       -4.195689   -1.846558    1.264911
      8          6           0       -3.619542   -2.846179    2.272601
      9          6           0       -2.824592   -1.928391    3.293225
     10          6           0       -2.972847   -0.530645    2.575799
     11          6           0       -3.213232   -1.918315    4.764113
     12          6           0       -2.704279   -3.897257    1.475409
     13          6           0       -1.895681   -3.317847    0.294378
     14          6           0       -0.620052   -4.068478   -0.180296
     15          8           0       -0.233062   -5.174829    0.142279
     16          8           0        0.030926   -3.310216   -1.042181
     17          7           0       -3.014496    2.317224    1.451667
     18          6           0       -2.261504    1.955993    2.544008
     19          6           0       -1.645082    3.150585    3.169085
     20          6           0       -1.951624    4.218724    2.309785
     21          6           0       -2.741125    3.684389    1.226492
     22          6           0       -0.728013    3.102284    4.291799
     23          6           0       -1.283704    5.552299    2.468551
     24          8           0       -0.499499    5.656092    3.444256
     25          6           0       -1.538110    6.678428    1.433078
     26          7           0       -4.901498    2.642921   -0.862574
     27          6           0       -4.436410    3.884768   -0.653369
     28          6           0       -5.179335    4.918543   -1.619291
     29          6           0       -6.145259    4.068141   -2.427104
     30          6           0       -6.006695    2.731119   -1.746169
     31          6           0       -5.811757    6.236015   -0.981901
     32          6           0       -5.837506    4.090426   -3.985272
     33          6           0       -7.082550    4.018606   -4.909501
     34          7           0       -5.684656   -0.046519   -0.836786
     35          6           0       -6.445091    0.295553   -1.848513
     36          6           0       -7.311389   -0.828763   -2.248086
     37          6           0       -6.758306   -1.847352   -1.468100
     38          6           0       -5.779376   -1.356203   -0.601464
     39          6           0       -8.534204   -0.697147   -3.107474
     40          6           0       -6.867590   -3.278753   -1.091132
     41          8           0       -7.590997   -4.101823   -1.530984
     42          6           0       -5.775764   -3.625845   -0.053327
     43          6           0       -6.541439   -4.234014    1.003203
     44          8           0       -6.978902   -5.378129    1.036848
     45          8           0       -6.795835   -3.345380    2.002994
     46          6           0       -7.651135   -3.709431    3.156653
     47          6           0        1.313982   -3.811708   -1.606524
     48          6           0        2.113593   -2.659007   -2.211676
     49          6           0        3.167432   -2.621559   -2.992887
     50          6           0        3.800560   -3.883326   -3.460188
     51          6           0        3.814879   -1.302161   -3.237402
     52          6           0        4.441112   -0.740161   -1.956911
     53          6           0        5.996251   -0.830077   -1.777988
     54          6           0        6.549938    0.086778   -0.639846
     55          6           0        6.898294    1.551579   -1.111373
     56          6           0        7.706817   -0.588478    0.108826
     57          6           0        9.105503   -0.461895   -0.611747
     58          6           0       10.090548    0.359417    0.266252
     59          6           0       11.301209   -0.558889    0.676044
     60          6           0       11.023810   -1.328281    2.055934
     61          6           0       12.514912    0.317322    0.829955
     62          6           0       13.772811   -0.320129    0.146401
     63          6           0       15.038320    0.411830    0.613705
     64          6           0       16.026526    0.654196   -0.493921
     65          6           0       17.511744    0.550931   -0.101116
     66          6           0       15.767184    1.825414   -1.504162
     67          1           0       -1.657677    0.612435    3.935412
     68          1           0       -3.198637    5.393134    0.103609
     69          1           0       -7.518148    1.764808   -2.948367
     70          1           0       -4.402542   -3.327715    2.859696
     71          1           0       -1.765371   -2.140063    3.144602
     72          1           0       -2.272501   -2.143427    5.267150
     73          1           0       -4.041058   -2.584856    5.002941
     74          1           0       -3.617310   -0.921443    4.942191
     75          1           0       -3.306680   -4.704216    1.057939
     76          1           0       -2.019481   -4.419303    2.144105
     77          1           0       -1.729395   -2.243966    0.385503
     78          1           0       -2.589794   -3.545407   -0.514515
     79          1           0        0.290500    2.955046    3.929955
     80          1           0       -0.920778    2.277487    4.976909
     81          1           0       -0.849681    3.961065    4.950964
     82          1           0       -1.096159    7.642784    1.685655
     83          1           0       -2.610704    6.759947    1.606286
     84          1           0       -1.256057    6.451057    0.404369
     85          1           0       -4.371890    5.284634   -2.252046
     86          1           0       -7.201322    4.278043   -2.257819
     87          1           0       -5.891671    5.993500    0.077324
     88          1           0       -6.773490    6.419945   -1.460281
     89          1           0       -5.121879    7.079127   -0.971574
     90          1           0       -5.216397    3.212150   -4.161968
     91          1           0       -5.251683    5.002431   -4.104732
     92          1           0       -6.915237    3.127976   -5.516224
     93          1           0       -6.970548    4.868276   -5.583044
     94          1           0       -8.009341    4.091548   -4.341237
     95          1           0       -9.274623   -0.072273   -2.607841
     96          1           0       -8.957076   -1.701907   -3.132175
     97          1           0       -8.247242   -0.275756   -4.071318
     98          1           0       -5.149403   -4.359739   -0.560546
     99          1           0       -8.082783   -2.839904    3.651055
    100          1           0       -7.097175   -4.191846    3.962763
    101          1           0       -8.475457   -4.327804    2.800083
    102          1           0        1.086359   -4.460897   -2.451366
    103          1           0        1.919650   -4.390308   -0.909476
    104          1           0        1.678722   -1.678205   -2.021169
    105          1           0        3.534067   -3.887678   -4.516558
    106          1           0        3.360158   -4.784898   -3.032267
    107          1           0        4.864255   -3.896985   -3.222288
    108          1           0        3.167431   -0.555434   -3.698197
    109          1           0        4.717812   -1.541612   -3.800402
    110          1           0        4.175688   -1.374703   -1.112084
    111          1           0        4.047648    0.234512   -1.666585
    112          1           0        6.392504   -0.751200   -2.790667
    113          1           0        6.263951   -1.863244   -1.556174
    114          1           0        5.785651    0.190037    0.129591
    115          1           0        7.843854    1.875611   -0.676664
    116          1           0        6.144861    2.310635   -0.898046
    117          1           0        6.969038    1.499109   -2.197068
    118          1           0        7.450001   -1.642643    0.214914
    119          1           0        7.693453   -0.091569    1.078609
    120          1           0        9.060393    0.112781   -1.537083
    121          1           0        9.413057   -1.487244   -0.815167
    122          1           0        9.656158    0.901693    1.106499
    123          1           0       10.455025    1.170727   -0.363588
    124          1           0       11.487225   -1.349392   -0.051285
    125          1           0       10.123823   -0.886447    2.483452
    126          1           0       11.846479   -1.197423    2.759077
    127          1           0       10.948255   -2.402968    1.893281
    128          1           0       12.814772    0.448488    1.870111
    129          1           0       12.348985    1.333868    0.472395
    130          1           0       13.682571   -0.269376   -0.938767
    131          1           0       13.847289   -1.341404    0.520046
    132          1           0       15.468130   -0.282936    1.335036
    133          1           0       14.945960    1.372742    1.118775
    134          1           0       15.987496   -0.249653   -1.101413
    135          1           0       17.547985    0.202415    0.931187
    136          1           0       17.999298    1.515759   -0.240142
    137          1           0       18.050176   -0.138765   -0.749572
    138          1           0       15.154918    2.597269   -1.037566
    139          1           0       15.360479    1.306902   -2.372303
    140          1           0       16.770008    2.204900   -1.694897
 ---------------------------------------------------------------------

 SCF Done:  E(RB-LYP) =  -3007.32690813     A.U. after   21 cycles

 Excitation energies and oscillator strengths:

 Excited State   1:      Singlet-A      1.7955 eV  690.55 nm  f=0.3038  <S**2>=0.000
     245 -> 248       -0.19066
     246 -> 247        0.69217
     246 <- 247       -0.15390
 This state for optimization and/or second-order correction.
 Total Energy, E(TD-HF/TD-DFT) =  -3007.26092655
 Copying the excited state density for this state as the 1-particle RhoCI density.

 Excited State   2:      Singlet-A      1.9291 eV  642.70 nm  f=0.0006  <S**2>=0.000
     244 -> 247        0.70200

 Excited State   3:      Singlet-A      1.9702 eV  629.30 nm  f=0.0147  <S**2>=0.000
     243 -> 247        0.55484
     245 -> 247        0.40851
     246 -> 248        0.12754

 Excited State   4:      Singlet-A      2.0883 eV  593.72 nm  f=0.0354  <S**2>=0.000
     243 -> 247       -0.42866
     245 -> 247        0.47967
     246 -> 248        0.27106

 Excited State   5:      Singlet-A      2.2461 eV  552.01 nm  f=0.0001  <S**2>=0.000
     242 -> 247        0.70706

 The electronic state is 1-A.
 Alpha  occ. eigenvalues --  -46.27408 -18.82292 -18.82004 -18.75994 -18.75966
 Alpha  occ. eigenvalues --  -18.75591 -18.75485 -14.04495 -14.03110 -14.00995
 Alpha  occ. eigenvalues --  -13.99949 -10.03823 -10.03472 -10.00443  -9.99645
 Alpha  occ. eigenvalues --   -9.98445  -9.98436  -9.97354  -9.97272  -9.96370
 Alpha  occ. eigenvalues --   -9.96273  -9.96186  -9.95250  -9.94777  -9.94495
 Alpha  occ. eigenvalues --   -9.94389  -9.94250  -9.94236  -9.93765  -9.93736
 Alpha  occ. eigenvalues --   -9.93525  -9.93508  -9.93506  -9.93465  -9.93271
 Alpha  occ. eigenvalues --   -9.93215  -9.93081  -9.93004  -9.92972  -9.92888
 Alpha  occ. eigenvalues --   -9.92855  -9.92517  -9.92469  -9.92365  -9.92310
 Alpha  occ. eigenvalues --   -9.92239  -9.91996  -9.91960  -9.91763  -9.91501
 Alpha  occ. eigenvalues --   -9.91285  -9.91246  -9.91027  -9.90967  -9.90959
 Alpha  occ. eigenvalues --   -9.90958  -9.90953  -9.90931  -9.90858  -9.90790
 Alpha  occ. eigenvalues --   -9.90769  -9.90747  -9.90726  -9.90367  -9.90225
 Alpha  occ. eigenvalues --   -9.90154  -2.92137  -1.72518  -1.72008  -1.71884
 Alpha  occ. eigenvalues --   -0.98924  -0.97637  -0.93980  -0.90040  -0.89494
 Alpha  occ. eigenvalues --   -0.88714  -0.87569  -0.86214  -0.85496  -0.84290
 Alpha  occ. eigenvalues --   -0.76400  -0.74398  -0.72819  -0.72806  -0.72361
 Alpha  occ. eigenvalues --   -0.71926  -0.71548  -0.70730  -0.70588  -0.70253
 Alpha  occ. eigenvalues --   -0.70064  -0.69360  -0.68285  -0.67832  -0.67154
 Alpha  occ. eigenvalues --   -0.66602  -0.66266  -0.65487  -0.65255  -0.64502
 Alpha  occ. eigenvalues --   -0.63504  -0.62874  -0.62612  -0.62124  -0.61600
 Alpha  occ. eigenvalues --   -0.60804  -0.59840  -0.59751  -0.59565  -0.58881
 Alpha  occ. eigenvalues --   -0.58217  -0.57255  -0.56894  -0.55445  -0.54681
 Alpha  occ. eigenvalues --   -0.54156  -0.53819  -0.52801  -0.52059  -0.51690
 Alpha  occ. eigenvalues --   -0.51323  -0.51260  -0.50904  -0.50414  -0.49970
 Alpha  occ. eigenvalues --   -0.49740  -0.49514  -0.47915  -0.47585  -0.46234
 Alpha  occ. eigenvalues --   -0.45999  -0.45732  -0.45665  -0.44894  -0.44358
 Alpha  occ. eigenvalues --   -0.44084  -0.43992  -0.43527  -0.42970  -0.42786
 Alpha  occ. eigenvalues --   -0.42168  -0.41469  -0.41419  -0.41258  -0.41014
 Alpha  occ. eigenvalues --   -0.40892  -0.40609  -0.40362  -0.40115  -0.39981
 Alpha  occ. eigenvalues --   -0.39821  -0.39556  -0.39436  -0.39376  -0.39235
 Alpha  occ. eigenvalues --   -0.39130  -0.38870  -0.38846  -0.38619  -0.38374
 Alpha  occ. eigenvalues --   -0.38229  -0.38085  -0.37927  -0.37898  -0.37676
 Alpha  occ. eigenvalues --   -0.37585  -0.37402  -0.36804  -0.36703  -0.36695
 Alpha  occ. eigenvalues --   -0.36294  -0.36238  -0.35875  -0.35796  -0.35555
 Alpha  occ. eigenvalues --   -0.35492  -0.35464  -0.35118  -0.35010  -0.34788
 Alpha  occ. eigenvalues --   -0.34754  -0.34658  -0.34264  -0.34119  -0.33999
 Alpha  occ. eigenvalues --   -0.33832  -0.33721  -0.33681  -0.33418  -0.33211
 Alpha  occ. eigenvalues --   -0.33028  -0.32838  -0.32749  -0.32606  -0.32531
 Alpha  occ. eigenvalues --   -0.32313  -0.32122  -0.31801  -0.31669  -0.31535
 Alpha  occ. eigenvalues --   -0.31180  -0.31155  -0.30858  -0.30639  -0.30580
 Alpha  occ. eigenvalues --   -0.30204  -0.30153  -0.30040  -0.29962  -0.29926
 Alpha  occ. eigenvalues --   -0.29505  -0.29243  -0.29174  -0.28887  -0.28801
 Alpha  occ. eigenvalues --   -0.28673  -0.28487  -0.28356  -0.28123  -0.27894
 Alpha  occ. eigenvalues --   -0.27684  -0.27278  -0.26741  -0.26699  -0.26149
 Alpha  occ. eigenvalues --   -0.26060  -0.25988  -0.25827  -0.25518  -0.25116
 Alpha  occ. eigenvalues --   -0.24821  -0.24790  -0.24295  -0.24220  -0.22853
 Alpha  occ. eigenvalues --   -0.22569  -0.22215  -0.21430  -0.21096  -0.20670
 Alpha  occ. eigenvalues --   -0.20279  -0.19712  -0.18743  -0.18476  -0.17577
 Alpha  occ. eigenvalues --   -0.15657
 Alpha virt. eigenvalues --   -0.11459  -0.07144  -0.06323  -0.05102  -0.03946
 Alpha virt. eigenvalues --   -0.02366  -0.01619  -0.01251  -0.00773   0.00283
 Alpha virt. eigenvalues --    0.00821   0.01737   0.02266   0.02627   0.02904

 Mulliken charges:
               1
     1  Mg   0.688741
     2  C    0.020061
     3  C   -0.052398
     4  C   -0.065882
     5  C   -0.111285
     6  N   -0.212711
     7  C   -0.081743
     8  C    0.036186
     9  C    0.007629
    10  C    0.006639
    11  C    0.172748
    12  C    0.073742
    13  C    0.073592
    14  C    0.072368
    15  O   -0.189543
    16  O   -0.241881
    17  N   -0.342683
    18  C    0.094832
    19  C   -0.133363
    20  C    0.037092
    21  C    0.110498
    22  C    0.208637
    23  C   -0.068198
    24  O   -0.194849
    25  C    0.127506
    26  N   -0.259347
    27  C    0.094957
    28  C   -0.014573
    29  C    0.029436
    30  C    0.042087
    31  C    0.121581
    32  C    0.072078
    33  C    0.086184
    34  N   -0.138536
    35  C    0.080926
    36  C   -0.241260
    37  C    0.121589
    38  C    0.036013
    39  C    0.191045
    40  C   -0.153189
    41  O   -0.066439
    42  C    0.087529
    43  C    0.100578
    44  O   -0.168688
    45  O   -0.283604
    46  C    0.216018
    47  C    0.325999
    48  C   -0.108962
    49  C   -0.206564
    50  C    0.155358
    51  C    0.232037
    52  C    0.015712
    53  C    0.094565
    54  C   -0.050109
    55  C    0.103755
    56  C    0.074090
    57  C    0.081354
    58  C    0.079122
    59  C   -0.063262
    60  C    0.097453
    61  C    0.086393
    62  C    0.061993
    63  C    0.140668
    64  C   -0.157505
    65  C    0.103525
    66  C    0.135682
    67  H   -0.066596
    68  H   -0.098582
    69  H   -0.066501
    70  H   -0.022411
    71  H   -0.024621
    72  H    0.010392
    73  H   -0.011100
    74  H   -0.008977
    75  H   -0.009129
    76  H   -0.011741
    77  H    0.028920
    78  H    0.007672
    79  H    0.010497
    80  H   -0.035031
    81  H    0.006426
    82  H   -0.010476
    83  H    0.016564
    84  H    0.034505
    85  H   -0.021020
    86  H   -0.032018
    87  H   -0.014109
    88  H    0.003498
    89  H   -0.006169
    90  H   -0.009562
    91  H   -0.015714
    92  H    0.001398
    93  H   -0.010679
    94  H    0.006728
    95  H    0.004109
    96  H    0.009958
    97  H    0.011089
    98  H    0.021063
    99  H    0.007514
   100  H    0.014016
   101  H    0.028351
   102  H    0.003841
   103  H    0.018634
   104  H   -0.043359
   105  H    0.005795
   106  H   -0.020597
   107  H    0.001300
   108  H   -0.011651
   109  H   -0.056453
   110  H   -0.027745
   111  H   -0.029489
   112  H   -0.039272
   113  H   -0.051129
   114  H   -0.042412
   115  H   -0.012091
   116  H   -0.012988
   117  H   -0.017526
   118  H   -0.034750
   119  H   -0.027702
   120  H   -0.021381
   121  H   -0.023278
   122  H   -0.024028
   123  H   -0.037400
   124  H   -0.030391
   125  H   -0.010956
   126  H   -0.019617
   127  H   -0.015045
   128  H   -0.039390
   129  H   -0.037219
   130  H   -0.019762
   131  H   -0.030525
   132  H   -0.049879
   133  H   -0.031685
   134  H   -0.048672
   135  H   -0.024697
   136  H   -0.024453
   137  H   -0.016700
   138  H   -0.008179
   139  H   -0.002776
   140  H   -0.026055
 Sum of Mulliken charges =  -0.00000

 Dipole moment (field-independent basis, Debye):
    X=             -0.5047    Y=              5.3176    Z=             -0.6064  Tot=              5.3758
 Quadrupole moment (field-independent basis, Debye-Ang):
   XX=           -397.5154   YY=           -441.0173   ZZ=           -390.3650
   XY=            -58.6025   XZ=            -19.2012   YZ=            -23.5922

 Normal termination of Gaussian 16 at Fri Apr 29 13:06:59 2022.
