 Gaussian 16, Revision A.03,
 Gaussian 16:  ES64L-G16RevA.03 25-Dec-2016

 -----------------------------------
 #p cam-b3lyp/Def2SVP td=(nstates=5)
 -----------------------------------

 ------------------------------------------------------
 step_301_chromophore_2 TDDFT with cam-b3lyp functional
 ------------------------------------------------------
 Symbolic Z-matrix:
 Charge =  0 Multiplicity = 1

                         Standard orientation:
 ---------------------------------------------------------------------
 Center     Atomic      Atomic             Coordinates (Angstroms)
 Number     Number       Type             X           Y           Z
 ---------------------------------------------------------------------
      1         12           0       -4.504872    1.233027    0.615119
      2          6           0       -5.151098   -2.250825    0.224205
      3          6           0       -2.311179    0.651260    3.061231
      4          6           0       -3.441239    4.330051    0.152360
      5          6           0       -6.689453    1.622660   -2.251322
      6          7           0       -3.816343   -0.577640    1.465723
      7          6           0       -4.195689   -1.846558    1.264911
      8          6           0       -3.619542   -2.846179    2.272601
      9          6           0       -2.824592   -1.928391    3.293225
     10          6           0       -2.972847   -0.530645    2.575799
     11          6           0       -3.213232   -1.918315    4.764113
     12          6           0       -2.704279   -3.897257    1.475409
     13          6           0       -1.895681   -3.317847    0.294378
     14          6           0       -0.620052   -4.068478   -0.180296
     15          8           0       -0.233062   -5.174829    0.142279
     16          8           0        0.030926   -3.310216   -1.042181
     17          7           0       -3.014496    2.317224    1.451667
     18          6           0       -2.261504    1.955993    2.544008
     19          6           0       -1.645082    3.150585    3.169085
     20          6           0       -1.951624    4.218724    2.309785
     21          6           0       -2.741125    3.684389    1.226492
     22          6           0       -0.728013    3.102284    4.291799
     23          6           0       -1.283704    5.552299    2.468551
     24          8           0       -0.499499    5.656092    3.444256
     25          6           0       -1.538110    6.678428    1.433078
     26          7           0       -4.901498    2.642921   -0.862574
     27          6           0       -4.436410    3.884768   -0.653369
     28          6           0       -5.179335    4.918543   -1.619291
     29          6           0       -6.145259    4.068141   -2.427104
     30          6           0       -6.006695    2.731119   -1.746169
     31          6           0       -5.811757    6.236015   -0.981901
     32          6           0       -5.837506    4.090426   -3.985272
     33          6           0       -7.082550    4.018606   -4.909501
     34          7           0       -5.684656   -0.046519   -0.836786
     35          6           0       -6.445091    0.295553   -1.848513
     36          6           0       -7.311389   -0.828763   -2.248086
     37          6           0       -6.758306   -1.847352   -1.468100
     38          6           0       -5.779376   -1.356203   -0.601464
     39          6           0       -8.534204   -0.697147   -3.107474
     40          6           0       -6.867590   -3.278753   -1.091132
     41          8           0       -7.590997   -4.101823   -1.530984
     42          6           0       -5.775764   -3.625845   -0.053327
     43          6           0       -6.541439   -4.234014    1.003203
     44          8           0       -6.978902   -5.378129    1.036848
     45          8           0       -6.795835   -3.345380    2.002994
     46          6           0       -7.651135   -3.709431    3.156653
     47          6           0        1.313982   -3.811708   -1.606524
     48          6           0        2.113593   -2.659007   -2.211676
     49          6           0        3.167432   -2.621559   -2.992887
     50          6           0        3.800560   -3.883326   -3.460188
     51          6           0        3.814879   -1.302161   -3.237402
     52          6           0        4.441112   -0.740161   -1.956911
     53          6           0        5.996251   -0.830077   -1.777988
     54          6           0        6.549938    0.086778   -0.639846
     55          6           0        6.898294    1.551579   -1.111373
     56          6           0        7.706817   -0.588478    0.108826
     57          6           0        9.105503   -0.461895   -0.611747
     58          6           0       10.090548    0.359417    0.266252
     59          6           0       11.301209   -0.558889    0.676044
     60          6           0       11.023810   -1.328281    2.055934
     61          6           0       12.514912    0.317322    0.829955
     62          6           0       13.772811   -0.320129    0.146401
     63          6           0       15.038320    0.411830    0.613705
     64          6           0       16.026526    0.654196   -0.493921
     65          6           0       17.511744    0.550931   -0.101116
     66          6           0       15.767184    1.825414   -1.504162
     67          1           0       -1.657677    0.612435    3.935412
     68          1           0       -3.198637    5.393134    0.103609
     69          1           0       -7.518148    1.764808   -2.948367
     70          1           0       -4.402542   -3.327715    2.859696
     71          1           0       -1.765371   -2.140063    3.144602
     72          1           0       -2.272501   -2.143427    5.267150
     73          1           0       -4.041058   -2.584856    5.002941
     74          1           0       -3.617310   -0.921443    4.942191
     75          1           0       -3.306680   -4.704216    1.057939
     76          1           0       -2.019481   -4.419303    2.144105
     77          1           0       -1.729395   -2.243966    0.385503
     78          1           0       -2.589794   -3.545407   -0.514515
     79          1           0        0.290500    2.955046    3.929955
     80          1           0       -0.920778    2.277487    4.976909
     81          1           0       -0.849681    3.961065    4.950964
     82          1           0       -1.096159    7.642784    1.685655
     83          1           0       -2.610704    6.759947    1.606286
     84          1           0       -1.256057    6.451057    0.404369
     85          1           0       -4.371890    5.284634   -2.252046
     86          1           0       -7.201322    4.278043   -2.257819
     87          1           0       -5.891671    5.993500    0.077324
     88          1           0       -6.773490    6.419945   -1.460281
     89          1           0       -5.121879    7.079127   -0.971574
     90          1           0       -5.216397    3.212150   -4.161968
     91          1           0       -5.251683    5.002431   -4.104732
     92          1           0       -6.915237    3.127976   -5.516224
     93          1           0       -6.970548    4.868276   -5.583044
     94          1           0       -8.009341    4.091548   -4.341237
     95          1           0       -9.274623   -0.072273   -2.607841
     96          1           0       -8.957076   -1.701907   -3.132175
     97          1           0       -8.247242   -0.275756   -4.071318
     98          1           0       -5.149403   -4.359739   -0.560546
     99          1           0       -8.082783   -2.839904    3.651055
    100          1           0       -7.097175   -4.191846    3.962763
    101          1           0       -8.475457   -4.327804    2.800083
    102          1           0        1.086359   -4.460897   -2.451366
    103          1           0        1.919650   -4.390308   -0.909476
    104          1           0        1.678722   -1.678205   -2.021169
    105          1           0        3.534067   -3.887678   -4.516558
    106          1           0        3.360158   -4.784898   -3.032267
    107          1           0        4.864255   -3.896985   -3.222288
    108          1           0        3.167431   -0.555434   -3.698197
    109          1           0        4.717812   -1.541612   -3.800402
    110          1           0        4.175688   -1.374703   -1.112084
    111          1           0        4.047648    0.234512   -1.666585
    112          1           0        6.392504   -0.751200   -2.790667
    113          1           0        6.263951   -1.863244   -1.556174
    114          1           0        5.785651    0.190037    0.129591
    115          1           0        7.843854    1.875611   -0.676664
    116          1           0        6.144861    2.310635   -0.898046
    117          1           0        6.969038    1.499109   -2.197068
    118          1           0        7.450001   -1.642643    0.214914
    119          1           0        7.693453   -0.091569    1.078609
    120          1           0        9.060393    0.112781   -1.537083
    121          1           0        9.413057   -1.487244   -0.815167
    122          1           0        9.656158    0.901693    1.106499
    123          1           0       10.455025    1.170727   -0.363588
    124          1           0       11.487225   -1.349392   -0.051285
    125          1           0       10.123823   -0.886447    2.483452
    126          1           0       11.846479   -1.197423    2.759077
    127          1           0       10.948255   -2.402968    1.893281
    128          1           0       12.814772    0.448488    1.870111
    129          1           0       12.348985    1.333868    0.472395
    130          1           0       13.682571   -0.269376   -0.938767
    131          1           0       13.847289   -1.341404    0.520046
    132          1           0       15.468130   -0.282936    1.335036
    133          1           0       14.945960    1.372742    1.118775
    134          1           0       15.987496   -0.249653   -1.101413
    135          1           0       17.547985    0.202415    0.931187
    136          1           0       17.999298    1.515759   -0.240142
    137          1           0       18.050176   -0.138765   -0.749572
    138          1           0       15.154918    2.597269   -1.037566
    139          1           0       15.360479    1.306902   -2.372303
    140          1           0       16.770008    2.204900   -1.694897
 ---------------------------------------------------------------------

 SCF Done:  E(RCAM-B3LYP) =  -3007.12884414     A.U. after   17 cycles

 Excitation energies and oscillator strengths:

 Excited State   1:      Singlet-A      1.7048 eV  727.26 nm  f=0.3751  <S**2>=0.000
     245 -> 248       -0.17780
     246 -> 247        0.68704
     245 <- 248       -0.10664
 This state for optimization and/or second-order correction.
 Total Energy, E(TD-HF/TD-DFT) =  -3007.06619330
 Copying the excited state density for this state as the 1-particle RhoCI density.

 Excited State   2:      Singlet-A      2.3077 eV  537.27 nm  f=0.0536  <S**2>=0.000
     245 -> 247        0.60435
     246 -> 248        0.35711

 Excited State   3:      Singlet-A      3.3756 eV  367.29 nm  f=0.2153  <S**2>=0.000
     242 -> 247        0.39019
     243 -> 247       -0.32895
     245 -> 247       -0.19938
     246 -> 248        0.39840

 Excited State   4:      Singlet-A      3.4421 eV  360.19 nm  f=0.2184  <S**2>=0.000
     243 -> 247        0.52156
     245 -> 247       -0.19437
     246 -> 248        0.34501
     246 -> 250        0.19636

 Excited State   5:      Singlet-A      3.5063 eV  353.60 nm  f=0.0668  <S**2>=0.000
     239 -> 247        0.20978
     240 -> 247        0.24811
     240 -> 249        0.16554
     241 -> 247        0.43115
     241 -> 249        0.14050
     241 -> 251        0.14227
     242 -> 247       -0.13979
     243 -> 247       -0.19108
     246 -> 248        0.14328

 The electronic state is 1-A.
 Alpha  occ. eigenvalues --  -46.88985 -19.25160 -19.25135 -19.19513 -19.18885
 Alpha  occ. eigenvalues --  -19.18849 -19.18509 -14.43673 -14.41712 -14.39384
 Alpha  occ. eigenvalues --  -14.38465 -10.39124 -10.39004 -10.35541 -10.35127
 Alpha  occ. eigenvalues --  -10.32615 -10.32514 -10.32052 -10.31547 -10.31010
 Alpha  occ. eigenvalues --  -10.30608 -10.30555 -10.29339 -10.29197 -10.28965
 Alpha  occ. eigenvalues --  -10.28936 -10.28663 -10.28241 -10.28215 -10.28159
 Alpha  occ. eigenvalues --  -10.27839 -10.27697 -10.27569 -10.27513 -10.27403
 Alpha  occ. eigenvalues --  -10.27226 -10.27023 -10.26860 -10.26838 -10.26582
 Alpha  occ. eigenvalues --  -10.26504 -10.26464 -10.26296 -10.26145 -10.26047
 Alpha  occ. eigenvalues --  -10.25842 -10.25774 -10.25723 -10.25606 -10.25431
 Alpha  occ. eigenvalues --  -10.25225 -10.24950 -10.24856 -10.24679 -10.24671
 Alpha  occ. eigenvalues --  -10.24630 -10.24614 -10.24603 -10.24544 -10.24461
 Alpha  occ. eigenvalues --  -10.24445 -10.24400 -10.24371 -10.23983 -10.23822
 Alpha  occ. eigenvalues --  -10.23793  -3.17617  -1.92473  -1.92068  -1.91940
 Alpha  occ. eigenvalues --   -1.17373  -1.16406  -1.12771  -1.08190  -1.07318
 Alpha  occ. eigenvalues --   -1.06854  -1.05515  -1.03954  -1.03034  -1.01635
 Alpha  occ. eigenvalues --   -0.93839  -0.91322  -0.89623  -0.89499  -0.89120
 Alpha  occ. eigenvalues --   -0.88634  -0.88136  -0.87297  -0.87166  -0.86849
 Alpha  occ. eigenvalues --   -0.86624  -0.85758  -0.84551  -0.84077  -0.83293
 Alpha  occ. eigenvalues --   -0.82661  -0.82333  -0.81420  -0.81048  -0.80409
 Alpha  occ. eigenvalues --   -0.79250  -0.78535  -0.78349  -0.77689  -0.77101
 Alpha  occ. eigenvalues --   -0.76173  -0.75103  -0.75086  -0.74860  -0.74122
 Alpha  occ. eigenvalues --   -0.73265  -0.72211  -0.71834  -0.70242  -0.69327
 Alpha  occ. eigenvalues --   -0.68801  -0.68410  -0.67242  -0.66387  -0.65778
 Alpha  occ. eigenvalues --   -0.65606  -0.65333  -0.64923  -0.64452  -0.63803
 Alpha  occ. eigenvalues --   -0.63785  -0.63286  -0.61749  -0.61342  -0.59851
 Alpha  occ. eigenvalues --   -0.59638  -0.59284  -0.59242  -0.58234  -0.57977
 Alpha  occ. eigenvalues --   -0.57653  -0.57451  -0.56802  -0.56259  -0.56006
 Alpha  occ. eigenvalues --   -0.55265  -0.54408  -0.54228  -0.54167  -0.53914
 Alpha  occ. eigenvalues --   -0.53783  -0.53495  -0.53296  -0.53017  -0.52688
 Alpha  occ. eigenvalues --   -0.52562  -0.52409  -0.52127  -0.51942  -0.51793
 Alpha  occ. eigenvalues --   -0.51624  -0.51377  -0.51258  -0.51018  -0.50932
 Alpha  occ. eigenvalues --   -0.50690  -0.50579  -0.50404  -0.50235  -0.50115
 Alpha  occ. eigenvalues --   -0.49837  -0.49704  -0.49425  -0.49262  -0.48940
 Alpha  occ. eigenvalues --   -0.48819  -0.48362  -0.48223  -0.47863  -0.47705
 Alpha  occ. eigenvalues --   -0.47404  -0.47335  -0.47286  -0.46993  -0.46911
 Alpha  occ. eigenvalues --   -0.46687  -0.46504  -0.46138  -0.45864  -0.45817
 Alpha  occ. eigenvalues --   -0.45748  -0.45569  -0.45410  -0.45326  -0.44865
 Alpha  occ. eigenvalues --   -0.44791  -0.44668  -0.44600  -0.44219  -0.44169
 Alpha  occ. eigenvalues --   -0.44089  -0.43906  -0.43651  -0.43408  -0.43119
 Alpha  occ. eigenvalues --   -0.42538  -0.42447  -0.42227  -0.42102  -0.41808
 Alpha  occ. eigenvalues --   -0.41734  -0.41544  -0.41375  -0.41262  -0.41139
 Alpha  occ. eigenvalues --   -0.41104  -0.40590  -0.40377  -0.40123  -0.39879
 Alpha  occ. eigenvalues --   -0.39852  -0.39555  -0.39428  -0.39094  -0.38796
 Alpha  occ. eigenvalues --   -0.38736  -0.38061  -0.37544  -0.37490  -0.37240
 Alpha  occ. eigenvalues --   -0.36999  -0.36853  -0.36623  -0.36512  -0.36392
 Alpha  occ. eigenvalues --   -0.35849  -0.35460  -0.34883  -0.34433  -0.33744
 Alpha  occ. eigenvalues --   -0.33621  -0.33403  -0.32872  -0.31055  -0.30740
 Alpha  occ. eigenvalues --   -0.30724  -0.30051  -0.29579  -0.29411  -0.24537
 Alpha  occ. eigenvalues --   -0.20884
 Alpha virt. eigenvalues --   -0.08424  -0.02099   0.00332   0.00901   0.02016
 Alpha virt. eigenvalues --    0.04779   0.05726   0.06446   0.07072   0.07094
 Alpha virt. eigenvalues --    0.07589   0.08141   0.08676   0.08816   0.09005

 Mulliken charges:
               1
     1  Mg   0.821481
     2  C    0.005741
     3  C   -0.057240
     4  C   -0.089597
     5  C   -0.129448
     6  N   -0.278526
     7  C   -0.043043
     8  C   -0.008725
     9  C   -0.037699
    10  C    0.010469
    11  C    0.107832
    12  C    0.029157
    13  C    0.000127
    14  C    0.158350
    15  O   -0.233229
    16  O   -0.306521
    17  N   -0.426789
    18  C    0.095200
    19  C   -0.132619
    20  C   -0.031265
    21  C    0.138806
    22  C    0.143878
    23  C    0.006061
    24  O   -0.237990
    25  C    0.047884
    26  N   -0.335791
    27  C    0.115562
    28  C   -0.070482
    29  C   -0.029946
    30  C    0.072477
    31  C    0.066129
    32  C    0.021771
    33  C    0.019681
    34  N   -0.225422
    35  C    0.096139
    36  C   -0.227358
    37  C    0.042594
    38  C    0.062879
    39  C    0.133503
    40  C   -0.048672
    41  O   -0.101239
    42  C    0.007578
    43  C    0.189271
    44  O   -0.206227
    45  O   -0.348053
    46  C    0.180398
    47  C    0.298003
    48  C   -0.130341
    49  C   -0.227469
    50  C    0.091650
    51  C    0.162207
    52  C   -0.037915
    53  C    0.047458
    54  C   -0.107022
    55  C    0.045642
    56  C    0.026802
    57  C    0.021359
    58  C    0.025385
    59  C   -0.119869
    60  C    0.044138
    61  C    0.035522
    62  C    0.009107
    63  C    0.082877
    64  C   -0.218179
    65  C    0.046795
    66  C    0.076314
    67  H   -0.029651
    68  H   -0.064529
    69  H   -0.030531
    70  H    0.012172
    71  H    0.010078
    72  H    0.033611
    73  H    0.012578
    74  H    0.017551
    75  H    0.017561
    76  H    0.021484
    77  H    0.058823
    78  H    0.035746
    79  H    0.038001
    80  H   -0.009368
    81  H    0.036297
    82  H    0.024889
    83  H    0.039808
    84  H    0.061257
    85  H    0.013682
    86  H    0.002433
    87  H    0.010824
    88  H    0.026774
    89  H    0.016544
    90  H    0.020306
    91  H    0.012101
    92  H    0.024387
    93  H    0.014370
    94  H    0.027554
    95  H    0.031343
    96  H    0.037980
    97  H    0.035447
    98  H    0.061701
    99  H    0.031478
   100  H    0.034316
   101  H    0.053716
   102  H    0.029994
   103  H    0.047476
   104  H   -0.007200
   105  H    0.030325
   106  H    0.004511
   107  H    0.023221
   108  H    0.021142
   109  H   -0.023988
   110  H    0.002952
   111  H   -0.000686
   112  H   -0.013102
   113  H   -0.023685
   114  H   -0.008470
   115  H    0.008902
   116  H    0.012118
   117  H    0.005848
   118  H   -0.005500
   119  H   -0.000527
   120  H    0.007199
   121  H    0.005013
   122  H    0.003065
   123  H   -0.007513
   124  H    0.001461
   125  H    0.010696
   126  H    0.004030
   127  H    0.008179
   128  H   -0.010655
   129  H   -0.009445
   130  H    0.006437
   131  H   -0.002699
   132  H   -0.018849
   133  H   -0.004173
   134  H   -0.015282
   135  H    0.000127
   136  H   -0.001356
   137  H    0.007707
   138  H    0.014269
   139  H    0.019625
   140  H   -0.001451
 Sum of Mulliken charges =  -0.00000

 Dipole moment (field-independent basis, Debye):
    X=             -0.8370    Y=              5.2927    Z=             -0.5669  Tot=              5.3884
 Quadrupole moment (field-independent basis, Debye-Ang):
   XX=           -392.7889   YY=           -439.4150   ZZ=           -389.3752
   XY=            -58.4077   XZ=            -19.2462   YZ=            -25.0253

 Normal termination of Gaussian 16 at Fri Apr 29 12:12:14 2022.
