 Gaussian 16, Revision A.03,
 Gaussian 16:  ES64L-G16RevA.03 25-Dec-2016

 ---------------------------------
 #p PBE1PBE/Def2SVP td=(nstates=5)
 ---------------------------------

 ----------------------------------------------------
 step_301_chromophore_2 TDDFT with PBE1PBE functional
 ----------------------------------------------------
 Symbolic Z-matrix:
 Charge =  0 Multiplicity = 1

                         Standard orientation:
 ---------------------------------------------------------------------
 Center     Atomic      Atomic             Coordinates (Angstroms)
 Number     Number       Type             X           Y           Z
 ---------------------------------------------------------------------
      1         12           0       -4.504872    1.233027    0.615119
      2          6           0       -5.151098   -2.250825    0.224205
      3          6           0       -2.311179    0.651260    3.061231
      4          6           0       -3.441239    4.330051    0.152360
      5          6           0       -6.689453    1.622660   -2.251322
      6          7           0       -3.816343   -0.577640    1.465723
      7          6           0       -4.195689   -1.846558    1.264911
      8          6           0       -3.619542   -2.846179    2.272601
      9          6           0       -2.824592   -1.928391    3.293225
     10          6           0       -2.972847   -0.530645    2.575799
     11          6           0       -3.213232   -1.918315    4.764113
     12          6           0       -2.704279   -3.897257    1.475409
     13          6           0       -1.895681   -3.317847    0.294378
     14          6           0       -0.620052   -4.068478   -0.180296
     15          8           0       -0.233062   -5.174829    0.142279
     16          8           0        0.030926   -3.310216   -1.042181
     17          7           0       -3.014496    2.317224    1.451667
     18          6           0       -2.261504    1.955993    2.544008
     19          6           0       -1.645082    3.150585    3.169085
     20          6           0       -1.951624    4.218724    2.309785
     21          6           0       -2.741125    3.684389    1.226492
     22          6           0       -0.728013    3.102284    4.291799
     23          6           0       -1.283704    5.552299    2.468551
     24          8           0       -0.499499    5.656092    3.444256
     25          6           0       -1.538110    6.678428    1.433078
     26          7           0       -4.901498    2.642921   -0.862574
     27          6           0       -4.436410    3.884768   -0.653369
     28          6           0       -5.179335    4.918543   -1.619291
     29          6           0       -6.145259    4.068141   -2.427104
     30          6           0       -6.006695    2.731119   -1.746169
     31          6           0       -5.811757    6.236015   -0.981901
     32          6           0       -5.837506    4.090426   -3.985272
     33          6           0       -7.082550    4.018606   -4.909501
     34          7           0       -5.684656   -0.046519   -0.836786
     35          6           0       -6.445091    0.295553   -1.848513
     36          6           0       -7.311389   -0.828763   -2.248086
     37          6           0       -6.758306   -1.847352   -1.468100
     38          6           0       -5.779376   -1.356203   -0.601464
     39          6           0       -8.534204   -0.697147   -3.107474
     40          6           0       -6.867590   -3.278753   -1.091132
     41          8           0       -7.590997   -4.101823   -1.530984
     42          6           0       -5.775764   -3.625845   -0.053327
     43          6           0       -6.541439   -4.234014    1.003203
     44          8           0       -6.978902   -5.378129    1.036848
     45          8           0       -6.795835   -3.345380    2.002994
     46          6           0       -7.651135   -3.709431    3.156653
     47          6           0        1.313982   -3.811708   -1.606524
     48          6           0        2.113593   -2.659007   -2.211676
     49          6           0        3.167432   -2.621559   -2.992887
     50          6           0        3.800560   -3.883326   -3.460188
     51          6           0        3.814879   -1.302161   -3.237402
     52          6           0        4.441112   -0.740161   -1.956911
     53          6           0        5.996251   -0.830077   -1.777988
     54          6           0        6.549938    0.086778   -0.639846
     55          6           0        6.898294    1.551579   -1.111373
     56          6           0        7.706817   -0.588478    0.108826
     57          6           0        9.105503   -0.461895   -0.611747
     58          6           0       10.090548    0.359417    0.266252
     59          6           0       11.301209   -0.558889    0.676044
     60          6           0       11.023810   -1.328281    2.055934
     61          6           0       12.514912    0.317322    0.829955
     62          6           0       13.772811   -0.320129    0.146401
     63          6           0       15.038320    0.411830    0.613705
     64          6           0       16.026526    0.654196   -0.493921
     65          6           0       17.511744    0.550931   -0.101116
     66          6           0       15.767184    1.825414   -1.504162
     67          1           0       -1.657677    0.612435    3.935412
     68          1           0       -3.198637    5.393134    0.103609
     69          1           0       -7.518148    1.764808   -2.948367
     70          1           0       -4.402542   -3.327715    2.859696
     71          1           0       -1.765371   -2.140063    3.144602
     72          1           0       -2.272501   -2.143427    5.267150
     73          1           0       -4.041058   -2.584856    5.002941
     74          1           0       -3.617310   -0.921443    4.942191
     75          1           0       -3.306680   -4.704216    1.057939
     76          1           0       -2.019481   -4.419303    2.144105
     77          1           0       -1.729395   -2.243966    0.385503
     78          1           0       -2.589794   -3.545407   -0.514515
     79          1           0        0.290500    2.955046    3.929955
     80          1           0       -0.920778    2.277487    4.976909
     81          1           0       -0.849681    3.961065    4.950964
     82          1           0       -1.096159    7.642784    1.685655
     83          1           0       -2.610704    6.759947    1.606286
     84          1           0       -1.256057    6.451057    0.404369
     85          1           0       -4.371890    5.284634   -2.252046
     86          1           0       -7.201322    4.278043   -2.257819
     87          1           0       -5.891671    5.993500    0.077324
     88          1           0       -6.773490    6.419945   -1.460281
     89          1           0       -5.121879    7.079127   -0.971574
     90          1           0       -5.216397    3.212150   -4.161968
     91          1           0       -5.251683    5.002431   -4.104732
     92          1           0       -6.915237    3.127976   -5.516224
     93          1           0       -6.970548    4.868276   -5.583044
     94          1           0       -8.009341    4.091548   -4.341237
     95          1           0       -9.274623   -0.072273   -2.607841
     96          1           0       -8.957076   -1.701907   -3.132175
     97          1           0       -8.247242   -0.275756   -4.071318
     98          1           0       -5.149403   -4.359739   -0.560546
     99          1           0       -8.082783   -2.839904    3.651055
    100          1           0       -7.097175   -4.191846    3.962763
    101          1           0       -8.475457   -4.327804    2.800083
    102          1           0        1.086359   -4.460897   -2.451366
    103          1           0        1.919650   -4.390308   -0.909476
    104          1           0        1.678722   -1.678205   -2.021169
    105          1           0        3.534067   -3.887678   -4.516558
    106          1           0        3.360158   -4.784898   -3.032267
    107          1           0        4.864255   -3.896985   -3.222288
    108          1           0        3.167431   -0.555434   -3.698197
    109          1           0        4.717812   -1.541612   -3.800402
    110          1           0        4.175688   -1.374703   -1.112084
    111          1           0        4.047648    0.234512   -1.666585
    112          1           0        6.392504   -0.751200   -2.790667
    113          1           0        6.263951   -1.863244   -1.556174
    114          1           0        5.785651    0.190037    0.129591
    115          1           0        7.843854    1.875611   -0.676664
    116          1           0        6.144861    2.310635   -0.898046
    117          1           0        6.969038    1.499109   -2.197068
    118          1           0        7.450001   -1.642643    0.214914
    119          1           0        7.693453   -0.091569    1.078609
    120          1           0        9.060393    0.112781   -1.537083
    121          1           0        9.413057   -1.487244   -0.815167
    122          1           0        9.656158    0.901693    1.106499
    123          1           0       10.455025    1.170727   -0.363588
    124          1           0       11.487225   -1.349392   -0.051285
    125          1           0       10.123823   -0.886447    2.483452
    126          1           0       11.846479   -1.197423    2.759077
    127          1           0       10.948255   -2.402968    1.893281
    128          1           0       12.814772    0.448488    1.870111
    129          1           0       12.348985    1.333868    0.472395
    130          1           0       13.682571   -0.269376   -0.938767
    131          1           0       13.847289   -1.341404    0.520046
    132          1           0       15.468130   -0.282936    1.335036
    133          1           0       14.945960    1.372742    1.118775
    134          1           0       15.987496   -0.249653   -1.101413
    135          1           0       17.547985    0.202415    0.931187
    136          1           0       17.999298    1.515759   -0.240142
    137          1           0       18.050176   -0.138765   -0.749572
    138          1           0       15.154918    2.597269   -1.037566
    139          1           0       15.360479    1.306902   -2.372303
    140          1           0       16.770008    2.204900   -1.694897
 ---------------------------------------------------------------------

 SCF Done:  E(RPBE1PBE) =  -3005.31723645     A.U. after   15 cycles

 Excitation energies and oscillator strengths:

 Excited State   1:      Singlet-A      1.8469 eV  671.31 nm  f=0.3649  <S**2>=0.000
     245 -> 248        0.17338
     246 -> 247        0.69455
     246 <- 247       -0.11112
 This state for optimization and/or second-order correction.
 Total Energy, E(TD-HF/TD-DFT) =  -3005.24936436
 Copying the excited state density for this state as the 1-particle RhoCI density.

 Excited State   2:      Singlet-A      2.2983 eV  539.46 nm  f=0.0582  <S**2>=0.000
     245 -> 247        0.62194
     246 -> 248       -0.32713

 Excited State   3:      Singlet-A      2.9942 eV  414.08 nm  f=0.0015  <S**2>=0.000
     241 -> 247       -0.37031
     242 -> 247        0.46200
     243 -> 247       -0.33010

 Excited State   4:      Singlet-A      3.0444 eV  407.26 nm  f=0.0011  <S**2>=0.000
     241 -> 247       -0.10253
     242 -> 247        0.31682
     243 -> 247        0.58698

 Excited State   5:      Singlet-A      3.1294 eV  396.20 nm  f=0.0069  <S**2>=0.000
     241 -> 247        0.55552
     242 -> 247        0.34368
     243 -> 247       -0.13608
     246 -> 248       -0.14579

 The electronic state is 1-A.
 Alpha  occ. eigenvalues --  -46.92397 -19.25793 -19.25668 -19.19511 -19.19127
 Alpha  occ. eigenvalues --  -19.19007 -19.18926 -14.43054 -14.41415 -14.39152
 Alpha  occ. eigenvalues --  -14.37962 -10.36008 -10.35976 -10.32858 -10.32129
 Alpha  occ. eigenvalues --  -10.29908 -10.29774 -10.29739 -10.29557 -10.28654
 Alpha  occ. eigenvalues --  -10.28389 -10.28359 -10.27164 -10.26794 -10.26561
 Alpha  occ. eigenvalues --  -10.26478 -10.26415 -10.26087 -10.25754 -10.25664
 Alpha  occ. eigenvalues --  -10.25644 -10.25587 -10.25242 -10.25154 -10.24982
 Alpha  occ. eigenvalues --  -10.24840 -10.24489 -10.24431 -10.24381 -10.24188
 Alpha  occ. eigenvalues --  -10.24107 -10.24016 -10.24014 -10.23903 -10.23594
 Alpha  occ. eigenvalues --  -10.23431 -10.23386 -10.23193 -10.23137 -10.22949
 Alpha  occ. eigenvalues --  -10.22922 -10.22526 -10.22422 -10.22219 -10.22216
 Alpha  occ. eigenvalues --  -10.22197 -10.22195 -10.22159 -10.22072 -10.22040
 Alpha  occ. eigenvalues --  -10.21942 -10.21839 -10.21783 -10.21524 -10.21355
 Alpha  occ. eigenvalues --  -10.21221  -3.14604  -1.87399  -1.86975  -1.86849
 Alpha  occ. eigenvalues --   -1.12200  -1.11017  -1.07371  -1.03048  -1.02175
 Alpha  occ. eigenvalues --   -1.01546  -1.00075  -0.98537  -0.97705  -0.96415
 Alpha  occ. eigenvalues --   -0.88041  -0.85465  -0.83829  -0.83711  -0.83336
 Alpha  occ. eigenvalues --   -0.82731  -0.82489  -0.81596  -0.81301  -0.81158
 Alpha  occ. eigenvalues --   -0.80989  -0.80009  -0.78773  -0.78291  -0.77520
 Alpha  occ. eigenvalues --   -0.76902  -0.76518  -0.75665  -0.75369  -0.74682
 Alpha  occ. eigenvalues --   -0.73405  -0.72763  -0.72578  -0.72053  -0.71401
 Alpha  occ. eigenvalues --   -0.70318  -0.69495  -0.69181  -0.68967  -0.68287
 Alpha  occ. eigenvalues --   -0.67570  -0.66665  -0.66290  -0.64552  -0.63676
 Alpha  occ. eigenvalues --   -0.63022  -0.62836  -0.61805  -0.60610  -0.60208
 Alpha  occ. eigenvalues --   -0.59817  -0.59777  -0.59446  -0.58989  -0.58293
 Alpha  occ. eigenvalues --   -0.57907  -0.57796  -0.55947  -0.55596  -0.54364
 Alpha  occ. eigenvalues --   -0.54143  -0.53838  -0.53753  -0.52785  -0.52322
 Alpha  occ. eigenvalues --   -0.52170  -0.51792  -0.51348  -0.50633  -0.50461
 Alpha  occ. eigenvalues --   -0.49887  -0.48920  -0.48763  -0.48508  -0.48435
 Alpha  occ. eigenvalues --   -0.48342  -0.47999  -0.47742  -0.47510  -0.47253
 Alpha  occ. eigenvalues --   -0.47034  -0.46945  -0.46575  -0.46495  -0.46347
 Alpha  occ. eigenvalues --   -0.46121  -0.45956  -0.45721  -0.45572  -0.45490
 Alpha  occ. eigenvalues --   -0.45338  -0.45108  -0.44989  -0.44760  -0.44650
 Alpha  occ. eigenvalues --   -0.44442  -0.44260  -0.43928  -0.43924  -0.43568
 Alpha  occ. eigenvalues --   -0.43417  -0.43017  -0.42910  -0.42460  -0.42316
 Alpha  occ. eigenvalues --   -0.42160  -0.41977  -0.41908  -0.41736  -0.41577
 Alpha  occ. eigenvalues --   -0.41382  -0.41107  -0.40958  -0.40539  -0.40513
 Alpha  occ. eigenvalues --   -0.40424  -0.40254  -0.40072  -0.40009  -0.39656
 Alpha  occ. eigenvalues --   -0.39547  -0.39391  -0.39306  -0.38915  -0.38839
 Alpha  occ. eigenvalues --   -0.38823  -0.38626  -0.38400  -0.38204  -0.37977
 Alpha  occ. eigenvalues --   -0.37525  -0.37123  -0.36970  -0.36926  -0.36708
 Alpha  occ. eigenvalues --   -0.36534  -0.36400  -0.36248  -0.36062  -0.35961
 Alpha  occ. eigenvalues --   -0.35879  -0.35585  -0.35159  -0.35033  -0.34811
 Alpha  occ. eigenvalues --   -0.34635  -0.34365  -0.34346  -0.33885  -0.33720
 Alpha  occ. eigenvalues --   -0.33556  -0.32901  -0.32554  -0.32364  -0.32262
 Alpha  occ. eigenvalues --   -0.31899  -0.31687  -0.31674  -0.31395  -0.31258
 Alpha  occ. eigenvalues --   -0.30668  -0.30298  -0.29712  -0.29587  -0.28941
 Alpha  occ. eigenvalues --   -0.28527  -0.28389  -0.27872  -0.26687  -0.25902
 Alpha  occ. eigenvalues --   -0.25598  -0.25374  -0.25124  -0.24648  -0.21387
 Alpha  occ. eigenvalues --   -0.18549
 Alpha virt. eigenvalues --   -0.10989  -0.05555  -0.03960  -0.02550  -0.01699
 Alpha virt. eigenvalues --    0.00413   0.01314   0.01984   0.02512   0.03257
 Alpha virt. eigenvalues --    0.03770   0.04510   0.05177   0.05642   0.05759

 Mulliken charges:
               1
     1  Mg   0.966580
     2  C    0.012483
     3  C   -0.060131
     4  C   -0.085937
     5  C   -0.118360
     6  N   -0.388901
     7  C    0.030778
     8  C   -0.078457
     9  C   -0.104695
    10  C    0.041832
    11  C    0.045804
    12  C   -0.014534
    13  C   -0.088148
    14  C    0.233949
    15  O   -0.268876
    16  O   -0.340010
    17  N   -0.533785
    18  C    0.127102
    19  C   -0.160847
    20  C   -0.067931
    21  C    0.166261
    22  C    0.080502
    23  C    0.053645
    24  O   -0.271208
    25  C   -0.026477
    26  N   -0.432678
    27  C    0.138645
    28  C   -0.140034
    29  C   -0.100301
    30  C    0.101301
    31  C    0.003342
    32  C   -0.037092
    33  C   -0.055885
    34  N   -0.354930
    35  C    0.121772
    36  C   -0.231949
    37  C   -0.014545
    38  C    0.105120
    39  C    0.068966
    40  C    0.057587
    41  O   -0.147795
    42  C   -0.113991
    43  C    0.286148
    44  O   -0.244909
    45  O   -0.380600
    46  C    0.126952
    47  C    0.259055
    48  C   -0.131649
    49  C   -0.279243
    50  C    0.025810
    51  C    0.088940
    52  C   -0.096052
    53  C   -0.004233
    54  C   -0.190196
    55  C   -0.016650
    56  C   -0.030990
    57  C   -0.039869
    58  C   -0.029317
    59  C   -0.204591
    60  C   -0.011140
    61  C   -0.016402
    62  C   -0.058674
    63  C    0.026905
    64  C   -0.308337
    65  C   -0.014162
    66  C    0.014704
    67  H    0.001884
    68  H   -0.027839
    69  H    0.003556
    70  H    0.052855
    71  H    0.048908
    72  H    0.060082
    73  H    0.040372
    74  H    0.046073
    75  H    0.051627
    76  H    0.052869
    77  H    0.091012
    78  H    0.073291
    79  H    0.067394
    80  H    0.019062
    81  H    0.064565
    82  H    0.053508
    83  H    0.066507
    84  H    0.086447
    85  H    0.051163
    86  H    0.040005
    87  H    0.040186
    88  H    0.054305
    89  H    0.043127
    90  H    0.053595
    91  H    0.044479
    92  H    0.052039
    93  H    0.043207
    94  H    0.053041
    95  H    0.058712
    96  H    0.066845
    97  H    0.061756
    98  H    0.096030
    99  H    0.052893
   100  H    0.054213
   101  H    0.073983
   102  H    0.056899
   103  H    0.072222
   104  H    0.023715
   105  H    0.059253
   106  H    0.031742
   107  H    0.050379
   108  H    0.052590
   109  H    0.012144
   110  H    0.038287
   111  H    0.031267
   112  H    0.017597
   113  H    0.009574
   114  H    0.029704
   115  H    0.039425
   116  H    0.039650
   117  H    0.033482
   118  H    0.027655
   119  H    0.031801
   120  H    0.039520
   121  H    0.036505
   122  H    0.032528
   123  H    0.025328
   124  H    0.037832
   125  H    0.037844
   126  H    0.030545
   127  H    0.035138
   128  H    0.022660
   129  H    0.022770
   130  H    0.039398
   131  H    0.031243
   132  H    0.014643
   133  H    0.027408
   134  H    0.025724
   135  H    0.027637
   136  H    0.025930
   137  H    0.035030
   138  H    0.041127
   139  H    0.046026
   140  H    0.026353
 Sum of Mulliken charges =  -0.00000

 Dipole moment (field-independent basis, Debye):
    X=             -0.6408    Y=              5.6210    Z=             -0.4286  Tot=              5.6736
 Quadrupole moment (field-independent basis, Debye-Ang):
   XX=           -390.8433   YY=           -435.6677   ZZ=           -385.5927
   XY=            -60.6420   XZ=            -18.8126   YZ=            -25.6362

 Normal termination of Gaussian 16 at Fri Apr 29 12:30:26 2022.
