 Gaussian 16, Revision A.03,
 Gaussian 16:  ES64L-G16RevA.03 25-Dec-2016

 --------------------------------
 #p wB97XD/Def2SVP td=(nstates=5)
 --------------------------------

 ---------------------------------------------------
 step_301_chromophore_2 TDDFT with wB97XD functional
 ---------------------------------------------------
 Symbolic Z-matrix:
 Charge =  0 Multiplicity = 1

                         Standard orientation:
 ---------------------------------------------------------------------
 Center     Atomic      Atomic             Coordinates (Angstroms)
 Number     Number       Type             X           Y           Z
 ---------------------------------------------------------------------
      1         12           0       -4.504872    1.233027    0.615119
      2          6           0       -5.151098   -2.250825    0.224205
      3          6           0       -2.311179    0.651260    3.061231
      4          6           0       -3.441239    4.330051    0.152360
      5          6           0       -6.689453    1.622660   -2.251322
      6          7           0       -3.816343   -0.577640    1.465723
      7          6           0       -4.195689   -1.846558    1.264911
      8          6           0       -3.619542   -2.846179    2.272601
      9          6           0       -2.824592   -1.928391    3.293225
     10          6           0       -2.972847   -0.530645    2.575799
     11          6           0       -3.213232   -1.918315    4.764113
     12          6           0       -2.704279   -3.897257    1.475409
     13          6           0       -1.895681   -3.317847    0.294378
     14          6           0       -0.620052   -4.068478   -0.180296
     15          8           0       -0.233062   -5.174829    0.142279
     16          8           0        0.030926   -3.310216   -1.042181
     17          7           0       -3.014496    2.317224    1.451667
     18          6           0       -2.261504    1.955993    2.544008
     19          6           0       -1.645082    3.150585    3.169085
     20          6           0       -1.951624    4.218724    2.309785
     21          6           0       -2.741125    3.684389    1.226492
     22          6           0       -0.728013    3.102284    4.291799
     23          6           0       -1.283704    5.552299    2.468551
     24          8           0       -0.499499    5.656092    3.444256
     25          6           0       -1.538110    6.678428    1.433078
     26          7           0       -4.901498    2.642921   -0.862574
     27          6           0       -4.436410    3.884768   -0.653369
     28          6           0       -5.179335    4.918543   -1.619291
     29          6           0       -6.145259    4.068141   -2.427104
     30          6           0       -6.006695    2.731119   -1.746169
     31          6           0       -5.811757    6.236015   -0.981901
     32          6           0       -5.837506    4.090426   -3.985272
     33          6           0       -7.082550    4.018606   -4.909501
     34          7           0       -5.684656   -0.046519   -0.836786
     35          6           0       -6.445091    0.295553   -1.848513
     36          6           0       -7.311389   -0.828763   -2.248086
     37          6           0       -6.758306   -1.847352   -1.468100
     38          6           0       -5.779376   -1.356203   -0.601464
     39          6           0       -8.534204   -0.697147   -3.107474
     40          6           0       -6.867590   -3.278753   -1.091132
     41          8           0       -7.590997   -4.101823   -1.530984
     42          6           0       -5.775764   -3.625845   -0.053327
     43          6           0       -6.541439   -4.234014    1.003203
     44          8           0       -6.978902   -5.378129    1.036848
     45          8           0       -6.795835   -3.345380    2.002994
     46          6           0       -7.651135   -3.709431    3.156653
     47          6           0        1.313982   -3.811708   -1.606524
     48          6           0        2.113593   -2.659007   -2.211676
     49          6           0        3.167432   -2.621559   -2.992887
     50          6           0        3.800560   -3.883326   -3.460188
     51          6           0        3.814879   -1.302161   -3.237402
     52          6           0        4.441112   -0.740161   -1.956911
     53          6           0        5.996251   -0.830077   -1.777988
     54          6           0        6.549938    0.086778   -0.639846
     55          6           0        6.898294    1.551579   -1.111373
     56          6           0        7.706817   -0.588478    0.108826
     57          6           0        9.105503   -0.461895   -0.611747
     58          6           0       10.090548    0.359417    0.266252
     59          6           0       11.301209   -0.558889    0.676044
     60          6           0       11.023810   -1.328281    2.055934
     61          6           0       12.514912    0.317322    0.829955
     62          6           0       13.772811   -0.320129    0.146401
     63          6           0       15.038320    0.411830    0.613705
     64          6           0       16.026526    0.654196   -0.493921
     65          6           0       17.511744    0.550931   -0.101116
     66          6           0       15.767184    1.825414   -1.504162
     67          1           0       -1.657677    0.612435    3.935412
     68          1           0       -3.198637    5.393134    0.103609
     69          1           0       -7.518148    1.764808   -2.948367
     70          1           0       -4.402542   -3.327715    2.859696
     71          1           0       -1.765371   -2.140063    3.144602
     72          1           0       -2.272501   -2.143427    5.267150
     73          1           0       -4.041058   -2.584856    5.002941
     74          1           0       -3.617310   -0.921443    4.942191
     75          1           0       -3.306680   -4.704216    1.057939
     76          1           0       -2.019481   -4.419303    2.144105
     77          1           0       -1.729395   -2.243966    0.385503
     78          1           0       -2.589794   -3.545407   -0.514515
     79          1           0        0.290500    2.955046    3.929955
     80          1           0       -0.920778    2.277487    4.976909
     81          1           0       -0.849681    3.961065    4.950964
     82          1           0       -1.096159    7.642784    1.685655
     83          1           0       -2.610704    6.759947    1.606286
     84          1           0       -1.256057    6.451057    0.404369
     85          1           0       -4.371890    5.284634   -2.252046
     86          1           0       -7.201322    4.278043   -2.257819
     87          1           0       -5.891671    5.993500    0.077324
     88          1           0       -6.773490    6.419945   -1.460281
     89          1           0       -5.121879    7.079127   -0.971574
     90          1           0       -5.216397    3.212150   -4.161968
     91          1           0       -5.251683    5.002431   -4.104732
     92          1           0       -6.915237    3.127976   -5.516224
     93          1           0       -6.970548    4.868276   -5.583044
     94          1           0       -8.009341    4.091548   -4.341237
     95          1           0       -9.274623   -0.072273   -2.607841
     96          1           0       -8.957076   -1.701907   -3.132175
     97          1           0       -8.247242   -0.275756   -4.071318
     98          1           0       -5.149403   -4.359739   -0.560546
     99          1           0       -8.082783   -2.839904    3.651055
    100          1           0       -7.097175   -4.191846    3.962763
    101          1           0       -8.475457   -4.327804    2.800083
    102          1           0        1.086359   -4.460897   -2.451366
    103          1           0        1.919650   -4.390308   -0.909476
    104          1           0        1.678722   -1.678205   -2.021169
    105          1           0        3.534067   -3.887678   -4.516558
    106          1           0        3.360158   -4.784898   -3.032267
    107          1           0        4.864255   -3.896985   -3.222288
    108          1           0        3.167431   -0.555434   -3.698197
    109          1           0        4.717812   -1.541612   -3.800402
    110          1           0        4.175688   -1.374703   -1.112084
    111          1           0        4.047648    0.234512   -1.666585
    112          1           0        6.392504   -0.751200   -2.790667
    113          1           0        6.263951   -1.863244   -1.556174
    114          1           0        5.785651    0.190037    0.129591
    115          1           0        7.843854    1.875611   -0.676664
    116          1           0        6.144861    2.310635   -0.898046
    117          1           0        6.969038    1.499109   -2.197068
    118          1           0        7.450001   -1.642643    0.214914
    119          1           0        7.693453   -0.091569    1.078609
    120          1           0        9.060393    0.112781   -1.537083
    121          1           0        9.413057   -1.487244   -0.815167
    122          1           0        9.656158    0.901693    1.106499
    123          1           0       10.455025    1.170727   -0.363588
    124          1           0       11.487225   -1.349392   -0.051285
    125          1           0       10.123823   -0.886447    2.483452
    126          1           0       11.846479   -1.197423    2.759077
    127          1           0       10.948255   -2.402968    1.893281
    128          1           0       12.814772    0.448488    1.870111
    129          1           0       12.348985    1.333868    0.472395
    130          1           0       13.682571   -0.269376   -0.938767
    131          1           0       13.847289   -1.341404    0.520046
    132          1           0       15.468130   -0.282936    1.335036
    133          1           0       14.945960    1.372742    1.118775
    134          1           0       15.987496   -0.249653   -1.101413
    135          1           0       17.547985    0.202415    0.931187
    136          1           0       17.999298    1.515759   -0.240142
    137          1           0       18.050176   -0.138765   -0.749572
    138          1           0       15.154918    2.597269   -1.037566
    139          1           0       15.360479    1.306902   -2.372303
    140          1           0       16.770008    2.204900   -1.694897
 ---------------------------------------------------------------------

 SCF Done:  E(RwB97XD) =  -3007.82737274     A.U. after   19 cycles

 Excitation energies and oscillator strengths:

 Excited State   1:      Singlet-A      1.6521 eV  750.46 nm  f=0.3740  <S**2>=0.000
     245 -> 248        0.18283
     246 -> 247        0.68470
     245 <- 248        0.11531
 This state for optimization and/or second-order correction.
 Total Energy, E(TD-HF/TD-DFT) =  -3007.76665864
 Copying the excited state density for this state as the 1-particle RhoCI density.

 Excited State   2:      Singlet-A      2.2569 eV  549.36 nm  f=0.0538  <S**2>=0.000
     245 -> 247        0.60451
     246 -> 248       -0.35543

 Excited State   3:      Singlet-A      3.3797 eV  366.84 nm  f=0.1785  <S**2>=0.000
     240 -> 247       -0.10367
     242 -> 247        0.44869
     243 -> 247       -0.27724
     245 -> 247       -0.17692
     246 -> 248       -0.36959

 Excited State   4:      Singlet-A      3.4750 eV  356.79 nm  f=0.3326  <S**2>=0.000
     243 -> 247        0.48310
     245 -> 247       -0.23107
     246 -> 248       -0.40470

 Excited State   5:      Singlet-A      3.5129 eV  352.94 nm  f=0.0657  <S**2>=0.000
     239 -> 247       -0.16656
     240 -> 247        0.49085
     240 -> 249       -0.21800
     240 -> 250       -0.12415
     243 -> 247       -0.26451
     246 -> 248       -0.14388

 The electronic state is 1-A.
 Alpha  occ. eigenvalues --  -46.95359 -19.30398 -19.30367 -19.24582 -19.23882
 Alpha  occ. eigenvalues --  -19.23799 -19.23519 -14.48293 -14.46281 -14.43981
 Alpha  occ. eigenvalues --  -14.43072 -10.42992 -10.42802 -10.39496 -10.39171
 Alpha  occ. eigenvalues --  -10.36411 -10.36374 -10.36113 -10.35566 -10.35078
 Alpha  occ. eigenvalues --  -10.34598 -10.34574 -10.33401 -10.33173 -10.33170
 Alpha  occ. eigenvalues --  -10.33031 -10.32756 -10.32402 -10.32278 -10.32194
 Alpha  occ. eigenvalues --  -10.31918 -10.31736 -10.31651 -10.31449 -10.31438
 Alpha  occ. eigenvalues --  -10.31227 -10.30869 -10.30787 -10.30784 -10.30496
 Alpha  occ. eigenvalues --  -10.30439 -10.30359 -10.30304 -10.30034 -10.29985
 Alpha  occ. eigenvalues --  -10.29716 -10.29700 -10.29644 -10.29556 -10.29517
 Alpha  occ. eigenvalues --  -10.29214 -10.28888 -10.28742 -10.28583 -10.28580
 Alpha  occ. eigenvalues --  -10.28564 -10.28555 -10.28518 -10.28387 -10.28367
 Alpha  occ. eigenvalues --  -10.28324 -10.28245 -10.28197 -10.27883 -10.27713
 Alpha  occ. eigenvalues --  -10.27627  -3.21420  -1.94965  -1.94541  -1.94413
 Alpha  occ. eigenvalues --   -1.19571  -1.18597  -1.15052  -1.10363  -1.09514
 Alpha  occ. eigenvalues --   -1.09083  -1.07596  -1.05971  -1.05021  -1.03646
 Alpha  occ. eigenvalues --   -0.95872  -0.93121  -0.91381  -0.91368  -0.90976
 Alpha  occ. eigenvalues --   -0.90389  -0.90036  -0.89196  -0.88949  -0.88811
 Alpha  occ. eigenvalues --   -0.88573  -0.87660  -0.86450  -0.85955  -0.85156
 Alpha  occ. eigenvalues --   -0.84548  -0.84173  -0.83307  -0.82976  -0.82360
 Alpha  occ. eigenvalues --   -0.81065  -0.80482  -0.80288  -0.79617  -0.79019
 Alpha  occ. eigenvalues --   -0.77993  -0.77059  -0.76870  -0.76660  -0.75946
 Alpha  occ. eigenvalues --   -0.75176  -0.74207  -0.73818  -0.72164  -0.71280
 Alpha  occ. eigenvalues --   -0.70655  -0.70402  -0.69233  -0.68240  -0.67717
 Alpha  occ. eigenvalues --   -0.67444  -0.67290  -0.66915  -0.66467  -0.65811
 Alpha  occ. eigenvalues --   -0.65586  -0.65255  -0.63568  -0.63198  -0.61783
 Alpha  occ. eigenvalues --   -0.61637  -0.61284  -0.61192  -0.60205  -0.59921
 Alpha  occ. eigenvalues --   -0.59645  -0.59351  -0.58750  -0.58138  -0.57927
 Alpha  occ. eigenvalues --   -0.57250  -0.56337  -0.56226  -0.55992  -0.55792
 Alpha  occ. eigenvalues --   -0.55743  -0.55440  -0.55167  -0.54953  -0.54589
 Alpha  occ. eigenvalues --   -0.54447  -0.54335  -0.54088  -0.53826  -0.53698
 Alpha  occ. eigenvalues --   -0.53497  -0.53325  -0.53112  -0.52935  -0.52867
 Alpha  occ. eigenvalues --   -0.52627  -0.52465  -0.52326  -0.52110  -0.52011
 Alpha  occ. eigenvalues --   -0.51766  -0.51601  -0.51340  -0.51187  -0.50835
 Alpha  occ. eigenvalues --   -0.50704  -0.50271  -0.50142  -0.49756  -0.49672
 Alpha  occ. eigenvalues --   -0.49311  -0.49252  -0.49154  -0.48913  -0.48842
 Alpha  occ. eigenvalues --   -0.48618  -0.48356  -0.48058  -0.47824  -0.47681
 Alpha  occ. eigenvalues --   -0.47629  -0.47457  -0.47251  -0.47244  -0.46844
 Alpha  occ. eigenvalues --   -0.46758  -0.46579  -0.46544  -0.46097  -0.46064
 Alpha  occ. eigenvalues --   -0.45990  -0.45842  -0.45559  -0.45345  -0.45051
 Alpha  occ. eigenvalues --   -0.44438  -0.44282  -0.44106  -0.44020  -0.43783
 Alpha  occ. eigenvalues --   -0.43642  -0.43483  -0.43303  -0.43133  -0.43044
 Alpha  occ. eigenvalues --   -0.42991  -0.42503  -0.42233  -0.42025  -0.41786
 Alpha  occ. eigenvalues --   -0.41700  -0.41405  -0.41315  -0.40931  -0.40677
 Alpha  occ. eigenvalues --   -0.40614  -0.39900  -0.39573  -0.39388  -0.39176
 Alpha  occ. eigenvalues --   -0.38993  -0.38682  -0.38583  -0.38452  -0.38397
 Alpha  occ. eigenvalues --   -0.37694  -0.37297  -0.36710  -0.36505  -0.35789
 Alpha  occ. eigenvalues --   -0.35571  -0.35515  -0.34694  -0.33248  -0.32778
 Alpha  occ. eigenvalues --   -0.32686  -0.32209  -0.31728  -0.31415  -0.26469
 Alpha  occ. eigenvalues --   -0.22702
 Alpha virt. eigenvalues --   -0.06762  -0.00175   0.02403   0.03835   0.04347
 Alpha virt. eigenvalues --    0.07137   0.07967   0.08743   0.09361   0.09840
 Alpha virt. eigenvalues --    0.10422   0.11175   0.11952   0.12370   0.12482

 Mulliken charges:
               1
     1  Mg   0.956898
     2  C    0.004886
     3  C   -0.066148
     4  C   -0.097739
     5  C   -0.137322
     6  N   -0.351632
     7  C    0.001277
     8  C   -0.055030
     9  C   -0.082997
    10  C    0.025728
    11  C    0.057501
    12  C   -0.006265
    13  C   -0.062055
    14  C    0.222242
    15  O   -0.265614
    16  O   -0.338175
    17  N   -0.504914
    18  C    0.111645
    19  C   -0.149186
    20  C   -0.068558
    21  C    0.160986
    22  C    0.093799
    23  C    0.047683
    24  O   -0.267645
    25  C   -0.011935
    26  N   -0.408548
    27  C    0.133304
    28  C   -0.117375
    29  C   -0.076912
    30  C    0.096196
    31  C    0.017721
    32  C   -0.021141
    33  C   -0.040394
    34  N   -0.310652
    35  C    0.114316
    36  C   -0.230639
    37  C   -0.006518
    38  C    0.089656
    39  C    0.081450
    40  C    0.036530
    41  O   -0.137965
    42  C   -0.073542
    43  C    0.261726
    44  O   -0.238274
    45  O   -0.378400
    46  C    0.141849
    47  C    0.270976
    48  C   -0.146246
    49  C   -0.259401
    50  C    0.039594
    51  C    0.109295
    52  C   -0.079593
    53  C    0.010811
    54  C   -0.163564
    55  C   -0.003652
    56  C   -0.011392
    57  C   -0.024304
    58  C   -0.014901
    59  C   -0.176549
    60  C   -0.000102
    61  C    0.001408
    62  C   -0.039599
    63  C    0.038800
    64  C   -0.277336
    65  C   -0.000453
    66  C    0.026579
    67  H   -0.005172
    68  H   -0.043150
    69  H   -0.005481
    70  H    0.038620
    71  H    0.037207
    72  H    0.055579
    73  H    0.034765
    74  H    0.038344
    75  H    0.042014
    76  H    0.046858
    77  H    0.081950
    78  H    0.060997
    79  H    0.062321
    80  H    0.012674
    81  H    0.059611
    82  H    0.051855
    83  H    0.058261
    84  H    0.082274
    85  H    0.039240
    86  H    0.026653
    87  H    0.031901
    88  H    0.048765
    89  H    0.038084
    90  H    0.044632
    91  H    0.035997
    92  H    0.046335
    93  H    0.038004
    94  H    0.047321
    95  H    0.054469
    96  H    0.063586
    97  H    0.057548
    98  H    0.092026
    99  H    0.049762
   100  H    0.050965
   101  H    0.070695
   102  H    0.051109
   103  H    0.068546
   104  H    0.020193
   105  H    0.053359
   106  H    0.026564
   107  H    0.044724
   108  H    0.048549
   109  H   -0.000265
   110  H    0.025091
   111  H    0.024131
   112  H    0.007550
   113  H   -0.001066
   114  H    0.019022
   115  H    0.029848
   116  H    0.035416
   117  H    0.026221
   118  H    0.018876
   119  H    0.021563
   120  H    0.029643
   121  H    0.028910
   122  H    0.023774
   123  H    0.015850
   124  H    0.024925
   125  H    0.030653
   126  H    0.024256
   127  H    0.030191
   128  H    0.011073
   129  H    0.012707
   130  H    0.029515
   131  H    0.022198
   132  H    0.005977
   133  H    0.018558
   134  H    0.011306
   135  H    0.021222
   136  H    0.018651
   137  H    0.029807
   138  H    0.035440
   139  H    0.040679
   140  H    0.019540
 Sum of Mulliken charges =  -0.00000

 Dipole moment (field-independent basis, Debye):
    X=             -0.9289    Y=              5.3296    Z=             -0.5329  Tot=              5.4362
 Quadrupole moment (field-independent basis, Debye-Ang):
   XX=           -387.6097   YY=           -435.8804   ZZ=           -385.5223
   XY=            -58.8176   XZ=            -18.7602   YZ=            -25.5951

 Normal termination of Gaussian 16 at Fri Apr 29 12:55:22 2022.
