 Gaussian 16, Revision A.03,
 Gaussian 16:  ES64L-G16RevA.03 25-Dec-2016

 --------------------
 #p ZINDO=(nstates=5)
 --------------------

 ----------------------------
 step_301_chromophore_2 ZINDO
 ----------------------------
 Symbolic Z-matrix:
 Charge =  0 Multiplicity = 1

                         Standard orientation:
 ---------------------------------------------------------------------
 Center     Atomic      Atomic             Coordinates (Angstroms)
 Number     Number       Type             X           Y           Z
 ---------------------------------------------------------------------
      1         12           0       -4.504872    1.233027    0.615119
      2          6           0       -5.151098   -2.250825    0.224205
      3          6           0       -2.311179    0.651260    3.061231
      4          6           0       -3.441239    4.330051    0.152360
      5          6           0       -6.689453    1.622660   -2.251322
      6          7           0       -3.816343   -0.577640    1.465723
      7          6           0       -4.195689   -1.846558    1.264911
      8          6           0       -3.619542   -2.846179    2.272601
      9          6           0       -2.824592   -1.928391    3.293225
     10          6           0       -2.972847   -0.530645    2.575799
     11          6           0       -3.213232   -1.918315    4.764113
     12          6           0       -2.704279   -3.897257    1.475409
     13          6           0       -1.895681   -3.317847    0.294378
     14          6           0       -0.620052   -4.068478   -0.180296
     15          8           0       -0.233062   -5.174829    0.142279
     16          8           0        0.030926   -3.310216   -1.042181
     17          7           0       -3.014496    2.317224    1.451667
     18          6           0       -2.261504    1.955993    2.544008
     19          6           0       -1.645082    3.150585    3.169085
     20          6           0       -1.951624    4.218724    2.309785
     21          6           0       -2.741125    3.684389    1.226492
     22          6           0       -0.728013    3.102284    4.291799
     23          6           0       -1.283704    5.552299    2.468551
     24          8           0       -0.499499    5.656092    3.444256
     25          6           0       -1.538110    6.678428    1.433078
     26          7           0       -4.901498    2.642921   -0.862574
     27          6           0       -4.436410    3.884768   -0.653369
     28          6           0       -5.179335    4.918543   -1.619291
     29          6           0       -6.145259    4.068141   -2.427104
     30          6           0       -6.006695    2.731119   -1.746169
     31          6           0       -5.811757    6.236015   -0.981901
     32          6           0       -5.837506    4.090426   -3.985272
     33          6           0       -7.082550    4.018606   -4.909501
     34          7           0       -5.684656   -0.046519   -0.836786
     35          6           0       -6.445091    0.295553   -1.848513
     36          6           0       -7.311389   -0.828763   -2.248086
     37          6           0       -6.758306   -1.847352   -1.468100
     38          6           0       -5.779376   -1.356203   -0.601464
     39          6           0       -8.534204   -0.697147   -3.107474
     40          6           0       -6.867590   -3.278753   -1.091132
     41          8           0       -7.590997   -4.101823   -1.530984
     42          6           0       -5.775764   -3.625845   -0.053327
     43          6           0       -6.541439   -4.234014    1.003203
     44          8           0       -6.978902   -5.378129    1.036848
     45          8           0       -6.795835   -3.345380    2.002994
     46          6           0       -7.651135   -3.709431    3.156653
     47          6           0        1.313982   -3.811708   -1.606524
     48          6           0        2.113593   -2.659007   -2.211676
     49          6           0        3.167432   -2.621559   -2.992887
     50          6           0        3.800560   -3.883326   -3.460188
     51          6           0        3.814879   -1.302161   -3.237402
     52          6           0        4.441112   -0.740161   -1.956911
     53          6           0        5.996251   -0.830077   -1.777988
     54          6           0        6.549938    0.086778   -0.639846
     55          6           0        6.898294    1.551579   -1.111373
     56          6           0        7.706817   -0.588478    0.108826
     57          6           0        9.105503   -0.461895   -0.611747
     58          6           0       10.090548    0.359417    0.266252
     59          6           0       11.301209   -0.558889    0.676044
     60          6           0       11.023810   -1.328281    2.055934
     61          6           0       12.514912    0.317322    0.829955
     62          6           0       13.772811   -0.320129    0.146401
     63          6           0       15.038320    0.411830    0.613705
     64          6           0       16.026526    0.654196   -0.493921
     65          6           0       17.511744    0.550931   -0.101116
     66          6           0       15.767184    1.825414   -1.504162
     67          1           0       -1.657677    0.612435    3.935412
     68          1           0       -3.198637    5.393134    0.103609
     69          1           0       -7.518148    1.764808   -2.948367
     70          1           0       -4.402542   -3.327715    2.859696
     71          1           0       -1.765371   -2.140063    3.144602
     72          1           0       -2.272501   -2.143427    5.267150
     73          1           0       -4.041058   -2.584856    5.002941
     74          1           0       -3.617310   -0.921443    4.942191
     75          1           0       -3.306680   -4.704216    1.057939
     76          1           0       -2.019481   -4.419303    2.144105
     77          1           0       -1.729395   -2.243966    0.385503
     78          1           0       -2.589794   -3.545407   -0.514515
     79          1           0        0.290500    2.955046    3.929955
     80          1           0       -0.920778    2.277487    4.976909
     81          1           0       -0.849681    3.961065    4.950964
     82          1           0       -1.096159    7.642784    1.685655
     83          1           0       -2.610704    6.759947    1.606286
     84          1           0       -1.256057    6.451057    0.404369
     85          1           0       -4.371890    5.284634   -2.252046
     86          1           0       -7.201322    4.278043   -2.257819
     87          1           0       -5.891671    5.993500    0.077324
     88          1           0       -6.773490    6.419945   -1.460281
     89          1           0       -5.121879    7.079127   -0.971574
     90          1           0       -5.216397    3.212150   -4.161968
     91          1           0       -5.251683    5.002431   -4.104732
     92          1           0       -6.915237    3.127976   -5.516224
     93          1           0       -6.970548    4.868276   -5.583044
     94          1           0       -8.009341    4.091548   -4.341237
     95          1           0       -9.274623   -0.072273   -2.607841
     96          1           0       -8.957076   -1.701907   -3.132175
     97          1           0       -8.247242   -0.275756   -4.071318
     98          1           0       -5.149403   -4.359739   -0.560546
     99          1           0       -8.082783   -2.839904    3.651055
    100          1           0       -7.097175   -4.191846    3.962763
    101          1           0       -8.475457   -4.327804    2.800083
    102          1           0        1.086359   -4.460897   -2.451366
    103          1           0        1.919650   -4.390308   -0.909476
    104          1           0        1.678722   -1.678205   -2.021169
    105          1           0        3.534067   -3.887678   -4.516558
    106          1           0        3.360158   -4.784898   -3.032267
    107          1           0        4.864255   -3.896985   -3.222288
    108          1           0        3.167431   -0.555434   -3.698197
    109          1           0        4.717812   -1.541612   -3.800402
    110          1           0        4.175688   -1.374703   -1.112084
    111          1           0        4.047648    0.234512   -1.666585
    112          1           0        6.392504   -0.751200   -2.790667
    113          1           0        6.263951   -1.863244   -1.556174
    114          1           0        5.785651    0.190037    0.129591
    115          1           0        7.843854    1.875611   -0.676664
    116          1           0        6.144861    2.310635   -0.898046
    117          1           0        6.969038    1.499109   -2.197068
    118          1           0        7.450001   -1.642643    0.214914
    119          1           0        7.693453   -0.091569    1.078609
    120          1           0        9.060393    0.112781   -1.537083
    121          1           0        9.413057   -1.487244   -0.815167
    122          1           0        9.656158    0.901693    1.106499
    123          1           0       10.455025    1.170727   -0.363588
    124          1           0       11.487225   -1.349392   -0.051285
    125          1           0       10.123823   -0.886447    2.483452
    126          1           0       11.846479   -1.197423    2.759077
    127          1           0       10.948255   -2.402968    1.893281
    128          1           0       12.814772    0.448488    1.870111
    129          1           0       12.348985    1.333868    0.472395
    130          1           0       13.682571   -0.269376   -0.938767
    131          1           0       13.847289   -1.341404    0.520046
    132          1           0       15.468130   -0.282936    1.335036
    133          1           0       14.945960    1.372742    1.118775
    134          1           0       15.987496   -0.249653   -1.101413
    135          1           0       17.547985    0.202415    0.931187
    136          1           0       17.999298    1.515759   -0.240142
    137          1           0       18.050176   -0.138765   -0.749572
    138          1           0       15.154918    2.597269   -1.037566
    139          1           0       15.360479    1.306902   -2.372303
    140          1           0       16.770008    2.204900   -1.694897
 ---------------------------------------------------------------------

 SCF Done:  E(RZINDO/S) =  -474.412436730     A.U. after   20 cycles

 Excitation energies and oscillator strengths:

 Excited State   1:      Singlet-A      1.2591 eV  984.74 nm  f=0.5741  <S**2>=0.000
     175 ->178        -0.19217
     176 ->177         0.66358
 This state for optimization and/or second-order correction.
 Total Energy, E(CIS/TDA) =  -474.366167241
 Copying the excited state density for this state as the 1-particle RhoCI density.

 Excited State   2:      Singlet-A      1.9259 eV  643.77 nm  f=0.0043  <S**2>=0.000
     175 ->177         0.49767
     176 ->178         0.48141

 Excited State   3:      Singlet-A      2.8581 eV  433.80 nm  f=0.0039  <S**2>=0.000
     167 ->179         0.11041
     169 ->177        -0.26571
     169 ->179        -0.30236
     169 ->181        -0.14149
     169 ->185         0.14081
     170 ->177         0.23923
     170 ->179         0.25189
     170 ->181         0.12393
     170 ->185        -0.11643

 Excited State   4:      Singlet-A      2.9088 eV  426.24 nm  f=0.2440  <S**2>=0.000
     175 ->177         0.22037
     176 ->178        -0.26138
     176 ->180         0.51802
     176 ->181         0.30049

 Excited State   5:      Singlet-A      2.9646 eV  418.22 nm  f=0.0106  <S**2>=0.000
     169 ->177         0.14137
     169 ->179        -0.21068
     169 ->180        -0.19691
     169 ->181         0.22008
     169 ->185         0.12761
     169 ->187        -0.10093
     170 ->177         0.15859
     170 ->179        -0.23314
     170 ->180        -0.21351
     170 ->181         0.23783
     170 ->184        -0.10811
     170 ->185         0.14076
     170 ->187        -0.10727

 The electronic state is 1-A.
 Alpha  occ. eigenvalues --   -1.87301  -1.80677  -1.80084  -1.74341  -1.73838
 Alpha  occ. eigenvalues --   -1.71014  -1.65060  -1.62121  -1.61240  -1.57508
 Alpha  occ. eigenvalues --   -1.56962  -1.52106  -1.49506  -1.48435  -1.47177
 Alpha  occ. eigenvalues --   -1.44197  -1.42603  -1.40359  -1.39345  -1.38898
 Alpha  occ. eigenvalues --   -1.36519  -1.35107  -1.32871  -1.30797  -1.28579
 Alpha  occ. eigenvalues --   -1.27098  -1.24998  -1.23782  -1.21206  -1.18223
 Alpha  occ. eigenvalues --   -1.17298  -1.16500  -1.15204  -1.14573  -1.13768
 Alpha  occ. eigenvalues --   -1.13355  -1.10842  -1.09010  -1.07464  -1.04225
 Alpha  occ. eigenvalues --   -1.02644  -1.01093  -1.00175  -0.98696  -0.97361
 Alpha  occ. eigenvalues --   -0.96527  -0.94683  -0.93865  -0.93202  -0.91726
 Alpha  occ. eigenvalues --   -0.90591  -0.90190  -0.88654  -0.86479  -0.85976
 Alpha  occ. eigenvalues --   -0.85221  -0.84270  -0.83667  -0.82360  -0.81128
 Alpha  occ. eigenvalues --   -0.79738  -0.78106  -0.77527  -0.77248  -0.76748
 Alpha  occ. eigenvalues --   -0.76328  -0.75682  -0.74283  -0.73646  -0.73053
 Alpha  occ. eigenvalues --   -0.72245  -0.72001  -0.71220  -0.70780  -0.70517
 Alpha  occ. eigenvalues --   -0.70316  -0.69450  -0.68774  -0.68316  -0.67733
 Alpha  occ. eigenvalues --   -0.67467  -0.67359  -0.66736  -0.65618  -0.65443
 Alpha  occ. eigenvalues --   -0.65329  -0.65137  -0.64636  -0.64330  -0.64170
 Alpha  occ. eigenvalues --   -0.63533  -0.63302  -0.62720  -0.62558  -0.62216
 Alpha  occ. eigenvalues --   -0.61701  -0.61290  -0.60921  -0.60241  -0.59765
 Alpha  occ. eigenvalues --   -0.59548  -0.59519  -0.59499  -0.58961  -0.58738
 Alpha  occ. eigenvalues --   -0.58305  -0.57679  -0.57537  -0.56920  -0.56486
 Alpha  occ. eigenvalues --   -0.56145  -0.55901  -0.55580  -0.55490  -0.54945
 Alpha  occ. eigenvalues --   -0.54716  -0.54255  -0.53871  -0.53538  -0.53193
 Alpha  occ. eigenvalues --   -0.52781  -0.52621  -0.52476  -0.52158  -0.52046
 Alpha  occ. eigenvalues --   -0.51553  -0.51147  -0.51117  -0.50169  -0.50002
 Alpha  occ. eigenvalues --   -0.49890  -0.49693  -0.49520  -0.49069  -0.48877
 Alpha  occ. eigenvalues --   -0.48856  -0.48586  -0.48332  -0.48007  -0.47938
 Alpha  occ. eigenvalues --   -0.47774  -0.47113  -0.46934  -0.46796  -0.46664
 Alpha  occ. eigenvalues --   -0.46336  -0.46032  -0.45877  -0.45797  -0.45099
 Alpha  occ. eigenvalues --   -0.44971  -0.44857  -0.44448  -0.44309  -0.43827
 Alpha  occ. eigenvalues --   -0.43525  -0.43266  -0.42785  -0.42366  -0.41971
 Alpha  occ. eigenvalues --   -0.41948  -0.41493  -0.40198  -0.39554  -0.38571
 Alpha  occ. eigenvalues --   -0.38124  -0.37079  -0.35496  -0.34923  -0.34725
 Alpha  occ. eigenvalues --   -0.33268  -0.32724  -0.32363  -0.31536  -0.27186
 Alpha  occ. eigenvalues --   -0.21779
 Alpha virt. eigenvalues --   -0.08358  -0.02667  -0.00521   0.00564   0.01008
 Alpha virt. eigenvalues --    0.02053   0.02728   0.02811   0.04805   0.05621
 Alpha virt. eigenvalues --    0.05799   0.06499   0.07590   0.07879   0.08113

 Mulliken charges:
               1
     1  Mg   0.437542
     2  C   -0.047028
     3  C   -0.051521
     4  C   -0.095870
     5  C   -0.093026
     6  N   -0.243593
     7  C    0.131126
     8  C   -0.000471
     9  C   -0.003757
    10  C    0.071011
    11  C   -0.047281
    12  C   -0.024652
    13  C    0.000666
    14  C    0.471554
    15  O   -0.529569
    16  O   -0.262124
    17  N   -0.332622
    18  C    0.069023
    19  C    0.053527
    20  C   -0.053321
    21  C    0.115151
    22  C   -0.025874
    23  C    0.323032
    24  O   -0.543080
    25  C   -0.030328
    26  N   -0.291658
    27  C    0.142676
    28  C   -0.011422
    29  C    0.001277
    30  C    0.129521
    31  C   -0.059303
    32  C   -0.034136
    33  C   -0.060548
    34  N   -0.323275
    35  C    0.132740
    36  C    0.022358
    37  C   -0.047009
    38  C    0.103507
    39  C   -0.031124
    40  C    0.335334
    41  O   -0.484925
    42  C    0.063336
    43  C    0.500530
    44  O   -0.527106
    45  O   -0.285177
    46  C    0.075594
    47  C    0.106392
    48  C   -0.095612
    49  C    0.001934
    50  C   -0.042747
    51  C   -0.014485
    52  C   -0.042064
    53  C   -0.036751
    54  C   -0.008617
    55  C   -0.060321
    56  C   -0.036994
    57  C   -0.040536
    58  C   -0.036487
    59  C   -0.015633
    60  C   -0.066100
    61  C   -0.037386
    62  C   -0.037615
    63  C   -0.028741
    64  C   -0.026137
    65  C   -0.060015
    66  C   -0.062716
    67  H    0.028986
    68  H    0.016585
    69  H    0.028885
    70  H    0.041846
    71  H    0.028739
    72  H    0.031827
    73  H    0.026390
    74  H    0.026634
    75  H    0.025067
    76  H    0.029007
    77  H    0.051008
    78  H    0.040973
    79  H    0.044699
    80  H    0.006278
    81  H    0.043585
    82  H    0.034062
    83  H    0.037328
    84  H    0.046176
    85  H    0.023265
    86  H    0.030273
    87  H    0.020021
    88  H    0.030493
    89  H    0.024888
    90  H    0.025730
    91  H    0.024714
    92  H    0.026881
    93  H    0.017537
    94  H    0.033418
    95  H    0.034977
    96  H    0.034337
    97  H    0.037791
    98  H    0.072930
    99  H    0.031071
   100  H    0.039813
   101  H    0.052693
   102  H    0.043655
   103  H    0.062012
   104  H    0.016987
   105  H    0.032348
   106  H    0.020481
   107  H    0.030343
   108  H    0.036667
   109  H    0.016898
   110  H    0.011749
   111  H    0.021371
   112  H    0.018335
   113  H    0.011846
   114  H    0.014642
   115  H    0.023330
   116  H    0.019658
   117  H    0.016514
   118  H    0.016859
   119  H    0.019096
   120  H    0.022976
   121  H    0.023855
   122  H    0.029924
   123  H    0.008527
   124  H    0.026993
   125  H    0.022988
   126  H    0.019291
   127  H    0.019049
   128  H    0.014728
   129  H    0.017172
   130  H    0.025220
   131  H    0.023057
   132  H    0.011265
   133  H    0.021980
   134  H    0.002319
   135  H    0.018007
   136  H    0.016598
   137  H    0.017214
   138  H    0.027734
   139  H    0.027512
   140  H    0.022818
 Sum of Mulliken charges =  -0.00000

 Dipole moment (field-independent basis, Debye):
    X=             -1.9953    Y=              6.4641    Z=             -1.7414  Tot=              6.9856
 N-N= 4.345696006360D+03 E-N= 0.000000000000D+00  KE=-9.365451695919D+03
 Leave Link  601 at Fri Apr 29 13:07:06 2022, MaxMem=  6710886400 cpu:               0.8 elap:               0.0
 (Enter /sw/apps/gaussian-16.0/g16/l9999.exe)
 1\1\GINC-BP1-COMPUTE139\SP\RZINDO CIS\STO-3G\C55H74Mg1N4O6\OF15641\29-
 Apr-2022\0\\#p ZINDO=(nstates=5)\\step_301_chromophore_2 ZINDO\\0,1\Mg
 ,0,2.43,0.485,44.268\C,0,5.599,2.091,43.975\C,0,0.857,3.142,43.003\C,0
 ,-0.17,-1.504,43.798\C,0,4.358,-2.393,45.336\N,0,3.173,2.332,43.552\C,
 0,4.41,2.846,43.556\C,0,4.481,4.327,43.171\C,0,2.959,4.74,43.001\C,0,2
 .272,3.331,43.183\C,0,2.37,5.838,43.874\C,0,5.357,4.46,41.832\C,0,5.18
 3,3.321,40.804\C,0,5.529,3.597,39.314\O,0,6.093,4.563,38.838\O,0,5.116

 Normal termination of Gaussian 16 at Fri Apr 29 13:07:06 2022.
