 Gaussian 16, Revision A.03,
 Gaussian 16:  ES64L-G16RevA.03 25-Dec-2016

 ------------------------------
 #p blyp/Def2SVP td=(nstates=5)
 ------------------------------

 --------------------------------------------------
 step_301_chromophore_24 TDDFT with blyp functional
 --------------------------------------------------
 Symbolic Z-matrix:
 Charge =  0 Multiplicity = 1

                         Standard orientation:
 ---------------------------------------------------------------------
 Center     Atomic      Atomic             Coordinates (Angstroms)
 Number     Number       Type             X           Y           Z
 ---------------------------------------------------------------------
      1         12           0        5.112307    1.095536    0.275897
      2          6           0        4.338242   -2.363393    0.339907
      3          6           0        1.792305    1.703112   -0.171830
      4          6           0        5.976682    4.385064   -0.042721
      5          6           0        8.581913    0.243049    0.253808
      6          7           0        3.299417   -0.144446    0.132198
      7          6           0        3.261624   -1.480273    0.311725
      8          6           0        1.783041   -1.957835    0.340584
      9          6           0        0.920990   -0.731126    0.061138
     10          6           0        2.047525    0.346024    0.154751
     11          6           0        0.097746   -0.839034   -1.280711
     12          6           0        1.384120   -2.694749    1.640504
     13          6           0        0.202151   -3.706845    1.594904
     14          6           0       -0.443121   -4.121064    0.269607
     15          8           0        0.152791   -4.825508   -0.542257
     16          8           0       -1.758773   -3.623009    0.202315
     17          7           0        4.031742    2.777158   -0.152005
     18          6           0        2.666016    2.833721   -0.273356
     19          6           0        2.264999    4.274720   -0.474193
     20          6           0        3.495402    4.990759   -0.541475
     21          6           0        4.594936    4.080089   -0.170280
     22          6           0        0.859187    4.587386   -0.833394
     23          6           0        3.725093    6.419767   -1.051658
     24          8           0        4.867363    6.909086   -1.119766
     25          6           0        2.654351    7.310331   -1.398692
     26          7           0        7.004011    2.134511    0.031939
     27          6           0        7.117778    3.506820   -0.010957
     28          6           0        8.597657    4.067946   -0.154556
     29          6           0        9.346278    2.731861    0.115983
     30          6           0        8.280087    1.611707    0.188959
     31          6           0        8.705604    4.608909   -1.560599
     32          6           0       10.352674    2.751979    1.265715
     33          6           0        9.756617    2.549956    2.684791
     34          7           0        6.231784   -0.664640    0.328353
     35          6           0        7.607147   -0.866097    0.408694
     36          6           0        7.895703   -2.268925    0.463279
     37          6           0        6.639229   -2.884387    0.467643
     38          6           0        5.657027   -1.863352    0.354549
     39          6           0        9.249372   -2.903143    0.579602
     40          6           0        6.026294   -4.152264    0.334138
     41          8           0        6.484669   -5.238820    0.257332
     42          6           0        4.448255   -3.816268    0.290662
     43          6           0        3.817260   -4.639602   -0.826024
     44          8           0        3.978969   -4.489618   -2.012416
     45          8           0        3.017974   -5.587369   -0.219310
     46          6           0        2.558822   -6.716543   -1.077190
     47          6           0       -2.483133   -3.906048   -1.053788
     48          6           0       -3.833321   -3.315809   -0.875887
     49          6           0       -4.944517   -3.831924   -0.310037
     50          6           0       -5.199325   -5.199969    0.321086
     51          6           0       -6.275765   -3.120957   -0.609448
     52          6           0       -6.911325   -2.393495    0.623995
     53          6           0       -7.110081   -0.927510    0.374265
     54          6           0       -8.486343   -0.467158    0.749109
     55          6           0       -8.642887   -0.182046    2.251911
     56          6           0       -8.944940    0.815223    0.056994
     57          6           0       -9.551469    0.491988   -1.373731
     58          6           0      -10.853480    1.344698   -1.633029
     59          6           0      -12.199591    0.557665   -1.879565
     60          6           0      -12.494306    0.478320   -3.422590
     61          6           0      -13.359739    1.169546   -1.086669
     62          6           0      -13.205382    1.181555    0.403683
     63          6           0      -13.878285    2.481669    1.029316
     64          6           0      -13.084481    3.008549    2.186469
     65          6           0      -13.929336    4.103628    3.003260
     66          6           0      -11.771178    3.648619    1.657791
     67          1           0        0.743723    1.943952   -0.358588
     68          1           0        6.264959    5.437671   -0.089577
     69          1           0        9.586829   -0.130979    0.048322
     70          1           0        1.638359   -2.676412   -0.465756
     71          1           0        0.276304   -0.628317    0.935070
     72          1           0        0.573608   -0.478638   -2.192090
     73          1           0       -0.825773   -0.267021   -1.183993
     74          1           0       -0.013648   -1.883072   -1.573532
     75          1           0        1.238283   -1.959049    2.431366
     76          1           0        2.289506   -3.208157    1.963461
     77          1           0       -0.471059   -3.142270    2.239276
     78          1           0        0.569052   -4.625479    2.053033
     79          1           0        0.372015    4.863228    0.100879
     80          1           0        0.418715    3.741894   -1.362054
     81          1           0        0.910892    5.395069   -1.563648
     82          1           0        2.177273    7.048123   -2.343212
     83          1           0        3.050037    8.325611   -1.424195
     84          1           0        1.890738    7.229809   -0.624674
     85          1           0        8.670236    4.810185    0.641096
     86          1           0        9.969149    2.469543   -0.739450
     87          1           0        8.303045    3.913157   -2.296579
     88          1           0        9.771403    4.751916   -1.743081
     89          1           0        8.130610    5.531416   -1.639490
     90          1           0       10.825992    3.731133    1.342546
     91          1           0       11.171450    2.068502    1.040052
     92          1           0       10.012775    1.566038    3.076693
     93          1           0        8.673486    2.597022    2.569914
     94          1           0       10.030414    3.372091    3.346248
     95          1           0       10.081801   -2.418829    0.069672
     96          1           0        9.142684   -3.863277    0.075588
     97          1           0        9.394664   -3.060976    1.648312
     98          1           0        4.042876   -4.182033    1.234310
     99          1           0        1.965046   -6.369466   -1.921892
    100          1           0        1.939039   -7.394284   -0.489064
    101          1           0        3.435750   -7.237099   -1.464176
    102          1           0       -2.547407   -4.985861   -1.184359
    103          1           0       -1.931270   -3.404862   -1.848176
    104          1           0       -4.062511   -2.432337   -1.471890
    105          1           0       -5.595171   -5.144199    1.335350
    106          1           0       -4.305830   -5.799699    0.494324
    107          1           0       -5.957351   -5.812300   -0.168118
    108          1           0       -7.008935   -3.882024   -0.879084
    109          1           0       -6.085446   -2.536471   -1.509228
    110          1           0       -6.201342   -2.564943    1.433199
    111          1           0       -7.864670   -2.818748    0.936947
    112          1           0       -6.880663   -0.563971   -0.626766
    113          1           0       -6.466022   -0.307168    0.996436
    114          1           0       -9.268358   -1.195131    0.535051
    115          1           0       -8.223608    0.773953    2.567498
    116          1           0       -8.040646   -0.880202    2.833920
    117          1           0       -9.681848   -0.169809    2.580572
    118          1           0       -8.101329    1.502333   -0.009580
    119          1           0       -9.775817    1.115676    0.695740
    120          1           0       -9.826108   -0.558815   -1.458969
    121          1           0       -8.758244    0.718677   -2.086894
    122          1           0      -10.670811    1.964494   -2.511276
    123          1           0      -11.080509    2.084876   -0.866098
    124          1           0      -12.064144   -0.456498   -1.504779
    125          1           0      -13.484188    0.078891   -3.640047
    126          1           0      -11.747590   -0.200321   -3.833970
    127          1           0      -12.398225    1.460856   -3.886208
    128          1           0      -14.227499    0.509631   -1.091985
    129          1           0      -13.603467    2.126642   -1.547990
    130          1           0      -12.157135    1.148218    0.700946
    131          1           0      -13.720851    0.291981    0.766243
    132          1           0      -14.911115    2.232059    1.271538
    133          1           0      -13.965444    3.213969    0.226818
    134          1           0      -12.825073    2.156563    2.815418
    135          1           0      -13.807196    5.051213    2.479663
    136          1           0      -13.616975    4.262251    4.035895
    137          1           0      -14.977739    3.813292    3.059205
    138          1           0      -11.703498    3.703762    0.571127
    139          1           0      -10.973202    3.014843    2.045088
    140          1           0      -11.593997    4.586492    2.183648
 ---------------------------------------------------------------------

 SCF Done:  E(RB-LYP) =  -3007.40191604     A.U. after   21 cycles

 Excitation energies and oscillator strengths:

 Excited State   1:      Singlet-A      1.7897 eV  692.75 nm  f=0.2754  <S**2>=0.000
     245 -> 248        0.18838
     246 -> 247        0.68212
     246 <- 247       -0.14658
 This state for optimization and/or second-order correction.
 Total Energy, E(TD-HF/TD-DFT) =  -3007.33614420
 Copying the excited state density for this state as the 1-particle RhoCI density.

 Excited State   2:      Singlet-A      1.9063 eV  650.40 nm  f=0.0649  <S**2>=0.000
     243 -> 247       -0.32195
     244 -> 247        0.11824
     245 -> 247        0.57769
     246 -> 248       -0.17057

 Excited State   3:      Singlet-A      1.9653 eV  630.86 nm  f=0.0019  <S**2>=0.000
     243 -> 247        0.10785
     244 -> 247        0.69354

 Excited State   4:      Singlet-A      2.0577 eV  602.52 nm  f=0.0254  <S**2>=0.000
     243 -> 247        0.61479
     245 -> 247        0.29162
     246 -> 248       -0.15293

 Excited State   5:      Singlet-A      2.5048 eV  494.99 nm  f=0.0013  <S**2>=0.000
     240 -> 247       -0.20482
     242 -> 247        0.65222
     246 -> 248        0.14781

 The electronic state is 1-A.
 Alpha  occ. eigenvalues --  -46.26590 -18.82406 -18.80406 -18.77993 -18.75637
 Alpha  occ. eigenvalues --  -18.75292 -18.75236 -14.03299 -14.03088 -14.01108
 Alpha  occ. eigenvalues --  -14.00464 -10.04846 -10.02622  -9.99632  -9.98459
 Alpha  occ. eigenvalues --   -9.98295  -9.96469  -9.96402  -9.96247  -9.96146
 Alpha  occ. eigenvalues --   -9.96042  -9.95921  -9.95888  -9.95103  -9.94200
 Alpha  occ. eigenvalues --   -9.94172  -9.94022  -9.93898  -9.93595  -9.93477
 Alpha  occ. eigenvalues --   -9.93332  -9.93293  -9.93155  -9.93148  -9.93013
 Alpha  occ. eigenvalues --   -9.92923  -9.92762  -9.92756  -9.92748  -9.92741
 Alpha  occ. eigenvalues --   -9.92727  -9.92393  -9.92385  -9.92370  -9.92258
 Alpha  occ. eigenvalues --   -9.92199  -9.92151  -9.92099  -9.92062  -9.91981
 Alpha  occ. eigenvalues --   -9.91894  -9.91879  -9.91682  -9.91354  -9.91291
 Alpha  occ. eigenvalues --   -9.91141  -9.91109  -9.91104  -9.91087  -9.91078
 Alpha  occ. eigenvalues --   -9.91027  -9.90946  -9.90922  -9.90836  -9.90552
 Alpha  occ. eigenvalues --   -9.89707  -2.91239  -1.71670  -1.71124  -1.70945
 Alpha  occ. eigenvalues --   -0.96893  -0.95747  -0.92870  -0.90673  -0.90513
 Alpha  occ. eigenvalues --   -0.88622  -0.86770  -0.85468  -0.84531  -0.83482
 Alpha  occ. eigenvalues --   -0.75138  -0.74431  -0.73291  -0.72919  -0.72649
 Alpha  occ. eigenvalues --   -0.72051  -0.71054  -0.70810  -0.70434  -0.70033
 Alpha  occ. eigenvalues --   -0.69506  -0.69083  -0.68051  -0.67076  -0.66637
 Alpha  occ. eigenvalues --   -0.66544  -0.65967  -0.65431  -0.64531  -0.63985
 Alpha  occ. eigenvalues --   -0.63675  -0.62406  -0.62311  -0.61188  -0.61103
 Alpha  occ. eigenvalues --   -0.59953  -0.59896  -0.59337  -0.59260  -0.59102
 Alpha  occ. eigenvalues --   -0.58519  -0.57137  -0.56529  -0.55544  -0.54552
 Alpha  occ. eigenvalues --   -0.53923  -0.53195  -0.52600  -0.52107  -0.51712
 Alpha  occ. eigenvalues --   -0.51327  -0.50307  -0.50057  -0.49952  -0.49785
 Alpha  occ. eigenvalues --   -0.49508  -0.49351  -0.48117  -0.47046  -0.46941
 Alpha  occ. eigenvalues --   -0.45859  -0.45696  -0.45237  -0.44706  -0.44001
 Alpha  occ. eigenvalues --   -0.43516  -0.43487  -0.42894  -0.42457  -0.42273
 Alpha  occ. eigenvalues --   -0.42188  -0.41834  -0.41677  -0.41530  -0.41272
 Alpha  occ. eigenvalues --   -0.40695  -0.40500  -0.40370  -0.40211  -0.40088
 Alpha  occ. eigenvalues --   -0.39870  -0.39524  -0.39452  -0.39313  -0.39262
 Alpha  occ. eigenvalues --   -0.38832  -0.38758  -0.38698  -0.38201  -0.38056
 Alpha  occ. eigenvalues --   -0.37798  -0.37750  -0.37445  -0.37380  -0.37269
 Alpha  occ. eigenvalues --   -0.37140  -0.36909  -0.36716  -0.36547  -0.36245
 Alpha  occ. eigenvalues --   -0.36198  -0.35910  -0.35677  -0.35651  -0.35432
 Alpha  occ. eigenvalues --   -0.35009  -0.34934  -0.34672  -0.34656  -0.34327
 Alpha  occ. eigenvalues --   -0.34304  -0.34146  -0.34070  -0.33854  -0.33782
 Alpha  occ. eigenvalues --   -0.33403  -0.33292  -0.33231  -0.32960  -0.32812
 Alpha  occ. eigenvalues --   -0.32743  -0.32708  -0.32432  -0.32373  -0.32180
 Alpha  occ. eigenvalues --   -0.31860  -0.31676  -0.31536  -0.31425  -0.31346
 Alpha  occ. eigenvalues --   -0.31149  -0.31069  -0.31027  -0.30933  -0.30865
 Alpha  occ. eigenvalues --   -0.30535  -0.30471  -0.30344  -0.30120  -0.29910
 Alpha  occ. eigenvalues --   -0.29551  -0.29278  -0.29135  -0.28841  -0.28731
 Alpha  occ. eigenvalues --   -0.28646  -0.28335  -0.28187  -0.28085  -0.27637
 Alpha  occ. eigenvalues --   -0.27629  -0.27345  -0.27270  -0.27074  -0.26874
 Alpha  occ. eigenvalues --   -0.26062  -0.25858  -0.25779  -0.25692  -0.25504
 Alpha  occ. eigenvalues --   -0.25054  -0.24438  -0.23865  -0.23793  -0.23312
 Alpha  occ. eigenvalues --   -0.22913  -0.22861  -0.21864  -0.21187  -0.20733
 Alpha  occ. eigenvalues --   -0.20605  -0.20012  -0.18520  -0.18331  -0.16694
 Alpha  occ. eigenvalues --   -0.15457
 Alpha virt. eigenvalues --   -0.11207  -0.06688  -0.05953  -0.04264  -0.03899
 Alpha virt. eigenvalues --   -0.03732  -0.01894  -0.01564  -0.01027   0.00434
 Alpha virt. eigenvalues --    0.01583   0.01725   0.01938   0.02294   0.03029

 Mulliken charges:
               1
     1  Mg   0.693959
     2  C    0.037341
     3  C   -0.047414
     4  C   -0.021198
     5  C   -0.074765
     6  N   -0.183193
     7  C   -0.074714
     8  C   -0.060023
     9  C    0.081978
    10  C    0.006818
    11  C    0.116490
    12  C    0.083772
    13  C    0.192118
    14  C    0.081963
    15  O   -0.191294
    16  O   -0.292399
    17  N   -0.328687
    18  C    0.108543
    19  C   -0.166276
    20  C    0.039208
    21  C    0.123035
    22  C    0.184053
    23  C   -0.076949
    24  O   -0.191226
    25  C    0.148987
    26  N   -0.217022
    27  C   -0.052691
    28  C    0.041302
    29  C    0.062986
    30  C    0.064049
    31  C    0.143399
    32  C    0.065545
    33  C    0.065930
    34  N   -0.243078
    35  C    0.059805
    36  C   -0.178336
    37  C    0.072464
    38  C    0.032126
    39  C    0.169103
    40  C   -0.070115
    41  O   -0.083132
    42  C    0.043484
    43  C    0.120177
    44  O   -0.162634
    45  O   -0.291027
    46  C    0.235289
    47  C    0.345024
    48  C   -0.095959
    49  C   -0.119066
    50  C    0.128999
    51  C    0.107399
    52  C    0.119129
    53  C    0.144675
    54  C   -0.120836
    55  C    0.099954
    56  C    0.081533
    57  C    0.087039
    58  C    0.091050
    59  C   -0.055369
    60  C    0.107640
    61  C    0.074229
    62  C    0.066135
    63  C    0.081329
    64  C   -0.085941
    65  C    0.093334
    66  C    0.103144
    67  H   -0.073295
    68  H   -0.039978
    69  H   -0.053845
    70  H    0.003335
    71  H   -0.037021
    72  H   -0.012661
    73  H    0.000880
    74  H    0.005641
    75  H   -0.035459
    76  H   -0.036036
    77  H   -0.013759
    78  H    0.005323
    79  H    0.016116
    80  H    0.009933
    81  H   -0.023782
    82  H    0.024019
    83  H   -0.000211
    84  H   -0.002253
    85  H   -0.019937
    86  H   -0.038072
    87  H   -0.001936
    88  H   -0.009533
    89  H    0.010745
    90  H   -0.029175
    91  H   -0.025222
    92  H   -0.000186
    93  H   -0.004660
    94  H   -0.010295
    95  H   -0.006887
    96  H    0.005013
    97  H    0.014328
    98  H   -0.001368
    99  H    0.015588
   100  H    0.007094
   101  H    0.011556
   102  H   -0.000818
   103  H   -0.009187
   104  H   -0.038003
   105  H   -0.013301
   106  H   -0.015302
   107  H    0.003325
   108  H   -0.031908
   109  H   -0.024623
   110  H   -0.020867
   111  H   -0.022045
   112  H   -0.041713
   113  H   -0.046455
   114  H   -0.045139
   115  H   -0.026608
   116  H   -0.033583
   117  H   -0.012236
   118  H   -0.029329
   119  H   -0.014838
   120  H   -0.027675
   121  H   -0.028716
   122  H   -0.050506
   123  H   -0.039685
   124  H   -0.050153
   125  H   -0.019213
   126  H   -0.017992
   127  H   -0.011927
   128  H   -0.039675
   129  H   -0.027792
   130  H   -0.025681
   131  H   -0.032106
   132  H   -0.040295
   133  H   -0.036338
   134  H   -0.029148
   135  H   -0.012562
   136  H   -0.016084
   137  H   -0.019669
   138  H    0.017003
   139  H   -0.017405
   140  H   -0.026948
 Sum of Mulliken charges =  -0.00000

 Dipole moment (field-independent basis, Debye):
    X=             -5.5574    Y=              2.1249    Z=              2.2782  Tot=              6.3710
 Quadrupole moment (field-independent basis, Debye-Ang):
   XX=           -390.7846   YY=           -424.9156   ZZ=           -406.8042
   XY=             31.8712   XZ=             12.1284   YZ=             -5.5068

 Normal termination of Gaussian 16 at Wed May  4 19:11:41 2022.
