 Gaussian 16, Revision A.03,
 Gaussian 16:  ES64L-G16RevA.03 25-Dec-2016

 -----------------------------------
 #p cam-b3lyp/Def2SVP td=(nstates=5)
 -----------------------------------

 -------------------------------------------------------
 step_301_chromophore_24 TDDFT with cam-b3lyp functional
 -------------------------------------------------------
 Symbolic Z-matrix:
 Charge =  0 Multiplicity = 1

                         Standard orientation:
 ---------------------------------------------------------------------
 Center     Atomic      Atomic             Coordinates (Angstroms)
 Number     Number       Type             X           Y           Z
 ---------------------------------------------------------------------
      1         12           0        5.112307    1.095536    0.275897
      2          6           0        4.338242   -2.363393    0.339907
      3          6           0        1.792305    1.703112   -0.171830
      4          6           0        5.976682    4.385064   -0.042721
      5          6           0        8.581913    0.243049    0.253808
      6          7           0        3.299417   -0.144446    0.132198
      7          6           0        3.261624   -1.480273    0.311725
      8          6           0        1.783041   -1.957835    0.340584
      9          6           0        0.920990   -0.731126    0.061138
     10          6           0        2.047525    0.346024    0.154751
     11          6           0        0.097746   -0.839034   -1.280711
     12          6           0        1.384120   -2.694749    1.640504
     13          6           0        0.202151   -3.706845    1.594904
     14          6           0       -0.443121   -4.121064    0.269607
     15          8           0        0.152791   -4.825508   -0.542257
     16          8           0       -1.758773   -3.623009    0.202315
     17          7           0        4.031742    2.777158   -0.152005
     18          6           0        2.666016    2.833721   -0.273356
     19          6           0        2.264999    4.274720   -0.474193
     20          6           0        3.495402    4.990759   -0.541475
     21          6           0        4.594936    4.080089   -0.170280
     22          6           0        0.859187    4.587386   -0.833394
     23          6           0        3.725093    6.419767   -1.051658
     24          8           0        4.867363    6.909086   -1.119766
     25          6           0        2.654351    7.310331   -1.398692
     26          7           0        7.004011    2.134511    0.031939
     27          6           0        7.117778    3.506820   -0.010957
     28          6           0        8.597657    4.067946   -0.154556
     29          6           0        9.346278    2.731861    0.115983
     30          6           0        8.280087    1.611707    0.188959
     31          6           0        8.705604    4.608909   -1.560599
     32          6           0       10.352674    2.751979    1.265715
     33          6           0        9.756617    2.549956    2.684791
     34          7           0        6.231784   -0.664640    0.328353
     35          6           0        7.607147   -0.866097    0.408694
     36          6           0        7.895703   -2.268925    0.463279
     37          6           0        6.639229   -2.884387    0.467643
     38          6           0        5.657027   -1.863352    0.354549
     39          6           0        9.249372   -2.903143    0.579602
     40          6           0        6.026294   -4.152264    0.334138
     41          8           0        6.484669   -5.238820    0.257332
     42          6           0        4.448255   -3.816268    0.290662
     43          6           0        3.817260   -4.639602   -0.826024
     44          8           0        3.978969   -4.489618   -2.012416
     45          8           0        3.017974   -5.587369   -0.219310
     46          6           0        2.558822   -6.716543   -1.077190
     47          6           0       -2.483133   -3.906048   -1.053788
     48          6           0       -3.833321   -3.315809   -0.875887
     49          6           0       -4.944517   -3.831924   -0.310037
     50          6           0       -5.199325   -5.199969    0.321086
     51          6           0       -6.275765   -3.120957   -0.609448
     52          6           0       -6.911325   -2.393495    0.623995
     53          6           0       -7.110081   -0.927510    0.374265
     54          6           0       -8.486343   -0.467158    0.749109
     55          6           0       -8.642887   -0.182046    2.251911
     56          6           0       -8.944940    0.815223    0.056994
     57          6           0       -9.551469    0.491988   -1.373731
     58          6           0      -10.853480    1.344698   -1.633029
     59          6           0      -12.199591    0.557665   -1.879565
     60          6           0      -12.494306    0.478320   -3.422590
     61          6           0      -13.359739    1.169546   -1.086669
     62          6           0      -13.205382    1.181555    0.403683
     63          6           0      -13.878285    2.481669    1.029316
     64          6           0      -13.084481    3.008549    2.186469
     65          6           0      -13.929336    4.103628    3.003260
     66          6           0      -11.771178    3.648619    1.657791
     67          1           0        0.743723    1.943952   -0.358588
     68          1           0        6.264959    5.437671   -0.089577
     69          1           0        9.586829   -0.130979    0.048322
     70          1           0        1.638359   -2.676412   -0.465756
     71          1           0        0.276304   -0.628317    0.935070
     72          1           0        0.573608   -0.478638   -2.192090
     73          1           0       -0.825773   -0.267021   -1.183993
     74          1           0       -0.013648   -1.883072   -1.573532
     75          1           0        1.238283   -1.959049    2.431366
     76          1           0        2.289506   -3.208157    1.963461
     77          1           0       -0.471059   -3.142270    2.239276
     78          1           0        0.569052   -4.625479    2.053033
     79          1           0        0.372015    4.863228    0.100879
     80          1           0        0.418715    3.741894   -1.362054
     81          1           0        0.910892    5.395069   -1.563648
     82          1           0        2.177273    7.048123   -2.343212
     83          1           0        3.050037    8.325611   -1.424195
     84          1           0        1.890738    7.229809   -0.624674
     85          1           0        8.670236    4.810185    0.641096
     86          1           0        9.969149    2.469543   -0.739450
     87          1           0        8.303045    3.913157   -2.296579
     88          1           0        9.771403    4.751916   -1.743081
     89          1           0        8.130610    5.531416   -1.639490
     90          1           0       10.825992    3.731133    1.342546
     91          1           0       11.171450    2.068502    1.040052
     92          1           0       10.012775    1.566038    3.076693
     93          1           0        8.673486    2.597022    2.569914
     94          1           0       10.030414    3.372091    3.346248
     95          1           0       10.081801   -2.418829    0.069672
     96          1           0        9.142684   -3.863277    0.075588
     97          1           0        9.394664   -3.060976    1.648312
     98          1           0        4.042876   -4.182033    1.234310
     99          1           0        1.965046   -6.369466   -1.921892
    100          1           0        1.939039   -7.394284   -0.489064
    101          1           0        3.435750   -7.237099   -1.464176
    102          1           0       -2.547407   -4.985861   -1.184359
    103          1           0       -1.931270   -3.404862   -1.848176
    104          1           0       -4.062511   -2.432337   -1.471890
    105          1           0       -5.595171   -5.144199    1.335350
    106          1           0       -4.305830   -5.799699    0.494324
    107          1           0       -5.957351   -5.812300   -0.168118
    108          1           0       -7.008935   -3.882024   -0.879084
    109          1           0       -6.085446   -2.536471   -1.509228
    110          1           0       -6.201342   -2.564943    1.433199
    111          1           0       -7.864670   -2.818748    0.936947
    112          1           0       -6.880663   -0.563971   -0.626766
    113          1           0       -6.466022   -0.307168    0.996436
    114          1           0       -9.268358   -1.195131    0.535051
    115          1           0       -8.223608    0.773953    2.567498
    116          1           0       -8.040646   -0.880202    2.833920
    117          1           0       -9.681848   -0.169809    2.580572
    118          1           0       -8.101329    1.502333   -0.009580
    119          1           0       -9.775817    1.115676    0.695740
    120          1           0       -9.826108   -0.558815   -1.458969
    121          1           0       -8.758244    0.718677   -2.086894
    122          1           0      -10.670811    1.964494   -2.511276
    123          1           0      -11.080509    2.084876   -0.866098
    124          1           0      -12.064144   -0.456498   -1.504779
    125          1           0      -13.484188    0.078891   -3.640047
    126          1           0      -11.747590   -0.200321   -3.833970
    127          1           0      -12.398225    1.460856   -3.886208
    128          1           0      -14.227499    0.509631   -1.091985
    129          1           0      -13.603467    2.126642   -1.547990
    130          1           0      -12.157135    1.148218    0.700946
    131          1           0      -13.720851    0.291981    0.766243
    132          1           0      -14.911115    2.232059    1.271538
    133          1           0      -13.965444    3.213969    0.226818
    134          1           0      -12.825073    2.156563    2.815418
    135          1           0      -13.807196    5.051213    2.479663
    136          1           0      -13.616975    4.262251    4.035895
    137          1           0      -14.977739    3.813292    3.059205
    138          1           0      -11.703498    3.703762    0.571127
    139          1           0      -10.973202    3.014843    2.045088
    140          1           0      -11.593997    4.586492    2.183648
 ---------------------------------------------------------------------

 SCF Done:  E(RCAM-B3LYP) =  -3007.19480060     A.U. after   17 cycles

 Excitation energies and oscillator strengths:

 Excited State   1:      Singlet-A      1.7025 eV  728.26 nm  f=0.3556  <S**2>=0.000
     245 -> 248        0.18284
     246 -> 247        0.68461
     245 <- 248        0.10829
 This state for optimization and/or second-order correction.
 Total Energy, E(TD-HF/TD-DFT) =  -3007.13223582
 Copying the excited state density for this state as the 1-particle RhoCI density.

 Excited State   2:      Singlet-A      2.1867 eV  567.00 nm  f=0.1195  <S**2>=0.000
     245 -> 247        0.64078
     246 -> 248       -0.28729

 Excited State   3:      Singlet-A      3.4432 eV  360.08 nm  f=0.0763  <S**2>=0.000
     241 -> 247       -0.11622
     242 -> 247       -0.35005
     244 -> 247        0.53376
     246 -> 248       -0.21780

 Excited State   4:      Singlet-A      3.4833 eV  355.94 nm  f=0.4283  <S**2>=0.000
     239 -> 247       -0.11745
     244 -> 247        0.33887
     245 -> 247        0.22456
     246 -> 248        0.54219

 Excited State   5:      Singlet-A      3.5834 eV  346.00 nm  f=0.0093  <S**2>=0.000
     239 -> 247        0.32396
     239 -> 248       -0.10693
     239 -> 249        0.29655
     241 -> 247        0.36543
     241 -> 249        0.17857
     242 -> 247        0.18867
     243 -> 247        0.13995
     244 -> 247        0.14435

 The electronic state is 1-A.
 Alpha  occ. eigenvalues --  -46.88122 -19.25248 -19.23110 -19.20940 -19.18818
 Alpha  occ. eigenvalues --  -19.18539 -19.18025 -14.42214 -14.42011 -14.39803
 Alpha  occ. eigenvalues --  -14.38651 -10.40221 -10.37879 -10.35185 -10.33368
 Alpha  occ. eigenvalues --  -10.32410 -10.31297 -10.31283 -10.31079 -10.30808
 Alpha  occ. eigenvalues --  -10.30380 -10.30171 -10.29906 -10.29435 -10.28824
 Alpha  occ. eigenvalues --  -10.28332 -10.28138 -10.28097 -10.27958 -10.27593
 Alpha  occ. eigenvalues --  -10.27486 -10.27351 -10.27121 -10.27024 -10.27015
 Alpha  occ. eigenvalues --  -10.26904 -10.26818 -10.26715 -10.26650 -10.26616
 Alpha  occ. eigenvalues --  -10.26599 -10.26497 -10.26492 -10.26275 -10.26241
 Alpha  occ. eigenvalues --  -10.26125 -10.26013 -10.25845 -10.25787 -10.25748
 Alpha  occ. eigenvalues --  -10.25588 -10.25421 -10.25245 -10.25031 -10.24847
 Alpha  occ. eigenvalues --  -10.24828 -10.24812 -10.24799 -10.24752 -10.24743
 Alpha  occ. eigenvalues --  -10.24676 -10.24657 -10.24566 -10.24465 -10.24201
 Alpha  occ. eigenvalues --  -10.23226  -3.16676  -1.91583  -1.91130  -1.90979
 Alpha  occ. eigenvalues --   -1.15268  -1.14100  -1.10968  -1.09407  -1.08315
 Alpha  occ. eigenvalues --   -1.06331  -1.04532  -1.02801  -1.02158  -1.01252
 Alpha  occ. eigenvalues --   -0.92044  -0.91324  -0.90122  -0.89715  -0.89410
 Alpha  occ. eigenvalues --   -0.88699  -0.88048  -0.87426  -0.87250  -0.86542
 Alpha  occ. eigenvalues --   -0.85828  -0.85412  -0.84361  -0.83419  -0.82949
 Alpha  occ. eigenvalues --   -0.82649  -0.82036  -0.81309  -0.80391  -0.79799
 Alpha  occ. eigenvalues --   -0.79352  -0.78321  -0.77900  -0.76560  -0.76485
 Alpha  occ. eigenvalues --   -0.75323  -0.75155  -0.74646  -0.74455  -0.74330
 Alpha  occ. eigenvalues --   -0.73614  -0.72076  -0.71461  -0.70358  -0.69154
 Alpha  occ. eigenvalues --   -0.68509  -0.67769  -0.66974  -0.66636  -0.66047
 Alpha  occ. eigenvalues --   -0.65640  -0.64396  -0.63982  -0.63820  -0.63808
 Alpha  occ. eigenvalues --   -0.63517  -0.63044  -0.61978  -0.60589  -0.60419
 Alpha  occ. eigenvalues --   -0.59558  -0.59429  -0.58667  -0.58035  -0.57267
 Alpha  occ. eigenvalues --   -0.56993  -0.56715  -0.56279  -0.55477  -0.55283
 Alpha  occ. eigenvalues --   -0.55115  -0.54899  -0.54747  -0.54340  -0.54281
 Alpha  occ. eigenvalues --   -0.53544  -0.53486  -0.52972  -0.52934  -0.52710
 Alpha  occ. eigenvalues --   -0.52510  -0.52463  -0.52227  -0.52041  -0.51856
 Alpha  occ. eigenvalues --   -0.51556  -0.51488  -0.51091  -0.50853  -0.50521
 Alpha  occ. eigenvalues --   -0.50229  -0.50052  -0.49932  -0.49674  -0.49568
 Alpha  occ. eigenvalues --   -0.49452  -0.49183  -0.49027  -0.48898  -0.48761
 Alpha  occ. eigenvalues --   -0.48466  -0.48307  -0.48290  -0.47666  -0.47595
 Alpha  occ. eigenvalues --   -0.47066  -0.46995  -0.46950  -0.46516  -0.46281
 Alpha  occ. eigenvalues --   -0.46164  -0.46016  -0.45777  -0.45719  -0.45666
 Alpha  occ. eigenvalues --   -0.45168  -0.45035  -0.44886  -0.44657  -0.44610
 Alpha  occ. eigenvalues --   -0.44322  -0.44253  -0.44006  -0.43920  -0.43808
 Alpha  occ. eigenvalues --   -0.43545  -0.43415  -0.43225  -0.43043  -0.42966
 Alpha  occ. eigenvalues --   -0.42866  -0.42558  -0.42530  -0.42237  -0.42199
 Alpha  occ. eigenvalues --   -0.41838  -0.41797  -0.41634  -0.41538  -0.41172
 Alpha  occ. eigenvalues --   -0.41078  -0.40628  -0.40492  -0.40207  -0.39835
 Alpha  occ. eigenvalues --   -0.39692  -0.39590  -0.39309  -0.38991  -0.38655
 Alpha  occ. eigenvalues --   -0.38457  -0.38335  -0.38085  -0.37875  -0.37685
 Alpha  occ. eigenvalues --   -0.37236  -0.36919  -0.36669  -0.36426  -0.36355
 Alpha  occ. eigenvalues --   -0.35832  -0.35357  -0.34910  -0.34364  -0.34198
 Alpha  occ. eigenvalues --   -0.34002  -0.33396  -0.31948  -0.31499  -0.31072
 Alpha  occ. eigenvalues --   -0.30658  -0.30070  -0.29686  -0.29171  -0.23494
 Alpha  occ. eigenvalues --   -0.20791
 Alpha virt. eigenvalues --   -0.08293  -0.01491   0.00348   0.02876   0.03305
 Alpha virt. eigenvalues --    0.03348   0.03950   0.05574   0.06996   0.07208
 Alpha virt. eigenvalues --    0.07966   0.08142   0.08368   0.08840   0.09298

 Mulliken charges:
               1
     1  Mg   0.825587
     2  C    0.014754
     3  C   -0.070589
     4  C   -0.044790
     5  C   -0.073729
     6  N   -0.253076
     7  C   -0.030657
     8  C   -0.110629
     9  C    0.020097
    10  C    0.036744
    11  C    0.062525
    12  C    0.040477
    13  C    0.121572
    14  C    0.158053
    15  O   -0.231097
    16  O   -0.356117
    17  N   -0.417181
    18  C    0.124239
    19  C   -0.159739
    20  C   -0.028540
    21  C    0.150633
    22  C    0.118370
    23  C    0.007040
    24  O   -0.230395
    25  C    0.057867
    26  N   -0.284031
    27  C   -0.026891
    28  C   -0.014546
    29  C    0.004568
    30  C    0.069277
    31  C    0.084433
    32  C    0.014308
    33  C    0.005210
    34  N   -0.331936
    35  C    0.062124
    36  C   -0.178948
    37  C   -0.005816
    38  C    0.065475
    39  C    0.119038
    40  C    0.027129
    41  O   -0.126115
    42  C   -0.032810
    43  C    0.205612
    44  O   -0.199731
    45  O   -0.354963
    46  C    0.195046
    47  C    0.311941
    48  C   -0.119590
    49  C   -0.137117
    50  C    0.068419
    51  C    0.045685
    52  C    0.061622
    53  C    0.088646
    54  C   -0.174315
    55  C    0.041776
    56  C    0.032173
    57  C    0.038202
    58  C    0.038005
    59  C   -0.111780
    60  C    0.052810
    61  C    0.022823
    62  C    0.015841
    63  C    0.031430
    64  C   -0.145505
    65  C    0.036406
    66  C    0.038599
    67  H   -0.038455
    68  H    0.000933
    69  H   -0.019688
    70  H    0.034411
    71  H    0.000731
    72  H    0.015737
    73  H    0.023822
    74  H    0.024220
    75  H   -0.005211
    76  H   -0.005974
    77  H    0.020426
    78  H    0.038083
    79  H    0.045544
    80  H    0.038319
    81  H    0.004701
    82  H    0.052079
    83  H    0.037227
    84  H    0.026465
    85  H    0.015168
    86  H   -0.000314
    87  H    0.023964
    88  H    0.016052
    89  H    0.034796
    90  H   -0.000519
    91  H    0.003432
    92  H    0.023933
    93  H    0.015025
    94  H    0.013459
    95  H    0.015910
    96  H    0.030786
    97  H    0.038543
    98  H    0.040983
    99  H    0.039127
   100  H    0.030445
   101  H    0.034451
   102  H    0.028343
   103  H    0.018825
   104  H   -0.007433
   105  H    0.011961
   106  H    0.010253
   107  H    0.027943
   108  H   -0.001219
   109  H    0.004237
   110  H    0.007843
   111  H    0.006454
   112  H   -0.012944
   113  H   -0.016103
   114  H   -0.014130
   115  H   -0.001926
   116  H   -0.007808
   117  H    0.011373
   118  H   -0.001115
   119  H    0.006494
   120  H   -0.001218
   121  H   -0.000639
   122  H   -0.019499
   123  H   -0.016935
   124  H   -0.019119
   125  H    0.005838
   126  H    0.006185
   127  H    0.010139
   128  H   -0.009620
   129  H   -0.001195
   130  H   -0.005649
   131  H   -0.002501
   132  H   -0.010341
   133  H   -0.008200
   134  H    0.001772
   135  H    0.010029
   136  H    0.009011
   137  H    0.004262
   138  H    0.037981
   139  H    0.005161
   140  H    0.000956
 Sum of Mulliken charges =  -0.00000

 Dipole moment (field-independent basis, Debye):
    X=             -6.3441    Y=              3.3260    Z=              2.1995  Tot=              7.4932
 Quadrupole moment (field-independent basis, Debye-Ang):
   XX=           -394.4919   YY=           -419.6727   ZZ=           -406.6542
   XY=             36.5269   XZ=             12.0701   YZ=             -6.6165

 Normal termination of Gaussian 16 at Wed May  4 17:48:52 2022.
