 Gaussian 16, Revision A.03,
 Gaussian 16:  ES64L-G16RevA.03 25-Dec-2016

 ---------------------------------
 #p PBE1PBE/Def2SVP td=(nstates=5)
 ---------------------------------

 -----------------------------------------------------
 step_301_chromophore_24 TDDFT with PBE1PBE functional
 -----------------------------------------------------
 Symbolic Z-matrix:
 Charge =  0 Multiplicity = 1

                         Standard orientation:
 ---------------------------------------------------------------------
 Center     Atomic      Atomic             Coordinates (Angstroms)
 Number     Number       Type             X           Y           Z
 ---------------------------------------------------------------------
      1         12           0        5.112307    1.095536    0.275897
      2          6           0        4.338242   -2.363393    0.339907
      3          6           0        1.792305    1.703112   -0.171830
      4          6           0        5.976682    4.385064   -0.042721
      5          6           0        8.581913    0.243049    0.253808
      6          7           0        3.299417   -0.144446    0.132198
      7          6           0        3.261624   -1.480273    0.311725
      8          6           0        1.783041   -1.957835    0.340584
      9          6           0        0.920990   -0.731126    0.061138
     10          6           0        2.047525    0.346024    0.154751
     11          6           0        0.097746   -0.839034   -1.280711
     12          6           0        1.384120   -2.694749    1.640504
     13          6           0        0.202151   -3.706845    1.594904
     14          6           0       -0.443121   -4.121064    0.269607
     15          8           0        0.152791   -4.825508   -0.542257
     16          8           0       -1.758773   -3.623009    0.202315
     17          7           0        4.031742    2.777158   -0.152005
     18          6           0        2.666016    2.833721   -0.273356
     19          6           0        2.264999    4.274720   -0.474193
     20          6           0        3.495402    4.990759   -0.541475
     21          6           0        4.594936    4.080089   -0.170280
     22          6           0        0.859187    4.587386   -0.833394
     23          6           0        3.725093    6.419767   -1.051658
     24          8           0        4.867363    6.909086   -1.119766
     25          6           0        2.654351    7.310331   -1.398692
     26          7           0        7.004011    2.134511    0.031939
     27          6           0        7.117778    3.506820   -0.010957
     28          6           0        8.597657    4.067946   -0.154556
     29          6           0        9.346278    2.731861    0.115983
     30          6           0        8.280087    1.611707    0.188959
     31          6           0        8.705604    4.608909   -1.560599
     32          6           0       10.352674    2.751979    1.265715
     33          6           0        9.756617    2.549956    2.684791
     34          7           0        6.231784   -0.664640    0.328353
     35          6           0        7.607147   -0.866097    0.408694
     36          6           0        7.895703   -2.268925    0.463279
     37          6           0        6.639229   -2.884387    0.467643
     38          6           0        5.657027   -1.863352    0.354549
     39          6           0        9.249372   -2.903143    0.579602
     40          6           0        6.026294   -4.152264    0.334138
     41          8           0        6.484669   -5.238820    0.257332
     42          6           0        4.448255   -3.816268    0.290662
     43          6           0        3.817260   -4.639602   -0.826024
     44          8           0        3.978969   -4.489618   -2.012416
     45          8           0        3.017974   -5.587369   -0.219310
     46          6           0        2.558822   -6.716543   -1.077190
     47          6           0       -2.483133   -3.906048   -1.053788
     48          6           0       -3.833321   -3.315809   -0.875887
     49          6           0       -4.944517   -3.831924   -0.310037
     50          6           0       -5.199325   -5.199969    0.321086
     51          6           0       -6.275765   -3.120957   -0.609448
     52          6           0       -6.911325   -2.393495    0.623995
     53          6           0       -7.110081   -0.927510    0.374265
     54          6           0       -8.486343   -0.467158    0.749109
     55          6           0       -8.642887   -0.182046    2.251911
     56          6           0       -8.944940    0.815223    0.056994
     57          6           0       -9.551469    0.491988   -1.373731
     58          6           0      -10.853480    1.344698   -1.633029
     59          6           0      -12.199591    0.557665   -1.879565
     60          6           0      -12.494306    0.478320   -3.422590
     61          6           0      -13.359739    1.169546   -1.086669
     62          6           0      -13.205382    1.181555    0.403683
     63          6           0      -13.878285    2.481669    1.029316
     64          6           0      -13.084481    3.008549    2.186469
     65          6           0      -13.929336    4.103628    3.003260
     66          6           0      -11.771178    3.648619    1.657791
     67          1           0        0.743723    1.943952   -0.358588
     68          1           0        6.264959    5.437671   -0.089577
     69          1           0        9.586829   -0.130979    0.048322
     70          1           0        1.638359   -2.676412   -0.465756
     71          1           0        0.276304   -0.628317    0.935070
     72          1           0        0.573608   -0.478638   -2.192090
     73          1           0       -0.825773   -0.267021   -1.183993
     74          1           0       -0.013648   -1.883072   -1.573532
     75          1           0        1.238283   -1.959049    2.431366
     76          1           0        2.289506   -3.208157    1.963461
     77          1           0       -0.471059   -3.142270    2.239276
     78          1           0        0.569052   -4.625479    2.053033
     79          1           0        0.372015    4.863228    0.100879
     80          1           0        0.418715    3.741894   -1.362054
     81          1           0        0.910892    5.395069   -1.563648
     82          1           0        2.177273    7.048123   -2.343212
     83          1           0        3.050037    8.325611   -1.424195
     84          1           0        1.890738    7.229809   -0.624674
     85          1           0        8.670236    4.810185    0.641096
     86          1           0        9.969149    2.469543   -0.739450
     87          1           0        8.303045    3.913157   -2.296579
     88          1           0        9.771403    4.751916   -1.743081
     89          1           0        8.130610    5.531416   -1.639490
     90          1           0       10.825992    3.731133    1.342546
     91          1           0       11.171450    2.068502    1.040052
     92          1           0       10.012775    1.566038    3.076693
     93          1           0        8.673486    2.597022    2.569914
     94          1           0       10.030414    3.372091    3.346248
     95          1           0       10.081801   -2.418829    0.069672
     96          1           0        9.142684   -3.863277    0.075588
     97          1           0        9.394664   -3.060976    1.648312
     98          1           0        4.042876   -4.182033    1.234310
     99          1           0        1.965046   -6.369466   -1.921892
    100          1           0        1.939039   -7.394284   -0.489064
    101          1           0        3.435750   -7.237099   -1.464176
    102          1           0       -2.547407   -4.985861   -1.184359
    103          1           0       -1.931270   -3.404862   -1.848176
    104          1           0       -4.062511   -2.432337   -1.471890
    105          1           0       -5.595171   -5.144199    1.335350
    106          1           0       -4.305830   -5.799699    0.494324
    107          1           0       -5.957351   -5.812300   -0.168118
    108          1           0       -7.008935   -3.882024   -0.879084
    109          1           0       -6.085446   -2.536471   -1.509228
    110          1           0       -6.201342   -2.564943    1.433199
    111          1           0       -7.864670   -2.818748    0.936947
    112          1           0       -6.880663   -0.563971   -0.626766
    113          1           0       -6.466022   -0.307168    0.996436
    114          1           0       -9.268358   -1.195131    0.535051
    115          1           0       -8.223608    0.773953    2.567498
    116          1           0       -8.040646   -0.880202    2.833920
    117          1           0       -9.681848   -0.169809    2.580572
    118          1           0       -8.101329    1.502333   -0.009580
    119          1           0       -9.775817    1.115676    0.695740
    120          1           0       -9.826108   -0.558815   -1.458969
    121          1           0       -8.758244    0.718677   -2.086894
    122          1           0      -10.670811    1.964494   -2.511276
    123          1           0      -11.080509    2.084876   -0.866098
    124          1           0      -12.064144   -0.456498   -1.504779
    125          1           0      -13.484188    0.078891   -3.640047
    126          1           0      -11.747590   -0.200321   -3.833970
    127          1           0      -12.398225    1.460856   -3.886208
    128          1           0      -14.227499    0.509631   -1.091985
    129          1           0      -13.603467    2.126642   -1.547990
    130          1           0      -12.157135    1.148218    0.700946
    131          1           0      -13.720851    0.291981    0.766243
    132          1           0      -14.911115    2.232059    1.271538
    133          1           0      -13.965444    3.213969    0.226818
    134          1           0      -12.825073    2.156563    2.815418
    135          1           0      -13.807196    5.051213    2.479663
    136          1           0      -13.616975    4.262251    4.035895
    137          1           0      -14.977739    3.813292    3.059205
    138          1           0      -11.703498    3.703762    0.571127
    139          1           0      -10.973202    3.014843    2.045088
    140          1           0      -11.593997    4.586492    2.183648
 ---------------------------------------------------------------------

 SCF Done:  E(RPBE1PBE) =  -3005.38303719     A.U. after   15 cycles

 Excitation energies and oscillator strengths:

 Excited State   1:      Singlet-A      1.8397 eV  673.95 nm  f=0.3455  <S**2>=0.000
     245 -> 248        0.17833
     246 -> 247        0.69075
     246 <- 247       -0.10439
 This state for optimization and/or second-order correction.
 Total Energy, E(TD-HF/TD-DFT) =  -3005.31543052
 Copying the excited state density for this state as the 1-particle RhoCI density.

 Excited State   2:      Singlet-A      2.1847 eV  567.50 nm  f=0.1173  <S**2>=0.000
     245 -> 247        0.65306
     246 -> 248       -0.26004

 Excited State   3:      Singlet-A      2.9825 eV  415.71 nm  f=0.0000  <S**2>=0.000
     243 -> 247       -0.12539
     244 -> 247        0.67610

 Excited State   4:      Singlet-A      3.0947 eV  400.63 nm  f=0.0001  <S**2>=0.000
     243 -> 247        0.68269
     244 -> 247        0.12472

 Excited State   5:      Singlet-A      3.1293 eV  396.21 nm  f=0.0098  <S**2>=0.000
     239 -> 247        0.14413
     241 -> 247        0.46155
     241 -> 249        0.15670
     242 -> 247        0.42909
     246 -> 248       -0.11136

 The electronic state is 1-A.
 Alpha  occ. eigenvalues --  -46.91524 -19.25949 -19.23893 -19.21211 -19.18858
 Alpha  occ. eigenvalues --  -19.18819 -19.18500 -14.41688 -14.41523 -14.39358
 Alpha  occ. eigenvalues --  -14.38456 -10.37276 -10.35001 -10.32067 -10.30719
 Alpha  occ. eigenvalues --  -10.29751 -10.28854 -10.28792 -10.28495 -10.28350
 Alpha  occ. eigenvalues --  -10.28183 -10.28064 -10.27213 -10.26962 -10.26734
 Alpha  occ. eigenvalues --  -10.26015 -10.25852 -10.25689 -10.25481 -10.25432
 Alpha  occ. eigenvalues --  -10.24991 -10.24874 -10.24768 -10.24686 -10.24676
 Alpha  occ. eigenvalues --  -10.24670 -10.24650 -10.24601 -10.24552 -10.24278
 Alpha  occ. eigenvalues --  -10.24059 -10.24043 -10.24003 -10.23827 -10.23722
 Alpha  occ. eigenvalues --  -10.23671 -10.23540 -10.23438 -10.23323 -10.23292
 Alpha  occ. eigenvalues --  -10.23000 -10.22978 -10.22898 -10.22714 -10.22439
 Alpha  occ. eigenvalues --  -10.22403 -10.22347 -10.22262 -10.22243 -10.22204
 Alpha  occ. eigenvalues --  -10.22150 -10.22061 -10.21964 -10.21869 -10.21741
 Alpha  occ. eigenvalues --  -10.21285  -3.13658  -1.86506  -1.86030  -1.85884
 Alpha  occ. eigenvalues --   -1.10047  -1.08966  -1.05995  -1.03888  -1.03183
 Alpha  occ. eigenvalues --   -1.01284  -0.99147  -0.97659  -0.96737  -0.95706
 Alpha  occ. eigenvalues --   -0.86567  -0.85443  -0.84238  -0.83879  -0.83583
 Alpha  occ. eigenvalues --   -0.82969  -0.82109  -0.81517  -0.81451  -0.80871
 Alpha  occ. eigenvalues --   -0.80285  -0.79612  -0.78524  -0.77537  -0.77075
 Alpha  occ. eigenvalues --   -0.76873  -0.76357  -0.75506  -0.74732  -0.73920
 Alpha  occ. eigenvalues --   -0.73732  -0.72513  -0.72160  -0.70853  -0.70687
 Alpha  occ. eigenvalues --   -0.69563  -0.69386  -0.68844  -0.68771  -0.68491
 Alpha  occ. eigenvalues --   -0.67882  -0.66584  -0.65791  -0.64734  -0.63500
 Alpha  occ. eigenvalues --   -0.62751  -0.62246  -0.61264  -0.60981  -0.60230
 Alpha  occ. eigenvalues --   -0.60020  -0.58977  -0.58464  -0.58404  -0.57903
 Alpha  occ. eigenvalues --   -0.57641  -0.57573  -0.56187  -0.55243  -0.54793
 Alpha  occ. eigenvalues --   -0.54030  -0.53888  -0.53309  -0.52708  -0.51693
 Alpha  occ. eigenvalues --   -0.51564  -0.51118  -0.50816  -0.49994  -0.49794
 Alpha  occ. eigenvalues --   -0.49536  -0.49450  -0.49296  -0.48835  -0.48738
 Alpha  occ. eigenvalues --   -0.47988  -0.47789  -0.47449  -0.47399  -0.47314
 Alpha  occ. eigenvalues --   -0.47131  -0.46948  -0.46722  -0.46527  -0.46429
 Alpha  occ. eigenvalues --   -0.46185  -0.45831  -0.45598  -0.45473  -0.45098
 Alpha  occ. eigenvalues --   -0.44852  -0.44579  -0.44424  -0.44371  -0.44136
 Alpha  occ. eigenvalues --   -0.43987  -0.43764  -0.43658  -0.43547  -0.43391
 Alpha  occ. eigenvalues --   -0.43037  -0.43011  -0.42848  -0.42248  -0.42180
 Alpha  occ. eigenvalues --   -0.41816  -0.41641  -0.41447  -0.41151  -0.40965
 Alpha  occ. eigenvalues --   -0.40873  -0.40656  -0.40490  -0.40409  -0.40373
 Alpha  occ. eigenvalues --   -0.39957  -0.39764  -0.39444  -0.39441  -0.39368
 Alpha  occ. eigenvalues --   -0.39093  -0.38942  -0.38745  -0.38709  -0.38558
 Alpha  occ. eigenvalues --   -0.38260  -0.38191  -0.38017  -0.37890  -0.37767
 Alpha  occ. eigenvalues --   -0.37619  -0.37499  -0.37282  -0.37143  -0.36902
 Alpha  occ. eigenvalues --   -0.36723  -0.36571  -0.36393  -0.36258  -0.35903
 Alpha  occ. eigenvalues --   -0.35827  -0.35474  -0.35349  -0.35107  -0.34662
 Alpha  occ. eigenvalues --   -0.34507  -0.34464  -0.34256  -0.33750  -0.33603
 Alpha  occ. eigenvalues --   -0.33272  -0.33252  -0.32848  -0.32653  -0.32454
 Alpha  occ. eigenvalues --   -0.32190  -0.31926  -0.31554  -0.31492  -0.31234
 Alpha  occ. eigenvalues --   -0.30865  -0.30308  -0.29862  -0.29379  -0.29196
 Alpha  occ. eigenvalues --   -0.29166  -0.28531  -0.27421  -0.26546  -0.26355
 Alpha  occ. eigenvalues --   -0.25686  -0.25582  -0.25009  -0.24847  -0.20397
 Alpha  occ. eigenvalues --   -0.18391
 Alpha virt. eigenvalues --   -0.10781  -0.04988  -0.03755  -0.01320  -0.01153
 Alpha virt. eigenvalues --   -0.00621   0.00323   0.01265   0.02181   0.03440
 Alpha virt. eigenvalues --    0.04225   0.04734   0.04807   0.05189   0.06041

 Mulliken charges:
               1
     1  Mg   0.974825
     2  C    0.011353
     3  C   -0.069830
     4  C   -0.040376
     5  C   -0.062438
     6  N   -0.359974
     7  C    0.046396
     8  C   -0.183501
     9  C   -0.056506
    10  C    0.079003
    11  C    0.004111
    12  C   -0.011180
    13  C    0.049773
    14  C    0.217618
    15  O   -0.263119
    16  O   -0.384748
    17  N   -0.527942
    18  C    0.145757
    19  C   -0.180095
    20  C   -0.082633
    21  C    0.178833
    22  C    0.049728
    23  C    0.059845
    24  O   -0.268275
    25  C   -0.016970
    26  N   -0.382745
    27  C    0.005785
    28  C   -0.096415
    29  C   -0.068361
    30  C    0.098882
    31  C    0.027203
    32  C   -0.044349
    33  C   -0.069530
    34  N   -0.464054
    35  C    0.093690
    36  C   -0.197416
    37  C   -0.046215
    38  C    0.117214
    39  C    0.064160
    40  C    0.119515
    41  O   -0.174247
    42  C   -0.140096
    43  C    0.295249
    44  O   -0.236748
    45  O   -0.386065
    46  C    0.139013
    47  C    0.269358
    48  C   -0.138094
    49  C   -0.174761
    50  C    0.009935
    51  C   -0.018785
    52  C   -0.002262
    53  C    0.039301
    54  C   -0.260341
    55  C   -0.022455
    56  C   -0.039118
    57  C   -0.018547
    58  C   -0.022159
    59  C   -0.198176
    60  C   -0.009169
    61  C   -0.030148
    62  C   -0.056998
    63  C   -0.017081
    64  C   -0.241910
    65  C   -0.026144
    66  C   -0.026787
    67  H   -0.005408
    68  H    0.032328
    69  H    0.012191
    70  H    0.077316
    71  H    0.038699
    72  H    0.042971
    73  H    0.049946
    74  H    0.051760
    75  H    0.027766
    76  H    0.029978
    77  H    0.052298
    78  H    0.069300
    79  H    0.072800
    80  H    0.063003
    81  H    0.034570
    82  H    0.076982
    83  H    0.063609
    84  H    0.054244
    85  H    0.050548
    86  H    0.038158
    87  H    0.051663
    88  H    0.044482
    89  H    0.062970
    90  H    0.033892
    91  H    0.034745
    92  H    0.051248
    93  H    0.047271
    94  H    0.041474
    95  H    0.042857
    96  H    0.059622
    97  H    0.068047
    98  H    0.081237
    99  H    0.061164
   100  H    0.052601
   101  H    0.056890
   102  H    0.054170
   103  H    0.046261
   104  H    0.021677
   105  H    0.039484
   106  H    0.037855
   107  H    0.054046
   108  H    0.032985
   109  H    0.034314
   110  H    0.041258
   111  H    0.037488
   112  H    0.019596
   113  H    0.017811
   114  H    0.024295
   115  H    0.026923
   116  H    0.021607
   117  H    0.039717
   118  H    0.031463
   119  H    0.049685
   120  H    0.029668
   121  H    0.031629
   122  H    0.014212
   123  H    0.023573
   124  H    0.018968
   125  H    0.033708
   126  H    0.035400
   127  H    0.037083
   128  H    0.024451
   129  H    0.029654
   130  H    0.035062
   131  H    0.031124
   132  H    0.022317
   133  H    0.024180
   134  H    0.039181
   135  H    0.037604
   136  H    0.037060
   137  H    0.031834
   138  H    0.064972
   139  H    0.034668
   140  H    0.030011
 Sum of Mulliken charges =  -0.00000

 Dipole moment (field-independent basis, Debye):
    X=             -6.0087    Y=              2.7316    Z=              2.2719  Tot=              6.9806
 Quadrupole moment (field-independent basis, Debye-Ang):
   XX=           -385.1660   YY=           -417.7359   ZZ=           -404.2468
   XY=             34.5415   XZ=             12.4339   YZ=             -6.5317

 Normal termination of Gaussian 16 at Wed May  4 18:14:10 2022.
