 Gaussian 16, Revision A.03,
 Gaussian 16:  ES64L-G16RevA.03 25-Dec-2016

 --------------------------------
 #p wB97XD/Def2SVP td=(nstates=5)
 --------------------------------

 ----------------------------------------------------
 step_301_chromophore_24 TDDFT with wB97XD functional
 ----------------------------------------------------
 Symbolic Z-matrix:
 Charge =  0 Multiplicity = 1

                         Standard orientation:
 ---------------------------------------------------------------------
 Center     Atomic      Atomic             Coordinates (Angstroms)
 Number     Number       Type             X           Y           Z
 ---------------------------------------------------------------------
      1         12           0        5.112307    1.095536    0.275897
      2          6           0        4.338242   -2.363393    0.339907
      3          6           0        1.792305    1.703112   -0.171830
      4          6           0        5.976682    4.385064   -0.042721
      5          6           0        8.581913    0.243049    0.253808
      6          7           0        3.299417   -0.144446    0.132198
      7          6           0        3.261624   -1.480273    0.311725
      8          6           0        1.783041   -1.957835    0.340584
      9          6           0        0.920990   -0.731126    0.061138
     10          6           0        2.047525    0.346024    0.154751
     11          6           0        0.097746   -0.839034   -1.280711
     12          6           0        1.384120   -2.694749    1.640504
     13          6           0        0.202151   -3.706845    1.594904
     14          6           0       -0.443121   -4.121064    0.269607
     15          8           0        0.152791   -4.825508   -0.542257
     16          8           0       -1.758773   -3.623009    0.202315
     17          7           0        4.031742    2.777158   -0.152005
     18          6           0        2.666016    2.833721   -0.273356
     19          6           0        2.264999    4.274720   -0.474193
     20          6           0        3.495402    4.990759   -0.541475
     21          6           0        4.594936    4.080089   -0.170280
     22          6           0        0.859187    4.587386   -0.833394
     23          6           0        3.725093    6.419767   -1.051658
     24          8           0        4.867363    6.909086   -1.119766
     25          6           0        2.654351    7.310331   -1.398692
     26          7           0        7.004011    2.134511    0.031939
     27          6           0        7.117778    3.506820   -0.010957
     28          6           0        8.597657    4.067946   -0.154556
     29          6           0        9.346278    2.731861    0.115983
     30          6           0        8.280087    1.611707    0.188959
     31          6           0        8.705604    4.608909   -1.560599
     32          6           0       10.352674    2.751979    1.265715
     33          6           0        9.756617    2.549956    2.684791
     34          7           0        6.231784   -0.664640    0.328353
     35          6           0        7.607147   -0.866097    0.408694
     36          6           0        7.895703   -2.268925    0.463279
     37          6           0        6.639229   -2.884387    0.467643
     38          6           0        5.657027   -1.863352    0.354549
     39          6           0        9.249372   -2.903143    0.579602
     40          6           0        6.026294   -4.152264    0.334138
     41          8           0        6.484669   -5.238820    0.257332
     42          6           0        4.448255   -3.816268    0.290662
     43          6           0        3.817260   -4.639602   -0.826024
     44          8           0        3.978969   -4.489618   -2.012416
     45          8           0        3.017974   -5.587369   -0.219310
     46          6           0        2.558822   -6.716543   -1.077190
     47          6           0       -2.483133   -3.906048   -1.053788
     48          6           0       -3.833321   -3.315809   -0.875887
     49          6           0       -4.944517   -3.831924   -0.310037
     50          6           0       -5.199325   -5.199969    0.321086
     51          6           0       -6.275765   -3.120957   -0.609448
     52          6           0       -6.911325   -2.393495    0.623995
     53          6           0       -7.110081   -0.927510    0.374265
     54          6           0       -8.486343   -0.467158    0.749109
     55          6           0       -8.642887   -0.182046    2.251911
     56          6           0       -8.944940    0.815223    0.056994
     57          6           0       -9.551469    0.491988   -1.373731
     58          6           0      -10.853480    1.344698   -1.633029
     59          6           0      -12.199591    0.557665   -1.879565
     60          6           0      -12.494306    0.478320   -3.422590
     61          6           0      -13.359739    1.169546   -1.086669
     62          6           0      -13.205382    1.181555    0.403683
     63          6           0      -13.878285    2.481669    1.029316
     64          6           0      -13.084481    3.008549    2.186469
     65          6           0      -13.929336    4.103628    3.003260
     66          6           0      -11.771178    3.648619    1.657791
     67          1           0        0.743723    1.943952   -0.358588
     68          1           0        6.264959    5.437671   -0.089577
     69          1           0        9.586829   -0.130979    0.048322
     70          1           0        1.638359   -2.676412   -0.465756
     71          1           0        0.276304   -0.628317    0.935070
     72          1           0        0.573608   -0.478638   -2.192090
     73          1           0       -0.825773   -0.267021   -1.183993
     74          1           0       -0.013648   -1.883072   -1.573532
     75          1           0        1.238283   -1.959049    2.431366
     76          1           0        2.289506   -3.208157    1.963461
     77          1           0       -0.471059   -3.142270    2.239276
     78          1           0        0.569052   -4.625479    2.053033
     79          1           0        0.372015    4.863228    0.100879
     80          1           0        0.418715    3.741894   -1.362054
     81          1           0        0.910892    5.395069   -1.563648
     82          1           0        2.177273    7.048123   -2.343212
     83          1           0        3.050037    8.325611   -1.424195
     84          1           0        1.890738    7.229809   -0.624674
     85          1           0        8.670236    4.810185    0.641096
     86          1           0        9.969149    2.469543   -0.739450
     87          1           0        8.303045    3.913157   -2.296579
     88          1           0        9.771403    4.751916   -1.743081
     89          1           0        8.130610    5.531416   -1.639490
     90          1           0       10.825992    3.731133    1.342546
     91          1           0       11.171450    2.068502    1.040052
     92          1           0       10.012775    1.566038    3.076693
     93          1           0        8.673486    2.597022    2.569914
     94          1           0       10.030414    3.372091    3.346248
     95          1           0       10.081801   -2.418829    0.069672
     96          1           0        9.142684   -3.863277    0.075588
     97          1           0        9.394664   -3.060976    1.648312
     98          1           0        4.042876   -4.182033    1.234310
     99          1           0        1.965046   -6.369466   -1.921892
    100          1           0        1.939039   -7.394284   -0.489064
    101          1           0        3.435750   -7.237099   -1.464176
    102          1           0       -2.547407   -4.985861   -1.184359
    103          1           0       -1.931270   -3.404862   -1.848176
    104          1           0       -4.062511   -2.432337   -1.471890
    105          1           0       -5.595171   -5.144199    1.335350
    106          1           0       -4.305830   -5.799699    0.494324
    107          1           0       -5.957351   -5.812300   -0.168118
    108          1           0       -7.008935   -3.882024   -0.879084
    109          1           0       -6.085446   -2.536471   -1.509228
    110          1           0       -6.201342   -2.564943    1.433199
    111          1           0       -7.864670   -2.818748    0.936947
    112          1           0       -6.880663   -0.563971   -0.626766
    113          1           0       -6.466022   -0.307168    0.996436
    114          1           0       -9.268358   -1.195131    0.535051
    115          1           0       -8.223608    0.773953    2.567498
    116          1           0       -8.040646   -0.880202    2.833920
    117          1           0       -9.681848   -0.169809    2.580572
    118          1           0       -8.101329    1.502333   -0.009580
    119          1           0       -9.775817    1.115676    0.695740
    120          1           0       -9.826108   -0.558815   -1.458969
    121          1           0       -8.758244    0.718677   -2.086894
    122          1           0      -10.670811    1.964494   -2.511276
    123          1           0      -11.080509    2.084876   -0.866098
    124          1           0      -12.064144   -0.456498   -1.504779
    125          1           0      -13.484188    0.078891   -3.640047
    126          1           0      -11.747590   -0.200321   -3.833970
    127          1           0      -12.398225    1.460856   -3.886208
    128          1           0      -14.227499    0.509631   -1.091985
    129          1           0      -13.603467    2.126642   -1.547990
    130          1           0      -12.157135    1.148218    0.700946
    131          1           0      -13.720851    0.291981    0.766243
    132          1           0      -14.911115    2.232059    1.271538
    133          1           0      -13.965444    3.213969    0.226818
    134          1           0      -12.825073    2.156563    2.815418
    135          1           0      -13.807196    5.051213    2.479663
    136          1           0      -13.616975    4.262251    4.035895
    137          1           0      -14.977739    3.813292    3.059205
    138          1           0      -11.703498    3.703762    0.571127
    139          1           0      -10.973202    3.014843    2.045088
    140          1           0      -11.593997    4.586492    2.183648
 ---------------------------------------------------------------------

 SCF Done:  E(RwB97XD) =  -3007.89627231     A.U. after   19 cycles

 Excitation energies and oscillator strengths:

 Excited State   1:      Singlet-A      1.6563 eV  748.57 nm  f=0.3547  <S**2>=0.000
     245 -> 248        0.18656
     246 -> 247        0.68273
     245 <- 248        0.11663
 This state for optimization and/or second-order correction.
 Total Energy, E(TD-HF/TD-DFT) =  -3007.83540549
 Copying the excited state density for this state as the 1-particle RhoCI density.

 Excited State   2:      Singlet-A      2.1318 eV  581.59 nm  f=0.1166  <S**2>=0.000
     245 -> 247        0.63883
     246 -> 248       -0.28906

 Excited State   3:      Singlet-A      3.4551 eV  358.84 nm  f=0.1765  <S**2>=0.000
     239 -> 247       -0.10406
     241 -> 247        0.13924
     242 -> 247        0.40510
     244 -> 247       -0.37980
     245 -> 247        0.12879
     246 -> 248        0.34420

 Excited State   4:      Singlet-A      3.5093 eV  353.30 nm  f=0.3331  <S**2>=0.000
     239 -> 247       -0.10844
     244 -> 247        0.44589
     245 -> 247        0.20002
     246 -> 248        0.46569

 Excited State   5:      Singlet-A      3.5856 eV  345.78 nm  f=0.0033  <S**2>=0.000
     239 -> 247        0.28399
     239 -> 249        0.28972
     241 -> 247        0.39479
     241 -> 249        0.23345
     242 -> 247        0.12271
     244 -> 247        0.19364

 The electronic state is 1-A.
 Alpha  occ. eigenvalues --  -46.94467 -19.30472 -19.28323 -19.25848 -19.23903
 Alpha  occ. eigenvalues --  -19.23447 -19.22984 -14.46800 -14.46628 -14.44448
 Alpha  occ. eigenvalues --  -14.43199 -10.44044 -10.41714 -10.39189 -10.37296
 Alpha  occ. eigenvalues --  -10.36282 -10.35398 -10.35382 -10.35240 -10.34955
 Alpha  occ. eigenvalues --  -10.34364 -10.34144 -10.33670 -10.33651 -10.32775
 Alpha  occ. eigenvalues --  -10.32351 -10.32275 -10.32190 -10.32007 -10.31574
 Alpha  occ. eigenvalues --  -10.31409 -10.31236 -10.31145 -10.31107 -10.30973
 Alpha  occ. eigenvalues --  -10.30928 -10.30887 -10.30746 -10.30638 -10.30602
 Alpha  occ. eigenvalues --  -10.30507 -10.30485 -10.30481 -10.30201 -10.30131
 Alpha  occ. eigenvalues --  -10.30081 -10.29962 -10.29834 -10.29692 -10.29678
 Alpha  occ. eigenvalues --  -10.29461 -10.29361 -10.29063 -10.29002 -10.28802
 Alpha  occ. eigenvalues --  -10.28775 -10.28718 -10.28655 -10.28600 -10.28590
 Alpha  occ. eigenvalues --  -10.28578 -10.28516 -10.28408 -10.28310 -10.28122
 Alpha  occ. eigenvalues --  -10.27181  -3.20454  -1.94053  -1.93574  -1.93429
 Alpha  occ. eigenvalues --   -1.17408  -1.16238  -1.13140  -1.11662  -1.10494
 Alpha  occ. eigenvalues --   -1.08514  -1.06528  -1.04777  -1.04175  -1.03330
 Alpha  occ. eigenvalues --   -0.93975  -0.93110  -0.91906  -0.91514  -0.91225
 Alpha  occ. eigenvalues --   -0.90553  -0.90027  -0.89227  -0.89196  -0.88443
 Alpha  occ. eigenvalues --   -0.87732  -0.87278  -0.86216  -0.85356  -0.84844
 Alpha  occ. eigenvalues --   -0.84494  -0.83960  -0.83170  -0.82312  -0.81613
 Alpha  occ. eigenvalues --   -0.81302  -0.80324  -0.79766  -0.78428  -0.78340
 Alpha  occ. eigenvalues --   -0.77113  -0.77094  -0.76468  -0.76385  -0.76169
 Alpha  occ. eigenvalues --   -0.75508  -0.74051  -0.73397  -0.72308  -0.71057
 Alpha  occ. eigenvalues --   -0.70392  -0.69759  -0.68867  -0.68647  -0.67900
 Alpha  occ. eigenvalues --   -0.67592  -0.66406  -0.65908  -0.65803  -0.65614
 Alpha  occ. eigenvalues --   -0.65327  -0.65010  -0.63826  -0.62565  -0.62314
 Alpha  occ. eigenvalues --   -0.61597  -0.61389  -0.60665  -0.60027  -0.59147
 Alpha  occ. eigenvalues --   -0.58997  -0.58588  -0.58204  -0.57410  -0.57224
 Alpha  occ. eigenvalues --   -0.56991  -0.56857  -0.56664  -0.56233  -0.56151
 Alpha  occ. eigenvalues --   -0.55508  -0.55389  -0.54880  -0.54821  -0.54638
 Alpha  occ. eigenvalues --   -0.54455  -0.54349  -0.54127  -0.53925  -0.53780
 Alpha  occ. eigenvalues --   -0.53482  -0.53448  -0.52957  -0.52747  -0.52443
 Alpha  occ. eigenvalues --   -0.52117  -0.51993  -0.51855  -0.51554  -0.51455
 Alpha  occ. eigenvalues --   -0.51338  -0.51097  -0.50922  -0.50854  -0.50640
 Alpha  occ. eigenvalues --   -0.50396  -0.50215  -0.50193  -0.49560  -0.49487
 Alpha  occ. eigenvalues --   -0.49004  -0.48950  -0.48868  -0.48389  -0.48228
 Alpha  occ. eigenvalues --   -0.48070  -0.47880  -0.47646  -0.47622  -0.47586
 Alpha  occ. eigenvalues --   -0.47125  -0.46918  -0.46722  -0.46550  -0.46505
 Alpha  occ. eigenvalues --   -0.46210  -0.46130  -0.45874  -0.45825  -0.45688
 Alpha  occ. eigenvalues --   -0.45456  -0.45333  -0.45165  -0.44951  -0.44871
 Alpha  occ. eigenvalues --   -0.44797  -0.44494  -0.44415  -0.44172  -0.44057
 Alpha  occ. eigenvalues --   -0.43765  -0.43687  -0.43561  -0.43395  -0.43182
 Alpha  occ. eigenvalues --   -0.42933  -0.42513  -0.42399  -0.42102  -0.41698
 Alpha  occ. eigenvalues --   -0.41548  -0.41466  -0.41197  -0.40828  -0.40543
 Alpha  occ. eigenvalues --   -0.40286  -0.40237  -0.39925  -0.39714  -0.39524
 Alpha  occ. eigenvalues --   -0.39221  -0.38881  -0.38513  -0.38383  -0.38207
 Alpha  occ. eigenvalues --   -0.37868  -0.37331  -0.36750  -0.36316  -0.36037
 Alpha  occ. eigenvalues --   -0.35979  -0.35432  -0.34129  -0.33528  -0.33084
 Alpha  occ. eigenvalues --   -0.32801  -0.32288  -0.31624  -0.31283  -0.25414
 Alpha  occ. eigenvalues --   -0.22606
 Alpha virt. eigenvalues --   -0.06635   0.00424   0.02386   0.05329   0.05545
 Alpha virt. eigenvalues --    0.06030   0.06286   0.08006   0.09141   0.09913
 Alpha virt. eigenvalues --    0.10603   0.11293   0.11650   0.11926   0.12789

 Mulliken charges:
               1
     1  Mg   0.963901
     2  C    0.003332
     3  C   -0.084372
     4  C   -0.056845
     5  C   -0.077139
     6  N   -0.324543
     7  C    0.013883
     8  C   -0.149579
     9  C   -0.034623
    10  C    0.063077
    11  C    0.019027
    12  C    0.003202
    13  C    0.063251
    14  C    0.203867
    15  O   -0.258073
    16  O   -0.382691
    17  N   -0.499730
    18  C    0.143489
    19  C   -0.170637
    20  C   -0.072781
    21  C    0.173745
    22  C    0.065233
    23  C    0.056376
    24  O   -0.260819
    25  C   -0.008940
    26  N   -0.352232
    27  C   -0.001809
    28  C   -0.071125
    29  C   -0.042180
    30  C    0.084099
    31  C    0.034893
    32  C   -0.033561
    33  C   -0.049476
    34  N   -0.423102
    35  C    0.078221
    36  C   -0.194311
    37  C   -0.046644
    38  C    0.098173
    39  C    0.075151
    40  C    0.103770
    41  O   -0.166245
    42  C   -0.098881
    43  C    0.269084
    44  O   -0.230729
    45  O   -0.383084
    46  C    0.150511
    47  C    0.279778
    48  C   -0.139796
    49  C   -0.166371
    50  C    0.021108
    51  C    0.002220
    52  C    0.012791
    53  C    0.050661
    54  C   -0.227408
    55  C   -0.006834
    56  C   -0.005619
    57  C   -0.005201
    58  C    0.005015
    59  C   -0.170274
    60  C    0.004869
    61  C   -0.014453
    62  C   -0.029797
    63  C   -0.004589
    64  C   -0.209133
    65  C   -0.012371
    66  C   -0.014331
    67  H   -0.013320
    68  H    0.027240
    69  H    0.006123
    70  H    0.056450
    71  H    0.028914
    72  H    0.038379
    73  H    0.045172
    74  H    0.040846
    75  H    0.019769
    76  H    0.017356
    77  H    0.046845
    78  H    0.065588
    79  H    0.070552
    80  H    0.060014
    81  H    0.027817
    82  H    0.074161
    83  H    0.063949
    84  H    0.048479
    85  H    0.042828
    86  H    0.027939
    87  H    0.046118
    88  H    0.039537
    89  H    0.057486
    90  H    0.024761
    91  H    0.028665
    92  H    0.046216
    93  H    0.034365
    94  H    0.036439
    95  H    0.037158
    96  H    0.053927
    97  H    0.061703
    98  H    0.070893
    99  H    0.058153
   100  H    0.050064
   101  H    0.053447
   102  H    0.050042
   103  H    0.042206
   104  H    0.017224
   105  H    0.033740
   106  H    0.032880
   107  H    0.049023
   108  H    0.024741
   109  H    0.025485
   110  H    0.031787
   111  H    0.029450
   112  H    0.009447
   113  H    0.008496
   114  H    0.009112
   115  H    0.018941
   116  H    0.014912
   117  H    0.033625
   118  H    0.023886
   119  H    0.021693
   120  H    0.018833
   121  H    0.024787
   122  H    0.005655
   123  H   -0.001802
   124  H    0.006514
   125  H    0.028378
   126  H    0.028648
   127  H    0.030051
   128  H    0.015915
   129  H    0.019737
   130  H    0.011442
   131  H    0.024387
   132  H    0.014667
   133  H    0.012356
   134  H    0.028593
   135  H    0.030121
   136  H    0.031967
   137  H    0.025739
   138  H    0.058946
   139  H    0.027099
   140  H    0.024848
 Sum of Mulliken charges =  -0.00000

 Dipole moment (field-independent basis, Debye):
    X=             -6.4934    Y=              3.5206    Z=              2.1833  Tot=              7.7024
 Quadrupole moment (field-independent basis, Debye-Ang):
   XX=           -390.0413   YY=           -414.8132   ZZ=           -403.7566
   XY=             37.4230   XZ=             12.1394   YZ=             -6.9774

 Normal termination of Gaussian 16 at Wed May  4 18:55:41 2022.
