 Gaussian 16, Revision A.03,
 Gaussian 16:  ES64L-G16RevA.03 25-Dec-2016

 --------------------
 #p ZINDO=(nstates=5)
 --------------------

 -----------------------------
 step_301_chromophore_24 ZINDO
 -----------------------------
 Symbolic Z-matrix:
 Charge =  0 Multiplicity = 1

                         Standard orientation:
 ---------------------------------------------------------------------
 Center     Atomic      Atomic             Coordinates (Angstroms)
 Number     Number       Type             X           Y           Z
 ---------------------------------------------------------------------
      1         12           0        5.112307    1.095536    0.275897
      2          6           0        4.338242   -2.363393    0.339907
      3          6           0        1.792305    1.703112   -0.171830
      4          6           0        5.976682    4.385064   -0.042721
      5          6           0        8.581913    0.243049    0.253808
      6          7           0        3.299417   -0.144446    0.132198
      7          6           0        3.261624   -1.480273    0.311725
      8          6           0        1.783041   -1.957835    0.340584
      9          6           0        0.920990   -0.731126    0.061138
     10          6           0        2.047525    0.346024    0.154751
     11          6           0        0.097746   -0.839034   -1.280711
     12          6           0        1.384120   -2.694749    1.640504
     13          6           0        0.202151   -3.706845    1.594904
     14          6           0       -0.443121   -4.121064    0.269607
     15          8           0        0.152791   -4.825508   -0.542257
     16          8           0       -1.758773   -3.623009    0.202315
     17          7           0        4.031742    2.777158   -0.152005
     18          6           0        2.666016    2.833721   -0.273356
     19          6           0        2.264999    4.274720   -0.474193
     20          6           0        3.495402    4.990759   -0.541475
     21          6           0        4.594936    4.080089   -0.170280
     22          6           0        0.859187    4.587386   -0.833394
     23          6           0        3.725093    6.419767   -1.051658
     24          8           0        4.867363    6.909086   -1.119766
     25          6           0        2.654351    7.310331   -1.398692
     26          7           0        7.004011    2.134511    0.031939
     27          6           0        7.117778    3.506820   -0.010957
     28          6           0        8.597657    4.067946   -0.154556
     29          6           0        9.346278    2.731861    0.115983
     30          6           0        8.280087    1.611707    0.188959
     31          6           0        8.705604    4.608909   -1.560599
     32          6           0       10.352674    2.751979    1.265715
     33          6           0        9.756617    2.549956    2.684791
     34          7           0        6.231784   -0.664640    0.328353
     35          6           0        7.607147   -0.866097    0.408694
     36          6           0        7.895703   -2.268925    0.463279
     37          6           0        6.639229   -2.884387    0.467643
     38          6           0        5.657027   -1.863352    0.354549
     39          6           0        9.249372   -2.903143    0.579602
     40          6           0        6.026294   -4.152264    0.334138
     41          8           0        6.484669   -5.238820    0.257332
     42          6           0        4.448255   -3.816268    0.290662
     43          6           0        3.817260   -4.639602   -0.826024
     44          8           0        3.978969   -4.489618   -2.012416
     45          8           0        3.017974   -5.587369   -0.219310
     46          6           0        2.558822   -6.716543   -1.077190
     47          6           0       -2.483133   -3.906048   -1.053788
     48          6           0       -3.833321   -3.315809   -0.875887
     49          6           0       -4.944517   -3.831924   -0.310037
     50          6           0       -5.199325   -5.199969    0.321086
     51          6           0       -6.275765   -3.120957   -0.609448
     52          6           0       -6.911325   -2.393495    0.623995
     53          6           0       -7.110081   -0.927510    0.374265
     54          6           0       -8.486343   -0.467158    0.749109
     55          6           0       -8.642887   -0.182046    2.251911
     56          6           0       -8.944940    0.815223    0.056994
     57          6           0       -9.551469    0.491988   -1.373731
     58          6           0      -10.853480    1.344698   -1.633029
     59          6           0      -12.199591    0.557665   -1.879565
     60          6           0      -12.494306    0.478320   -3.422590
     61          6           0      -13.359739    1.169546   -1.086669
     62          6           0      -13.205382    1.181555    0.403683
     63          6           0      -13.878285    2.481669    1.029316
     64          6           0      -13.084481    3.008549    2.186469
     65          6           0      -13.929336    4.103628    3.003260
     66          6           0      -11.771178    3.648619    1.657791
     67          1           0        0.743723    1.943952   -0.358588
     68          1           0        6.264959    5.437671   -0.089577
     69          1           0        9.586829   -0.130979    0.048322
     70          1           0        1.638359   -2.676412   -0.465756
     71          1           0        0.276304   -0.628317    0.935070
     72          1           0        0.573608   -0.478638   -2.192090
     73          1           0       -0.825773   -0.267021   -1.183993
     74          1           0       -0.013648   -1.883072   -1.573532
     75          1           0        1.238283   -1.959049    2.431366
     76          1           0        2.289506   -3.208157    1.963461
     77          1           0       -0.471059   -3.142270    2.239276
     78          1           0        0.569052   -4.625479    2.053033
     79          1           0        0.372015    4.863228    0.100879
     80          1           0        0.418715    3.741894   -1.362054
     81          1           0        0.910892    5.395069   -1.563648
     82          1           0        2.177273    7.048123   -2.343212
     83          1           0        3.050037    8.325611   -1.424195
     84          1           0        1.890738    7.229809   -0.624674
     85          1           0        8.670236    4.810185    0.641096
     86          1           0        9.969149    2.469543   -0.739450
     87          1           0        8.303045    3.913157   -2.296579
     88          1           0        9.771403    4.751916   -1.743081
     89          1           0        8.130610    5.531416   -1.639490
     90          1           0       10.825992    3.731133    1.342546
     91          1           0       11.171450    2.068502    1.040052
     92          1           0       10.012775    1.566038    3.076693
     93          1           0        8.673486    2.597022    2.569914
     94          1           0       10.030414    3.372091    3.346248
     95          1           0       10.081801   -2.418829    0.069672
     96          1           0        9.142684   -3.863277    0.075588
     97          1           0        9.394664   -3.060976    1.648312
     98          1           0        4.042876   -4.182033    1.234310
     99          1           0        1.965046   -6.369466   -1.921892
    100          1           0        1.939039   -7.394284   -0.489064
    101          1           0        3.435750   -7.237099   -1.464176
    102          1           0       -2.547407   -4.985861   -1.184359
    103          1           0       -1.931270   -3.404862   -1.848176
    104          1           0       -4.062511   -2.432337   -1.471890
    105          1           0       -5.595171   -5.144199    1.335350
    106          1           0       -4.305830   -5.799699    0.494324
    107          1           0       -5.957351   -5.812300   -0.168118
    108          1           0       -7.008935   -3.882024   -0.879084
    109          1           0       -6.085446   -2.536471   -1.509228
    110          1           0       -6.201342   -2.564943    1.433199
    111          1           0       -7.864670   -2.818748    0.936947
    112          1           0       -6.880663   -0.563971   -0.626766
    113          1           0       -6.466022   -0.307168    0.996436
    114          1           0       -9.268358   -1.195131    0.535051
    115          1           0       -8.223608    0.773953    2.567498
    116          1           0       -8.040646   -0.880202    2.833920
    117          1           0       -9.681848   -0.169809    2.580572
    118          1           0       -8.101329    1.502333   -0.009580
    119          1           0       -9.775817    1.115676    0.695740
    120          1           0       -9.826108   -0.558815   -1.458969
    121          1           0       -8.758244    0.718677   -2.086894
    122          1           0      -10.670811    1.964494   -2.511276
    123          1           0      -11.080509    2.084876   -0.866098
    124          1           0      -12.064144   -0.456498   -1.504779
    125          1           0      -13.484188    0.078891   -3.640047
    126          1           0      -11.747590   -0.200321   -3.833970
    127          1           0      -12.398225    1.460856   -3.886208
    128          1           0      -14.227499    0.509631   -1.091985
    129          1           0      -13.603467    2.126642   -1.547990
    130          1           0      -12.157135    1.148218    0.700946
    131          1           0      -13.720851    0.291981    0.766243
    132          1           0      -14.911115    2.232059    1.271538
    133          1           0      -13.965444    3.213969    0.226818
    134          1           0      -12.825073    2.156563    2.815418
    135          1           0      -13.807196    5.051213    2.479663
    136          1           0      -13.616975    4.262251    4.035895
    137          1           0      -14.977739    3.813292    3.059205
    138          1           0      -11.703498    3.703762    0.571127
    139          1           0      -10.973202    3.014843    2.045088
    140          1           0      -11.593997    4.586492    2.183648
 ---------------------------------------------------------------------

 SCF Done:  E(RZINDO/S) =  -474.240494116     A.U. after   20 cycles

 Excitation energies and oscillator strengths:

 Excited State   1:      Singlet-A      1.2859 eV  964.19 nm  f=0.5465  <S**2>=0.000
     175 ->178         0.18104
     176 ->177         0.66644
 This state for optimization and/or second-order correction.
 Total Energy, E(CIS/TDA) =  -474.193238441
 Copying the excited state density for this state as the 1-particle RhoCI density.

 Excited State   2:      Singlet-A      1.8825 eV  658.62 nm  f=0.0449  <S**2>=0.000
     175 ->177         0.54601
     176 ->178        -0.41968

 Excited State   3:      Singlet-A      2.8509 eV  434.90 nm  f=0.0389  <S**2>=0.000
     167 ->179         0.11793
     168 ->177        -0.29242
     168 ->179         0.46658
     168 ->181        -0.16202
     168 ->183         0.11382
     168 ->186        -0.20089
     168 ->187        -0.10219
     176 ->178         0.10392

 Excited State   4:      Singlet-A      2.9883 eV  414.90 nm  f=1.1156  <S**2>=0.000
     171 ->177        -0.10332
     175 ->177         0.38829
     176 ->178         0.52167
     176 ->179        -0.11393

 Excited State   5:      Singlet-A      3.0751 eV  403.19 nm  f=0.0939  <S**2>=0.000
     172 ->177        -0.11014
     172 ->181        -0.11000
     176 ->178         0.11385
     176 ->179         0.59681
     176 ->181         0.17474

 The electronic state is 1-A.
 Alpha  occ. eigenvalues --   -1.83921  -1.79376  -1.78046  -1.71289  -1.70064
 Alpha  occ. eigenvalues --   -1.68859  -1.67477  -1.63123  -1.60164  -1.58307
 Alpha  occ. eigenvalues --   -1.54762  -1.52532  -1.49698  -1.48055  -1.46095
 Alpha  occ. eigenvalues --   -1.44290  -1.44051  -1.40272  -1.39140  -1.38010
 Alpha  occ. eigenvalues --   -1.35386  -1.32988  -1.32679  -1.31577  -1.27615
 Alpha  occ. eigenvalues --   -1.27134  -1.24194  -1.22348  -1.21765  -1.18386
 Alpha  occ. eigenvalues --   -1.17276  -1.15604  -1.14808  -1.13751  -1.12492
 Alpha  occ. eigenvalues --   -1.12218  -1.11398  -1.10659  -1.04156  -1.03735
 Alpha  occ. eigenvalues --   -1.02469  -1.01135  -0.98580  -0.97375  -0.96633
 Alpha  occ. eigenvalues --   -0.95606  -0.94042  -0.93334  -0.93186  -0.92324
 Alpha  occ. eigenvalues --   -0.91022  -0.90292  -0.89804  -0.88107  -0.84993
 Alpha  occ. eigenvalues --   -0.84875  -0.83820  -0.83018  -0.81115  -0.80966
 Alpha  occ. eigenvalues --   -0.79563  -0.78157  -0.77756  -0.76802  -0.76068
 Alpha  occ. eigenvalues --   -0.75345  -0.74863  -0.74778  -0.74571  -0.74421
 Alpha  occ. eigenvalues --   -0.73184  -0.72606  -0.71970  -0.71564  -0.70848
 Alpha  occ. eigenvalues --   -0.70448  -0.69417  -0.69154  -0.68906  -0.68188
 Alpha  occ. eigenvalues --   -0.67455  -0.67141  -0.66278  -0.65676  -0.65288
 Alpha  occ. eigenvalues --   -0.64889  -0.64212  -0.63938  -0.63886  -0.63500
 Alpha  occ. eigenvalues --   -0.63023  -0.62932  -0.62628  -0.62053  -0.61715
 Alpha  occ. eigenvalues --   -0.61598  -0.61279  -0.60848  -0.60427  -0.59338
 Alpha  occ. eigenvalues --   -0.59191  -0.58984  -0.58428  -0.58319  -0.57768
 Alpha  occ. eigenvalues --   -0.57393  -0.57028  -0.56859  -0.56732  -0.56366
 Alpha  occ. eigenvalues --   -0.56139  -0.55554  -0.55066  -0.54662  -0.54581
 Alpha  occ. eigenvalues --   -0.54418  -0.53786  -0.53505  -0.52834  -0.52711
 Alpha  occ. eigenvalues --   -0.52075  -0.51971  -0.51900  -0.51582  -0.51456
 Alpha  occ. eigenvalues --   -0.51109  -0.50938  -0.50485  -0.50383  -0.49998
 Alpha  occ. eigenvalues --   -0.49991  -0.49907  -0.49301  -0.48696  -0.48460
 Alpha  occ. eigenvalues --   -0.48271  -0.48231  -0.47876  -0.47749  -0.47666
 Alpha  occ. eigenvalues --   -0.47581  -0.47316  -0.47147  -0.46928  -0.46457
 Alpha  occ. eigenvalues --   -0.46265  -0.46186  -0.46068  -0.45664  -0.45090
 Alpha  occ. eigenvalues --   -0.45081  -0.44839  -0.44496  -0.44408  -0.44329
 Alpha  occ. eigenvalues --   -0.43506  -0.43209  -0.42754  -0.42669  -0.42208
 Alpha  occ. eigenvalues --   -0.41791  -0.41293  -0.40703  -0.39386  -0.38073
 Alpha  occ. eigenvalues --   -0.37275  -0.36639  -0.35705  -0.33968  -0.33306
 Alpha  occ. eigenvalues --   -0.33167  -0.33048  -0.31999  -0.31437  -0.26189
 Alpha  occ. eigenvalues --   -0.21542
 Alpha virt. eigenvalues --   -0.08086  -0.01981  -0.00594   0.01335   0.02199
 Alpha virt. eigenvalues --    0.02726   0.03177   0.03334   0.04104   0.04855
 Alpha virt. eigenvalues --    0.06146   0.06816   0.06983   0.07986   0.08512

 Mulliken charges:
               1
     1  Mg   0.420983
     2  C   -0.017254
     3  C   -0.091518
     4  C   -0.073980
     5  C   -0.074431
     6  N   -0.251508
     7  C    0.092458
     8  C   -0.005590
     9  C    0.002519
    10  C    0.143686
    11  C   -0.051591
    12  C   -0.022889
    13  C    0.000169
    14  C    0.468283
    15  O   -0.502645
    16  O   -0.277679
    17  N   -0.332151
    18  C    0.123757
    19  C    0.020301
    20  C   -0.034554
    21  C    0.143390
    22  C   -0.038169
    23  C    0.332850
    24  O   -0.535322
    25  C   -0.019321
    26  N   -0.275741
    27  C    0.159461
    28  C    0.011204
    29  C    0.012314
    30  C    0.093007
    31  C   -0.038412
    32  C   -0.029289
    33  C   -0.058223
    34  N   -0.306873
    35  C    0.049906
    36  C    0.019892
    37  C   -0.072620
    38  C    0.098459
    39  C   -0.041766
    40  C    0.333307
    41  O   -0.513207
    42  C    0.054926
    43  C    0.493349
    44  O   -0.503247
    45  O   -0.275114
    46  C    0.076524
    47  C    0.112399
    48  C   -0.083487
    49  C    0.001439
    50  C   -0.042305
    51  C   -0.032177
    52  C   -0.024335
    53  C   -0.022067
    54  C   -0.012101
    55  C   -0.059139
    56  C   -0.044943
    57  C   -0.043025
    58  C   -0.044661
    59  C   -0.014613
    60  C   -0.058576
    61  C   -0.034872
    62  C   -0.041650
    63  C   -0.033129
    64  C   -0.008357
    65  C   -0.064613
    66  C   -0.060967
    67  H    0.017825
    68  H    0.047308
    69  H    0.033580
    70  H    0.039315
    71  H    0.029066
    72  H    0.025259
    73  H    0.019743
    74  H    0.033545
    75  H    0.018511
    76  H    0.017538
    77  H    0.030874
    78  H    0.048582
    79  H    0.044420
    80  H    0.036444
    81  H    0.026070
    82  H    0.044403
    83  H    0.042205
    84  H    0.027138
    85  H    0.043040
    86  H    0.020950
    87  H    0.029626
    88  H    0.018004
    89  H    0.029673
    90  H    0.009624
    91  H    0.020576
    92  H    0.025927
    93  H    0.019400
    94  H    0.020162
    95  H    0.028127
    96  H    0.028969
    97  H    0.035429
    98  H    0.044543
    99  H    0.048765
   100  H    0.032991
   101  H    0.042285
   102  H    0.052984
   103  H    0.047232
   104  H    0.025463
   105  H    0.021163
   106  H    0.017521
   107  H    0.032306
   108  H    0.016686
   109  H    0.026538
   110  H    0.020031
   111  H    0.026068
   112  H    0.018290
   113  H    0.012877
   114  H    0.017623
   115  H    0.012273
   116  H    0.007048
   117  H    0.019039
   118  H    0.028982
   119  H    0.024112
   120  H    0.025587
   121  H    0.019667
   122  H    0.010235
   123  H    0.022932
   124  H    0.017261
   125  H    0.017239
   126  H    0.015387
   127  H    0.022415
   128  H    0.012791
   129  H    0.023415
   130  H    0.021892
   131  H    0.018141
   132  H    0.012331
   133  H    0.017802
   134  H    0.023346
   135  H    0.020821
   136  H    0.017846
   137  H    0.016655
   138  H    0.032539
   139  H    0.009806
   140  H    0.019268
 Sum of Mulliken charges =  -0.00000

 Dipole moment (field-independent basis, Debye):
    X=             -9.4803    Y=              6.5964    Z=              3.8360  Tot=             12.1698
 N-N= 4.335105771622D+03 E-N= 0.000000000000D+00  KE=-9.345028517457D+03
 Leave Link  601 at Wed May  4 19:11:49 2022, MaxMem=  6710886400 cpu:               0.7 elap:               0.0
 (Enter /sw/apps/gaussian-16.0/g16/l9999.exe)
 1\1\GINC-BP1-COMPUTE183\SP\RZINDO CIS\STO-3G\C55H74Mg1N4O6\OF15641\04-
 May-2022\0\\#p ZINDO=(nstates=5)\\step_301_chromophore_24 ZINDO\\0,1\M
 g,0,-0.203,43.467,24.728\C,0,1.989,43.101,27.49\C,0,-2.776,42.726,26.8
 31\C,0,-2.209,43.574,21.965\C,0,2.65,43.735,22.594\N,0,-0.389,43.005,2
 6.872\C,0,0.624,43.045,27.761\C,0,0.06,42.866,29.198\C,0,-1.438,42.619
 ,29.053\C,0,-1.56,42.941,27.53\C,0,-1.887,41.192,29.555\C,0,0.391,44.0
 35,30.155\C,0,0.428,43.761,31.687\C,0,0.329,42.339,32.246\O,0,1.244,41

 Normal termination of Gaussian 16 at Wed May  4 19:11:49 2022.
