 Gaussian 16, Revision A.03,
 Gaussian 16:  ES64L-G16RevA.03 25-Dec-2016

 ------------------------------
 #p blyp/Def2SVP td=(nstates=5)
 ------------------------------

 --------------------------------------------------
 step_351_chromophore_18 TDDFT with blyp functional
 --------------------------------------------------
 Symbolic Z-matrix:
 Charge =  0 Multiplicity = 1

                         Standard orientation:
 ---------------------------------------------------------------------
 Center     Atomic      Atomic             Coordinates (Angstroms)
 Number     Number       Type             X           Y           Z
 ---------------------------------------------------------------------
      1         12           0        5.286808    1.288633    0.322773
      2          6           0        4.584908   -2.278483    0.247151
      3          6           0        2.006343    1.722111    0.052672
      4          6           0        6.021936    4.526886   -0.160086
      5          6           0        8.635546    0.446584   -0.399928
      6          7           0        3.453529   -0.202351    0.152693
      7          6           0        3.387140   -1.518189    0.227429
      8          6           0        1.923883   -2.010033    0.130284
      9          6           0        1.126530   -0.626386    0.072472
     10          6           0        2.232547    0.374797    0.082826
     11          6           0        0.246328   -0.502449   -1.120034
     12          6           0        1.446258   -2.772890    1.367446
     13          6           0        0.938131   -4.187351    1.190663
     14          6           0       -0.014554   -4.513827    0.023765
     15          8           0        0.137618   -5.426985   -0.734373
     16          8           0       -1.079459   -3.638395    0.023360
     17          7           0        4.207877    2.975618    0.197988
     18          6           0        2.828247    2.943475    0.184882
     19          6           0        2.391369    4.324708    0.348655
     20          6           0        3.509944    5.114890    0.228798
     21          6           0        4.635766    4.240745    0.060619
     22          6           0        0.944405    4.645032    0.595316
     23          6           0        3.595068    6.635371    0.354547
     24          8           0        4.594623    7.312888    0.366291
     25          6           0        2.337092    7.414914    0.590929
     26          7           0        7.003538    2.276921   -0.107029
     27          6           0        7.060187    3.615171   -0.330465
     28          6           0        8.415014    4.113055   -0.898641
     29          6           0        9.307736    2.853672   -0.584022
     30          6           0        8.264030    1.776808   -0.310444
     31          6           0        8.382690    4.623753   -2.332545
     32          6           0       10.441142    2.938534    0.460337
     33          6           0       10.221697    2.552865    1.957539
     34          7           0        6.443272   -0.508855   -0.001169
     35          6           0        7.814440   -0.648212   -0.196612
     36          6           0        8.089423   -2.050589   -0.330977
     37          6           0        6.878336   -2.729639   -0.106979
     38          6           0        5.922424   -1.674526    0.157562
     39          6           0        9.446899   -2.681345   -0.424727
     40          6           0        6.254814   -4.030487    0.009366
     41          8           0        6.772818   -5.151174   -0.017075
     42          6           0        4.753708   -3.811108    0.275899
     43          6           0        4.173997   -4.447726   -0.910406
     44          8           0        3.982767   -3.968694   -1.986819
     45          8           0        3.713890   -5.703554   -0.620743
     46          6           0        3.019728   -6.472354   -1.685849
     47          6           0       -2.172913   -4.110538   -0.900361
     48          6           0       -3.367051   -3.175529   -0.632690
     49          6           0       -4.682972   -3.491914   -0.416289
     50          6           0       -5.239551   -4.899958   -0.639946
     51          6           0       -5.653878   -2.370194   -0.184668
     52          6           0       -6.160157   -2.285249    1.307305
     53          6           0       -6.933413   -0.934987    1.686836
     54          6           0       -8.140561   -1.097405    2.696095
     55          6           0       -7.373469   -1.134560    4.094840
     56          6           0       -9.194510    0.069873    2.617461
     57          6           0      -10.584231   -0.327311    2.113944
     58          6           0      -11.437724    0.806480    1.545205
     59          6           0      -12.092672    0.388522    0.228716
     60          6           0      -10.852107    0.151075   -0.718086
     61          6           0      -12.994210    1.523191   -0.293463
     62          6           0      -14.056325    0.997072   -1.267400
     63          6           0      -14.537477    2.106261   -2.235217
     64          6           0      -15.620068    3.037388   -1.550892
     65          6           0      -16.911168    2.842847   -2.480184
     66          6           0      -15.344808    4.454139   -1.387536
     67          1           0        0.953458    2.005782   -0.009239
     68          1           0        6.231685    5.584625   -0.335057
     69          1           0        9.663342    0.288819   -0.734914
     70          1           0        1.846734   -2.622623   -0.767611
     71          1           0        0.520420   -0.463556    0.963538
     72          1           0        0.747523   -0.184806   -2.034614
     73          1           0       -0.431625    0.304900   -0.844480
     74          1           0       -0.243148   -1.466773   -1.256729
     75          1           0        0.864923   -2.215158    2.101730
     76          1           0        2.313041   -2.826632    2.027095
     77          1           0        0.414580   -4.472514    2.102739
     78          1           0        1.790358   -4.853270    1.054304
     79          1           0        0.682247    4.122258    1.514478
     80          1           0        0.414165    4.239912   -0.266661
     81          1           0        0.598508    5.674087    0.691327
     82          1           0        1.760952    7.106961    1.463257
     83          1           0        1.767106    7.362690   -0.336317
     84          1           0        2.648003    8.447902    0.743294
     85          1           0        8.746347    4.812294   -0.131450
     86          1           0        9.785363    2.671845   -1.546443
     87          1           0        9.123461    4.185003   -3.000469
     88          1           0        8.530885    5.703460   -2.354289
     89          1           0        7.406048    4.437030   -2.778203
     90          1           0       10.906708    3.914196    0.600153
     91          1           0       11.232698    2.269972    0.120897
     92          1           0        9.181353    2.268549    2.115135
     93          1           0       10.504549    3.390408    2.594502
     94          1           0       10.826130    1.668669    2.156743
     95          1           0       10.081768   -1.929544    0.043034
     96          1           0        9.729219   -2.887072   -1.456638
     97          1           0        9.498176   -3.652831    0.068547
     98          1           0        4.330190   -4.218897    1.193485
     99          1           0        2.874579   -7.487573   -1.315231
    100          1           0        3.772295   -6.658866   -2.450858
    101          1           0        2.098542   -6.059643   -2.096479
    102          1           0       -2.470084   -5.134069   -0.676082
    103          1           0       -1.799422   -4.091416   -1.924751
    104          1           0       -3.074518   -2.128619   -0.557003
    105          1           0       -6.165535   -4.908734   -1.214556
    106          1           0       -5.513399   -5.357748    0.311160
    107          1           0       -4.416139   -5.451772   -1.092525
    108          1           0       -6.570862   -2.484862   -0.761893
    109          1           0       -5.274752   -1.412026   -0.540434
    110          1           0       -5.350581   -2.426019    2.023005
    111          1           0       -6.790495   -3.164873    1.437101
    112          1           0       -7.403404   -0.530132    0.790466
    113          1           0       -6.165101   -0.195854    1.914660
    114          1           0       -8.655735   -2.042003    2.519948
    115          1           0       -7.192914   -2.141114    4.471038
    116          1           0       -7.991057   -0.654521    4.853507
    117          1           0       -6.430833   -0.588216    4.051886
    118          1           0       -8.805708    0.844749    1.957114
    119          1           0       -9.343758    0.629304    3.540835
    120          1           0      -11.187162   -0.657834    2.959461
    121          1           0      -10.505397   -1.219193    1.493043
    122          1           0      -10.821930    1.655120    1.247979
    123          1           0      -12.103838    1.118388    2.349403
    124          1           0      -12.707407   -0.461890    0.522236
    125          1           0      -10.869634   -0.868087   -1.102438
    126          1           0       -9.861627    0.170915   -0.264715
    127          1           0      -10.792004    0.856670   -1.546915
    128          1           0      -12.320183    2.259161   -0.731417
    129          1           0      -13.523247    1.914045    0.575289
    130          1           0      -14.845117    0.748634   -0.556389
    131          1           0      -13.668581    0.171883   -1.864286
    132          1           0      -14.865028    1.527367   -3.098578
    133          1           0      -13.611649    2.628749   -2.473133
    134          1           0      -15.859682    2.627144   -0.569845
    135          1           0      -16.633484    2.422701   -3.447250
    136          1           0      -17.445865    3.758282   -2.731876
    137          1           0      -17.717431    2.253163   -2.043981
    138          1           0      -15.652194    5.101718   -2.208658
    139          1           0      -14.277347    4.489921   -1.167503
    140          1           0      -15.908087    4.893973   -0.564962
 ---------------------------------------------------------------------

 SCF Done:  E(RB-LYP) =  -3007.37693561     A.U. after   21 cycles

 Excitation energies and oscillator strengths:

 Excited State   1:      Singlet-A      1.8476 eV  671.06 nm  f=0.3043  <S**2>=0.000
     245 -> 248        0.17807
     246 -> 247        0.68304
     246 <- 247       -0.14803
 This state for optimization and/or second-order correction.
 Total Energy, E(TD-HF/TD-DFT) =  -3007.30903758
 Copying the excited state density for this state as the 1-particle RhoCI density.

 Excited State   2:      Singlet-A      1.9239 eV  644.43 nm  f=0.0072  <S**2>=0.000
     244 -> 247        0.69227
     245 -> 247       -0.10484

 Excited State   3:      Singlet-A      1.9762 eV  627.38 nm  f=0.0053  <S**2>=0.000
     243 -> 247        0.70369

 Excited State   4:      Singlet-A      2.0477 eV  605.48 nm  f=0.0963  <S**2>=0.000
     244 -> 247        0.11133
     245 -> 247        0.64999
     246 -> 248       -0.21847

 Excited State   5:      Singlet-A      2.5539 eV  485.47 nm  f=0.0002  <S**2>=0.000
     241 -> 247        0.70532

 The electronic state is 1-A.
 Alpha  occ. eigenvalues --  -46.27315 -18.82754 -18.80299 -18.77995 -18.75693
 Alpha  occ. eigenvalues --  -18.75574 -18.75233 -14.03184 -14.02796 -14.00994
 Alpha  occ. eigenvalues --  -14.00719 -10.04482 -10.02716  -9.99655  -9.99408
 Alpha  occ. eigenvalues --   -9.98757  -9.96316  -9.96067  -9.96037  -9.96026
 Alpha  occ. eigenvalues --   -9.95966  -9.95746  -9.95337  -9.94967  -9.94543
 Alpha  occ. eigenvalues --   -9.94044  -9.93997  -9.93929  -9.93771  -9.93684
 Alpha  occ. eigenvalues --   -9.93424  -9.93334  -9.93292  -9.93224  -9.93219
 Alpha  occ. eigenvalues --   -9.93096  -9.93056  -9.93046  -9.93014  -9.92984
 Alpha  occ. eigenvalues --   -9.92705  -9.92635  -9.92558  -9.92464  -9.92342
 Alpha  occ. eigenvalues --   -9.92270  -9.92261  -9.92199  -9.92170  -9.92124
 Alpha  occ. eigenvalues --   -9.91901  -9.91774  -9.91726  -9.91490  -9.91412
 Alpha  occ. eigenvalues --   -9.91351  -9.91262  -9.91077  -9.91060  -9.91001
 Alpha  occ. eigenvalues --   -9.90956  -9.90800  -9.90738  -9.90594  -9.90585
 Alpha  occ. eigenvalues --   -9.90521  -2.92048  -1.72459  -1.71939  -1.71759
 Alpha  occ. eigenvalues --   -0.98603  -0.97222  -0.92544  -0.91215  -0.90397
 Alpha  occ. eigenvalues --   -0.88851  -0.87277  -0.86559  -0.86357  -0.85482
 Alpha  occ. eigenvalues --   -0.74945  -0.73730  -0.73558  -0.73170  -0.72208
 Alpha  occ. eigenvalues --   -0.72052  -0.71748  -0.71406  -0.70908  -0.70854
 Alpha  occ. eigenvalues --   -0.69840  -0.69171  -0.68244  -0.67565  -0.67249
 Alpha  occ. eigenvalues --   -0.66624  -0.65523  -0.65113  -0.64708  -0.64175
 Alpha  occ. eigenvalues --   -0.63936  -0.62703  -0.62395  -0.61890  -0.60607
 Alpha  occ. eigenvalues --   -0.60447  -0.60425  -0.60059  -0.59767  -0.58917
 Alpha  occ. eigenvalues --   -0.58007  -0.57680  -0.56460  -0.55881  -0.54788
 Alpha  occ. eigenvalues --   -0.54090  -0.53786  -0.52752  -0.52371  -0.51738
 Alpha  occ. eigenvalues --   -0.50949  -0.50695  -0.50431  -0.50424  -0.50069
 Alpha  occ. eigenvalues --   -0.49932  -0.49374  -0.49053  -0.47291  -0.46773
 Alpha  occ. eigenvalues --   -0.46686  -0.46005  -0.45581  -0.45262  -0.44359
 Alpha  occ. eigenvalues --   -0.43987  -0.43535  -0.42859  -0.42482  -0.42289
 Alpha  occ. eigenvalues --   -0.42244  -0.42193  -0.41805  -0.41721  -0.41546
 Alpha  occ. eigenvalues --   -0.41116  -0.40908  -0.40350  -0.40255  -0.40114
 Alpha  occ. eigenvalues --   -0.39992  -0.39893  -0.39665  -0.39384  -0.39090
 Alpha  occ. eigenvalues --   -0.38888  -0.38697  -0.38436  -0.38379  -0.38339
 Alpha  occ. eigenvalues --   -0.38098  -0.38055  -0.37929  -0.37636  -0.37419
 Alpha  occ. eigenvalues --   -0.37306  -0.36893  -0.36785  -0.36676  -0.36505
 Alpha  occ. eigenvalues --   -0.36454  -0.36184  -0.35863  -0.35614  -0.35395
 Alpha  occ. eigenvalues --   -0.35279  -0.35241  -0.35229  -0.34956  -0.34788
 Alpha  occ. eigenvalues --   -0.34342  -0.34241  -0.34161  -0.34138  -0.33753
 Alpha  occ. eigenvalues --   -0.33688  -0.33523  -0.33407  -0.33328  -0.33148
 Alpha  occ. eigenvalues --   -0.33030  -0.32783  -0.32639  -0.32565  -0.32394
 Alpha  occ. eigenvalues --   -0.32311  -0.32177  -0.31981  -0.31834  -0.31759
 Alpha  occ. eigenvalues --   -0.31397  -0.30883  -0.30833  -0.30774  -0.30708
 Alpha  occ. eigenvalues --   -0.30676  -0.30406  -0.30289  -0.30237  -0.29836
 Alpha  occ. eigenvalues --   -0.29671  -0.29405  -0.29001  -0.28787  -0.28553
 Alpha  occ. eigenvalues --   -0.28381  -0.28158  -0.27977  -0.27875  -0.27753
 Alpha  occ. eigenvalues --   -0.27607  -0.27036  -0.27008  -0.26838  -0.26746
 Alpha  occ. eigenvalues --   -0.26389  -0.26296  -0.26142  -0.25920  -0.25792
 Alpha  occ. eigenvalues --   -0.25252  -0.25240  -0.23939  -0.23641  -0.23461
 Alpha  occ. eigenvalues --   -0.23174  -0.22930  -0.22124  -0.21039  -0.20975
 Alpha  occ. eigenvalues --   -0.20810  -0.20459  -0.18618  -0.18375  -0.17042
 Alpha  occ. eigenvalues --   -0.15796
 Alpha virt. eigenvalues --   -0.11425  -0.06361  -0.05791  -0.04556  -0.03753
 Alpha virt. eigenvalues --   -0.02901  -0.02571  -0.01116  -0.00683   0.00534
 Alpha virt. eigenvalues --    0.01324   0.01872   0.02290   0.02522   0.02739

 Mulliken charges:
               1
     1  Mg   0.710203
     2  C   -0.030570
     3  C   -0.032293
     4  C   -0.043733
     5  C   -0.110513
     6  N   -0.146808
     7  C   -0.089847
     8  C    0.010227
     9  C    0.022370
    10  C    0.014526
    11  C    0.127701
    12  C    0.136801
    13  C    0.155420
    14  C    0.056058
    15  O   -0.159217
    16  O   -0.297588
    17  N   -0.317248
    18  C    0.074124
    19  C   -0.118939
    20  C    0.056866
    21  C    0.052703
    22  C    0.158921
    23  C   -0.097645
    24  O   -0.138094
    25  C    0.124018
    26  N   -0.244664
    27  C    0.021317
    28  C    0.037745
    29  C    0.044137
    30  C    0.036783
    31  C    0.158935
    32  C    0.058169
    33  C    0.057232
    34  N   -0.205506
    35  C    0.153020
    36  C   -0.195780
    37  C    0.085408
    38  C    0.067057
    39  C    0.172030
    40  C   -0.064753
    41  O   -0.145074
    42  C    0.108342
    43  C    0.083266
    44  O   -0.161486
    45  O   -0.281306
    46  C    0.231442
    47  C    0.298677
    48  C   -0.101470
    49  C   -0.122817
    50  C    0.148168
    51  C    0.126948
    52  C    0.049365
    53  C    0.081328
    54  C   -0.050741
    55  C    0.093682
    56  C    0.119723
    57  C    0.061859
    58  C    0.072549
    59  C   -0.066321
    60  C    0.099510
    61  C    0.093575
    62  C    0.051927
    63  C    0.127918
    64  C   -0.071726
    65  C    0.072702
    66  C    0.134545
    67  H   -0.082840
    68  H   -0.050669
    69  H   -0.056682
    70  H    0.008846
    71  H   -0.019909
    72  H   -0.006303
    73  H   -0.014287
    74  H    0.003834
    75  H   -0.038937
    76  H   -0.043407
    77  H   -0.005215
    78  H   -0.005353
    79  H    0.002998
    80  H    0.011156
    81  H   -0.020333
    82  H    0.018199
    83  H    0.005745
    84  H   -0.015371
    85  H   -0.030842
    86  H   -0.040656
    87  H   -0.008379
    88  H   -0.000762
    89  H   -0.002300
    90  H   -0.022692
    91  H   -0.022628
    92  H    0.001539
    93  H   -0.003798
    94  H   -0.008814
    95  H   -0.006641
    96  H   -0.000300
    97  H    0.006875
    98  H    0.007729
    99  H   -0.000348
   100  H   -0.003234
   101  H    0.037210
   102  H    0.001188
   103  H    0.013165
   104  H   -0.031159
   105  H   -0.000397
   106  H    0.000061
   107  H   -0.006707
   108  H   -0.032134
   109  H   -0.030037
   110  H   -0.023353
   111  H   -0.033902
   112  H   -0.040889
   113  H   -0.019825
   114  H   -0.028066
   115  H   -0.012899
   116  H   -0.026160
   117  H   -0.012797
   118  H   -0.041956
   119  H   -0.038478
   120  H   -0.038872
   121  H   -0.029788
   122  H   -0.038332
   123  H   -0.037717
   124  H   -0.040347
   125  H   -0.018981
   126  H   -0.009613
   127  H   -0.017402
   128  H   -0.035169
   129  H   -0.039167
   130  H   -0.025459
   131  H   -0.031170
   132  H   -0.026429
   133  H   -0.040737
   134  H   -0.027364
   135  H   -0.014304
   136  H   -0.033773
   137  H   -0.018832
   138  H   -0.017214
   139  H   -0.017777
   140  H   -0.023802
 Sum of Mulliken charges =  -0.00000

 Dipole moment (field-independent basis, Debye):
    X=             -5.1085    Y=              1.9163    Z=              1.8918  Tot=              5.7747
 Quadrupole moment (field-independent basis, Debye-Ang):
   XX=           -383.2559   YY=           -441.8756   ZZ=           -404.2240
   XY=             27.7954   XZ=             -0.6659   YZ=             -5.4854

 Normal termination of Gaussian 16 at Fri Apr 29 15:28:39 2022.
