 Gaussian 16, Revision A.03,
 Gaussian 16:  ES64L-G16RevA.03 25-Dec-2016

 -----------------------------------
 #p cam-b3lyp/Def2SVP td=(nstates=5)
 -----------------------------------

 -------------------------------------------------------
 step_351_chromophore_18 TDDFT with cam-b3lyp functional
 -------------------------------------------------------
 Symbolic Z-matrix:
 Charge =  0 Multiplicity = 1

                         Standard orientation:
 ---------------------------------------------------------------------
 Center     Atomic      Atomic             Coordinates (Angstroms)
 Number     Number       Type             X           Y           Z
 ---------------------------------------------------------------------
      1         12           0        5.286808    1.288633    0.322773
      2          6           0        4.584908   -2.278483    0.247151
      3          6           0        2.006343    1.722111    0.052672
      4          6           0        6.021936    4.526886   -0.160086
      5          6           0        8.635546    0.446584   -0.399928
      6          7           0        3.453529   -0.202351    0.152693
      7          6           0        3.387140   -1.518189    0.227429
      8          6           0        1.923883   -2.010033    0.130284
      9          6           0        1.126530   -0.626386    0.072472
     10          6           0        2.232547    0.374797    0.082826
     11          6           0        0.246328   -0.502449   -1.120034
     12          6           0        1.446258   -2.772890    1.367446
     13          6           0        0.938131   -4.187351    1.190663
     14          6           0       -0.014554   -4.513827    0.023765
     15          8           0        0.137618   -5.426985   -0.734373
     16          8           0       -1.079459   -3.638395    0.023360
     17          7           0        4.207877    2.975618    0.197988
     18          6           0        2.828247    2.943475    0.184882
     19          6           0        2.391369    4.324708    0.348655
     20          6           0        3.509944    5.114890    0.228798
     21          6           0        4.635766    4.240745    0.060619
     22          6           0        0.944405    4.645032    0.595316
     23          6           0        3.595068    6.635371    0.354547
     24          8           0        4.594623    7.312888    0.366291
     25          6           0        2.337092    7.414914    0.590929
     26          7           0        7.003538    2.276921   -0.107029
     27          6           0        7.060187    3.615171   -0.330465
     28          6           0        8.415014    4.113055   -0.898641
     29          6           0        9.307736    2.853672   -0.584022
     30          6           0        8.264030    1.776808   -0.310444
     31          6           0        8.382690    4.623753   -2.332545
     32          6           0       10.441142    2.938534    0.460337
     33          6           0       10.221697    2.552865    1.957539
     34          7           0        6.443272   -0.508855   -0.001169
     35          6           0        7.814440   -0.648212   -0.196612
     36          6           0        8.089423   -2.050589   -0.330977
     37          6           0        6.878336   -2.729639   -0.106979
     38          6           0        5.922424   -1.674526    0.157562
     39          6           0        9.446899   -2.681345   -0.424727
     40          6           0        6.254814   -4.030487    0.009366
     41          8           0        6.772818   -5.151174   -0.017075
     42          6           0        4.753708   -3.811108    0.275899
     43          6           0        4.173997   -4.447726   -0.910406
     44          8           0        3.982767   -3.968694   -1.986819
     45          8           0        3.713890   -5.703554   -0.620743
     46          6           0        3.019728   -6.472354   -1.685849
     47          6           0       -2.172913   -4.110538   -0.900361
     48          6           0       -3.367051   -3.175529   -0.632690
     49          6           0       -4.682972   -3.491914   -0.416289
     50          6           0       -5.239551   -4.899958   -0.639946
     51          6           0       -5.653878   -2.370194   -0.184668
     52          6           0       -6.160157   -2.285249    1.307305
     53          6           0       -6.933413   -0.934987    1.686836
     54          6           0       -8.140561   -1.097405    2.696095
     55          6           0       -7.373469   -1.134560    4.094840
     56          6           0       -9.194510    0.069873    2.617461
     57          6           0      -10.584231   -0.327311    2.113944
     58          6           0      -11.437724    0.806480    1.545205
     59          6           0      -12.092672    0.388522    0.228716
     60          6           0      -10.852107    0.151075   -0.718086
     61          6           0      -12.994210    1.523191   -0.293463
     62          6           0      -14.056325    0.997072   -1.267400
     63          6           0      -14.537477    2.106261   -2.235217
     64          6           0      -15.620068    3.037388   -1.550892
     65          6           0      -16.911168    2.842847   -2.480184
     66          6           0      -15.344808    4.454139   -1.387536
     67          1           0        0.953458    2.005782   -0.009239
     68          1           0        6.231685    5.584625   -0.335057
     69          1           0        9.663342    0.288819   -0.734914
     70          1           0        1.846734   -2.622623   -0.767611
     71          1           0        0.520420   -0.463556    0.963538
     72          1           0        0.747523   -0.184806   -2.034614
     73          1           0       -0.431625    0.304900   -0.844480
     74          1           0       -0.243148   -1.466773   -1.256729
     75          1           0        0.864923   -2.215158    2.101730
     76          1           0        2.313041   -2.826632    2.027095
     77          1           0        0.414580   -4.472514    2.102739
     78          1           0        1.790358   -4.853270    1.054304
     79          1           0        0.682247    4.122258    1.514478
     80          1           0        0.414165    4.239912   -0.266661
     81          1           0        0.598508    5.674087    0.691327
     82          1           0        1.760952    7.106961    1.463257
     83          1           0        1.767106    7.362690   -0.336317
     84          1           0        2.648003    8.447902    0.743294
     85          1           0        8.746347    4.812294   -0.131450
     86          1           0        9.785363    2.671845   -1.546443
     87          1           0        9.123461    4.185003   -3.000469
     88          1           0        8.530885    5.703460   -2.354289
     89          1           0        7.406048    4.437030   -2.778203
     90          1           0       10.906708    3.914196    0.600153
     91          1           0       11.232698    2.269972    0.120897
     92          1           0        9.181353    2.268549    2.115135
     93          1           0       10.504549    3.390408    2.594502
     94          1           0       10.826130    1.668669    2.156743
     95          1           0       10.081768   -1.929544    0.043034
     96          1           0        9.729219   -2.887072   -1.456638
     97          1           0        9.498176   -3.652831    0.068547
     98          1           0        4.330190   -4.218897    1.193485
     99          1           0        2.874579   -7.487573   -1.315231
    100          1           0        3.772295   -6.658866   -2.450858
    101          1           0        2.098542   -6.059643   -2.096479
    102          1           0       -2.470084   -5.134069   -0.676082
    103          1           0       -1.799422   -4.091416   -1.924751
    104          1           0       -3.074518   -2.128619   -0.557003
    105          1           0       -6.165535   -4.908734   -1.214556
    106          1           0       -5.513399   -5.357748    0.311160
    107          1           0       -4.416139   -5.451772   -1.092525
    108          1           0       -6.570862   -2.484862   -0.761893
    109          1           0       -5.274752   -1.412026   -0.540434
    110          1           0       -5.350581   -2.426019    2.023005
    111          1           0       -6.790495   -3.164873    1.437101
    112          1           0       -7.403404   -0.530132    0.790466
    113          1           0       -6.165101   -0.195854    1.914660
    114          1           0       -8.655735   -2.042003    2.519948
    115          1           0       -7.192914   -2.141114    4.471038
    116          1           0       -7.991057   -0.654521    4.853507
    117          1           0       -6.430833   -0.588216    4.051886
    118          1           0       -8.805708    0.844749    1.957114
    119          1           0       -9.343758    0.629304    3.540835
    120          1           0      -11.187162   -0.657834    2.959461
    121          1           0      -10.505397   -1.219193    1.493043
    122          1           0      -10.821930    1.655120    1.247979
    123          1           0      -12.103838    1.118388    2.349403
    124          1           0      -12.707407   -0.461890    0.522236
    125          1           0      -10.869634   -0.868087   -1.102438
    126          1           0       -9.861627    0.170915   -0.264715
    127          1           0      -10.792004    0.856670   -1.546915
    128          1           0      -12.320183    2.259161   -0.731417
    129          1           0      -13.523247    1.914045    0.575289
    130          1           0      -14.845117    0.748634   -0.556389
    131          1           0      -13.668581    0.171883   -1.864286
    132          1           0      -14.865028    1.527367   -3.098578
    133          1           0      -13.611649    2.628749   -2.473133
    134          1           0      -15.859682    2.627144   -0.569845
    135          1           0      -16.633484    2.422701   -3.447250
    136          1           0      -17.445865    3.758282   -2.731876
    137          1           0      -17.717431    2.253163   -2.043981
    138          1           0      -15.652194    5.101718   -2.208658
    139          1           0      -14.277347    4.489921   -1.167503
    140          1           0      -15.908087    4.893973   -0.564962
 ---------------------------------------------------------------------

 SCF Done:  E(RCAM-B3LYP) =  -3007.18295863     A.U. after   19 cycles

 Excitation energies and oscillator strengths:

 Excited State   1:      Singlet-A      1.7224 eV  719.84 nm  f=0.3838  <S**2>=0.000
     245 -> 248        0.17930
     246 -> 247        0.68594
     245 <- 248        0.10875
 This state for optimization and/or second-order correction.
 Total Energy, E(TD-HF/TD-DFT) =  -3007.11966223
 Copying the excited state density for this state as the 1-particle RhoCI density.

 Excited State   2:      Singlet-A      2.2167 eV  559.31 nm  f=0.1515  <S**2>=0.000
     245 -> 247        0.65353
     246 -> 248       -0.26277

 Excited State   3:      Singlet-A      3.3849 eV  366.29 nm  f=0.0006  <S**2>=0.000
     241 -> 247       -0.41522
     241 -> 249        0.26828
     241 -> 251       -0.10827
     244 -> 247        0.45863

 Excited State   4:      Singlet-A      3.4970 eV  354.55 nm  f=0.0005  <S**2>=0.000
     241 -> 247        0.39284
     241 -> 249       -0.18108
     243 -> 247       -0.20328
     244 -> 247        0.49377

 Excited State   5:      Singlet-A      3.6146 eV  343.01 nm  f=0.2427  <S**2>=0.000
     239 -> 247        0.14291
     241 -> 247        0.10932
     243 -> 247        0.43982
     245 -> 247        0.15474
     246 -> 248        0.47365

 The electronic state is 1-A.
 Alpha  occ. eigenvalues --  -46.88898 -19.25675 -19.23205 -19.21012 -19.18808
 Alpha  occ. eigenvalues --  -19.18728 -19.18606 -14.42037 -14.41612 -14.39416
 Alpha  occ. eigenvalues --  -14.39167 -10.39748 -10.38097 -10.34875 -10.34700
 Alpha  occ. eigenvalues --  -10.32977 -10.30843 -10.30476 -10.30316 -10.30311
 Alpha  occ. eigenvalues --  -10.30034 -10.29997 -10.29576 -10.29272 -10.28990
 Alpha  occ. eigenvalues --  -10.28266 -10.28244 -10.28185 -10.28102 -10.28076
 Alpha  occ. eigenvalues --  -10.27560 -10.27403 -10.27206 -10.27173 -10.27166
 Alpha  occ. eigenvalues --  -10.27138 -10.27049 -10.26988 -10.26828 -10.26755
 Alpha  occ. eigenvalues --  -10.26750 -10.26432 -10.26383 -10.26382 -10.26309
 Alpha  occ. eigenvalues --  -10.26191 -10.26021 -10.25975 -10.25902 -10.25860
 Alpha  occ. eigenvalues --  -10.25780 -10.25503 -10.25374 -10.25221 -10.25125
 Alpha  occ. eigenvalues --  -10.25097 -10.24985 -10.24791 -10.24746 -10.24718
 Alpha  occ. eigenvalues --  -10.24661 -10.24606 -10.24485 -10.24412 -10.24140
 Alpha  occ. eigenvalues --  -10.24111  -3.17536  -1.92420  -1.91994  -1.91837
 Alpha  occ. eigenvalues --   -1.17125  -1.15871  -1.10910  -1.09080  -1.08924
 Alpha  occ. eigenvalues --   -1.06759  -1.05061  -1.04247  -1.03961  -1.03008
 Alpha  occ. eigenvalues --   -0.92162  -0.90613  -0.90414  -0.89964  -0.88935
 Alpha  occ. eigenvalues --   -0.88749  -0.88368  -0.88008  -0.87495  -0.87488
 Alpha  occ. eigenvalues --   -0.86445  -0.85542  -0.84519  -0.83787  -0.83373
 Alpha  occ. eigenvalues --   -0.82694  -0.81565  -0.81044  -0.80605  -0.80023
 Alpha  occ. eigenvalues --   -0.79692  -0.78398  -0.78051  -0.77369  -0.75980
 Alpha  occ. eigenvalues --   -0.75833  -0.75805  -0.75319  -0.75074  -0.74160
 Alpha  occ. eigenvalues --   -0.73057  -0.72706  -0.71313  -0.70718  -0.69418
 Alpha  occ. eigenvalues --   -0.68708  -0.68458  -0.67140  -0.66733  -0.65991
 Alpha  occ. eigenvalues --   -0.64877  -0.64863  -0.64492  -0.64489  -0.63998
 Alpha  occ. eigenvalues --   -0.63859  -0.63341  -0.62986  -0.60961  -0.60298
 Alpha  occ. eigenvalues --   -0.60267  -0.59603  -0.59119  -0.58579  -0.58058
 Alpha  occ. eigenvalues --   -0.57417  -0.56888  -0.56197  -0.55735  -0.55491
 Alpha  occ. eigenvalues --   -0.55141  -0.55018  -0.54968  -0.54751  -0.54437
 Alpha  occ. eigenvalues --   -0.54143  -0.53827  -0.53159  -0.53051  -0.52859
 Alpha  occ. eigenvalues --   -0.52701  -0.52495  -0.52396  -0.52298  -0.51822
 Alpha  occ. eigenvalues --   -0.51612  -0.51263  -0.51038  -0.50887  -0.50724
 Alpha  occ. eigenvalues --   -0.50637  -0.50351  -0.50259  -0.49900  -0.49695
 Alpha  occ. eigenvalues --   -0.49512  -0.49262  -0.49118  -0.48990  -0.48800
 Alpha  occ. eigenvalues --   -0.48574  -0.48420  -0.48246  -0.47853  -0.47729
 Alpha  occ. eigenvalues --   -0.47564  -0.47328  -0.47222  -0.47094  -0.46832
 Alpha  occ. eigenvalues --   -0.46282  -0.46065  -0.46012  -0.45923  -0.45627
 Alpha  occ. eigenvalues --   -0.45467  -0.45337  -0.45246  -0.45060  -0.45000
 Alpha  occ. eigenvalues --   -0.44640  -0.44530  -0.44269  -0.44163  -0.43996
 Alpha  occ. eigenvalues --   -0.43866  -0.43729  -0.43581  -0.43464  -0.43327
 Alpha  occ. eigenvalues --   -0.42795  -0.42653  -0.42439  -0.42375  -0.42218
 Alpha  occ. eigenvalues --   -0.41927  -0.41809  -0.41550  -0.41410  -0.41005
 Alpha  occ. eigenvalues --   -0.40849  -0.40640  -0.40165  -0.40034  -0.39970
 Alpha  occ. eigenvalues --   -0.39538  -0.39305  -0.39122  -0.38744  -0.38725
 Alpha  occ. eigenvalues --   -0.38470  -0.38252  -0.37991  -0.37787  -0.37716
 Alpha  occ. eigenvalues --   -0.37522  -0.37114  -0.36987  -0.36665  -0.36406
 Alpha  occ. eigenvalues --   -0.36107  -0.35810  -0.35503  -0.34941  -0.33985
 Alpha  occ. eigenvalues --   -0.33821  -0.33472  -0.33080  -0.31362  -0.30770
 Alpha  occ. eigenvalues --   -0.30672  -0.30418  -0.30370  -0.29778  -0.23693
 Alpha  occ. eigenvalues --   -0.21145
 Alpha virt. eigenvalues --   -0.08619  -0.01073   0.00691   0.02023   0.02550
 Alpha virt. eigenvalues --    0.03683   0.05229   0.06264   0.06606   0.07131
 Alpha virt. eigenvalues --    0.07925   0.08616   0.08640   0.08875   0.09296

 Mulliken charges:
               1
     1  Mg   0.843411
     2  C   -0.056876
     3  C   -0.050398
     4  C   -0.054681
     5  C   -0.111237
     6  N   -0.218209
     7  C   -0.038208
     8  C   -0.051237
     9  C   -0.028081
    10  C    0.035338
    11  C    0.075611
    12  C    0.084802
    13  C    0.089181
    14  C    0.131592
    15  O   -0.201669
    16  O   -0.359532
    17  N   -0.406006
    18  C    0.085280
    19  C   -0.130173
    20  C   -0.015122
    21  C    0.076915
    22  C    0.099103
    23  C   -0.013488
    24  O   -0.179947
    25  C    0.037622
    26  N   -0.318874
    27  C    0.037081
    28  C   -0.019956
    29  C   -0.007351
    30  C    0.046209
    31  C    0.095694
    32  C    0.003724
    33  C   -0.000840
    34  N   -0.292844
    35  C    0.147582
    36  C   -0.178362
    37  C    0.003104
    38  C    0.110794
    39  C    0.117373
    40  C    0.028938
    41  O   -0.181482
    42  C    0.032821
    43  C    0.170112
    44  O   -0.195327
    45  O   -0.345205
    46  C    0.192145
    47  C    0.264693
    48  C   -0.116644
    49  C   -0.148085
    50  C    0.089149
    51  C    0.066560
    52  C    0.003459
    53  C    0.028502
    54  C   -0.109038
    55  C    0.038093
    56  C    0.069734
    57  C    0.000862
    58  C    0.026279
    59  C   -0.122926
    60  C    0.039902
    61  C    0.043664
    62  C    0.000784
    63  C    0.069269
    64  C   -0.133182
    65  C    0.015638
    66  C    0.075408
    67  H   -0.047443
    68  H   -0.009745
    69  H   -0.019948
    70  H    0.041213
    71  H    0.015075
    72  H    0.020787
    73  H    0.007766
    74  H    0.023442
    75  H   -0.004738
    76  H   -0.010131
    77  H    0.028188
    78  H    0.024483
    79  H    0.030430
    80  H    0.035752
    81  H    0.010223
    82  H    0.043858
    83  H    0.032565
    84  H    0.020579
    85  H    0.005859
    86  H   -0.003027
    87  H    0.016248
    88  H    0.023492
    89  H    0.024147
    90  H    0.006772
    91  H    0.004754
    92  H    0.022813
    93  H    0.019739
    94  H    0.014354
    95  H    0.016060
    96  H    0.027455
    97  H    0.035223
    98  H    0.049857
    99  H    0.024250
   100  H    0.021101
   101  H    0.059168
   102  H    0.028691
   103  H    0.042070
   104  H    0.000811
   105  H    0.024568
   106  H    0.024154
   107  H    0.014782
   108  H   -0.002736
   109  H    0.000696
   110  H    0.003979
   111  H   -0.008217
   112  H   -0.015239
   113  H    0.008178
   114  H    0.003480
   115  H    0.011188
   116  H   -0.001723
   117  H    0.009804
   118  H   -0.014258
   119  H   -0.008607
   120  H   -0.008951
   121  H   -0.001790
   122  H   -0.010816
   123  H   -0.007941
   124  H   -0.008691
   125  H    0.005672
   126  H    0.010009
   127  H    0.007909
   128  H   -0.010207
   129  H   -0.010962
   130  H    0.001320
   131  H   -0.002142
   132  H    0.003735
   133  H   -0.012315
   134  H    0.003170
   135  H    0.008594
   136  H   -0.008742
   137  H    0.005367
   138  H    0.007195
   139  H    0.003909
   140  H    0.001983
 Sum of Mulliken charges =  -0.00000

 Dipole moment (field-independent basis, Debye):
    X=             -5.3117    Y=              2.0308    Z=              2.0420  Tot=              6.0422
 Quadrupole moment (field-independent basis, Debye-Ang):
   XX=           -381.3623   YY=           -439.3618   ZZ=           -403.9980
   XY=             27.1608   XZ=             -0.6735   YZ=             -5.5439

 Normal termination of Gaussian 16 at Fri Apr 29 14:28:00 2022.
