 Gaussian 16, Revision A.03,
 Gaussian 16:  ES64L-G16RevA.03 25-Dec-2016

 ---------------------------------
 #p PBE1PBE/Def2SVP td=(nstates=5)
 ---------------------------------

 -----------------------------------------------------
 step_351_chromophore_18 TDDFT with PBE1PBE functional
 -----------------------------------------------------
 Symbolic Z-matrix:
 Charge =  0 Multiplicity = 1

                         Standard orientation:
 ---------------------------------------------------------------------
 Center     Atomic      Atomic             Coordinates (Angstroms)
 Number     Number       Type             X           Y           Z
 ---------------------------------------------------------------------
      1         12           0        5.286808    1.288633    0.322773
      2          6           0        4.584908   -2.278483    0.247151
      3          6           0        2.006343    1.722111    0.052672
      4          6           0        6.021936    4.526886   -0.160086
      5          6           0        8.635546    0.446584   -0.399928
      6          7           0        3.453529   -0.202351    0.152693
      7          6           0        3.387140   -1.518189    0.227429
      8          6           0        1.923883   -2.010033    0.130284
      9          6           0        1.126530   -0.626386    0.072472
     10          6           0        2.232547    0.374797    0.082826
     11          6           0        0.246328   -0.502449   -1.120034
     12          6           0        1.446258   -2.772890    1.367446
     13          6           0        0.938131   -4.187351    1.190663
     14          6           0       -0.014554   -4.513827    0.023765
     15          8           0        0.137618   -5.426985   -0.734373
     16          8           0       -1.079459   -3.638395    0.023360
     17          7           0        4.207877    2.975618    0.197988
     18          6           0        2.828247    2.943475    0.184882
     19          6           0        2.391369    4.324708    0.348655
     20          6           0        3.509944    5.114890    0.228798
     21          6           0        4.635766    4.240745    0.060619
     22          6           0        0.944405    4.645032    0.595316
     23          6           0        3.595068    6.635371    0.354547
     24          8           0        4.594623    7.312888    0.366291
     25          6           0        2.337092    7.414914    0.590929
     26          7           0        7.003538    2.276921   -0.107029
     27          6           0        7.060187    3.615171   -0.330465
     28          6           0        8.415014    4.113055   -0.898641
     29          6           0        9.307736    2.853672   -0.584022
     30          6           0        8.264030    1.776808   -0.310444
     31          6           0        8.382690    4.623753   -2.332545
     32          6           0       10.441142    2.938534    0.460337
     33          6           0       10.221697    2.552865    1.957539
     34          7           0        6.443272   -0.508855   -0.001169
     35          6           0        7.814440   -0.648212   -0.196612
     36          6           0        8.089423   -2.050589   -0.330977
     37          6           0        6.878336   -2.729639   -0.106979
     38          6           0        5.922424   -1.674526    0.157562
     39          6           0        9.446899   -2.681345   -0.424727
     40          6           0        6.254814   -4.030487    0.009366
     41          8           0        6.772818   -5.151174   -0.017075
     42          6           0        4.753708   -3.811108    0.275899
     43          6           0        4.173997   -4.447726   -0.910406
     44          8           0        3.982767   -3.968694   -1.986819
     45          8           0        3.713890   -5.703554   -0.620743
     46          6           0        3.019728   -6.472354   -1.685849
     47          6           0       -2.172913   -4.110538   -0.900361
     48          6           0       -3.367051   -3.175529   -0.632690
     49          6           0       -4.682972   -3.491914   -0.416289
     50          6           0       -5.239551   -4.899958   -0.639946
     51          6           0       -5.653878   -2.370194   -0.184668
     52          6           0       -6.160157   -2.285249    1.307305
     53          6           0       -6.933413   -0.934987    1.686836
     54          6           0       -8.140561   -1.097405    2.696095
     55          6           0       -7.373469   -1.134560    4.094840
     56          6           0       -9.194510    0.069873    2.617461
     57          6           0      -10.584231   -0.327311    2.113944
     58          6           0      -11.437724    0.806480    1.545205
     59          6           0      -12.092672    0.388522    0.228716
     60          6           0      -10.852107    0.151075   -0.718086
     61          6           0      -12.994210    1.523191   -0.293463
     62          6           0      -14.056325    0.997072   -1.267400
     63          6           0      -14.537477    2.106261   -2.235217
     64          6           0      -15.620068    3.037388   -1.550892
     65          6           0      -16.911168    2.842847   -2.480184
     66          6           0      -15.344808    4.454139   -1.387536
     67          1           0        0.953458    2.005782   -0.009239
     68          1           0        6.231685    5.584625   -0.335057
     69          1           0        9.663342    0.288819   -0.734914
     70          1           0        1.846734   -2.622623   -0.767611
     71          1           0        0.520420   -0.463556    0.963538
     72          1           0        0.747523   -0.184806   -2.034614
     73          1           0       -0.431625    0.304900   -0.844480
     74          1           0       -0.243148   -1.466773   -1.256729
     75          1           0        0.864923   -2.215158    2.101730
     76          1           0        2.313041   -2.826632    2.027095
     77          1           0        0.414580   -4.472514    2.102739
     78          1           0        1.790358   -4.853270    1.054304
     79          1           0        0.682247    4.122258    1.514478
     80          1           0        0.414165    4.239912   -0.266661
     81          1           0        0.598508    5.674087    0.691327
     82          1           0        1.760952    7.106961    1.463257
     83          1           0        1.767106    7.362690   -0.336317
     84          1           0        2.648003    8.447902    0.743294
     85          1           0        8.746347    4.812294   -0.131450
     86          1           0        9.785363    2.671845   -1.546443
     87          1           0        9.123461    4.185003   -3.000469
     88          1           0        8.530885    5.703460   -2.354289
     89          1           0        7.406048    4.437030   -2.778203
     90          1           0       10.906708    3.914196    0.600153
     91          1           0       11.232698    2.269972    0.120897
     92          1           0        9.181353    2.268549    2.115135
     93          1           0       10.504549    3.390408    2.594502
     94          1           0       10.826130    1.668669    2.156743
     95          1           0       10.081768   -1.929544    0.043034
     96          1           0        9.729219   -2.887072   -1.456638
     97          1           0        9.498176   -3.652831    0.068547
     98          1           0        4.330190   -4.218897    1.193485
     99          1           0        2.874579   -7.487573   -1.315231
    100          1           0        3.772295   -6.658866   -2.450858
    101          1           0        2.098542   -6.059643   -2.096479
    102          1           0       -2.470084   -5.134069   -0.676082
    103          1           0       -1.799422   -4.091416   -1.924751
    104          1           0       -3.074518   -2.128619   -0.557003
    105          1           0       -6.165535   -4.908734   -1.214556
    106          1           0       -5.513399   -5.357748    0.311160
    107          1           0       -4.416139   -5.451772   -1.092525
    108          1           0       -6.570862   -2.484862   -0.761893
    109          1           0       -5.274752   -1.412026   -0.540434
    110          1           0       -5.350581   -2.426019    2.023005
    111          1           0       -6.790495   -3.164873    1.437101
    112          1           0       -7.403404   -0.530132    0.790466
    113          1           0       -6.165101   -0.195854    1.914660
    114          1           0       -8.655735   -2.042003    2.519948
    115          1           0       -7.192914   -2.141114    4.471038
    116          1           0       -7.991057   -0.654521    4.853507
    117          1           0       -6.430833   -0.588216    4.051886
    118          1           0       -8.805708    0.844749    1.957114
    119          1           0       -9.343758    0.629304    3.540835
    120          1           0      -11.187162   -0.657834    2.959461
    121          1           0      -10.505397   -1.219193    1.493043
    122          1           0      -10.821930    1.655120    1.247979
    123          1           0      -12.103838    1.118388    2.349403
    124          1           0      -12.707407   -0.461890    0.522236
    125          1           0      -10.869634   -0.868087   -1.102438
    126          1           0       -9.861627    0.170915   -0.264715
    127          1           0      -10.792004    0.856670   -1.546915
    128          1           0      -12.320183    2.259161   -0.731417
    129          1           0      -13.523247    1.914045    0.575289
    130          1           0      -14.845117    0.748634   -0.556389
    131          1           0      -13.668581    0.171883   -1.864286
    132          1           0      -14.865028    1.527367   -3.098578
    133          1           0      -13.611649    2.628749   -2.473133
    134          1           0      -15.859682    2.627144   -0.569845
    135          1           0      -16.633484    2.422701   -3.447250
    136          1           0      -17.445865    3.758282   -2.731876
    137          1           0      -17.717431    2.253163   -2.043981
    138          1           0      -15.652194    5.101718   -2.208658
    139          1           0      -14.277347    4.489921   -1.167503
    140          1           0      -15.908087    4.893973   -0.564962
 ---------------------------------------------------------------------

 SCF Done:  E(RPBE1PBE) =  -3005.37054403     A.U. after   15 cycles

 Excitation energies and oscillator strengths:

 Excited State   1:      Singlet-A      1.8889 eV  656.37 nm  f=0.3732  <S**2>=0.000
     245 -> 248        0.17245
     246 -> 247        0.69278
     246 <- 247       -0.10814
 This state for optimization and/or second-order correction.
 Total Energy, E(TD-HF/TD-DFT) =  -3005.30112672
 Copying the excited state density for this state as the 1-particle RhoCI density.

 Excited State   2:      Singlet-A      2.2389 eV  553.78 nm  f=0.1408  <S**2>=0.000
     245 -> 247        0.66174
     246 -> 248       -0.24167

 Excited State   3:      Singlet-A      2.9313 eV  422.97 nm  f=0.0013  <S**2>=0.000
     242 -> 247        0.30627
     242 -> 249       -0.11679
     244 -> 247        0.59674
     244 -> 249       -0.13043

 Excited State   4:      Singlet-A      3.1383 eV  395.07 nm  f=0.0002  <S**2>=0.000
     243 -> 247        0.67367
     243 -> 249        0.10123
     243 -> 250        0.11794
     244 -> 247        0.11205

 Excited State   5:      Singlet-A      3.1590 eV  392.48 nm  f=0.0020  <S**2>=0.000
     240 -> 247       -0.13890
     242 -> 247        0.60362
     244 -> 247       -0.31151

 The electronic state is 1-A.
 Alpha  occ. eigenvalues --  -46.92293 -19.26335 -19.23816 -19.21240 -19.19058
 Alpha  occ. eigenvalues --  -19.18858 -19.18755 -14.41564 -14.41077 -14.39099
 Alpha  occ. eigenvalues --  -14.38762 -10.36766 -10.35040 -10.31955 -10.31880
 Alpha  occ. eigenvalues --  -10.30366 -10.28511 -10.28192 -10.28160 -10.28098
 Alpha  occ. eigenvalues --  -10.27749 -10.27317 -10.27217 -10.26915 -10.26606
 Alpha  occ. eigenvalues --  -10.26126 -10.25914 -10.25873 -10.25847 -10.25747
 Alpha  occ. eigenvalues --  -10.25153 -10.25001 -10.25000 -10.24969 -10.24869
 Alpha  occ. eigenvalues --  -10.24850 -10.24791 -10.24589 -10.24321 -10.24307
 Alpha  occ. eigenvalues --  -10.24135 -10.24128 -10.24009 -10.23935 -10.23883
 Alpha  occ. eigenvalues --  -10.23820 -10.23641 -10.23640 -10.23595 -10.23577
 Alpha  occ. eigenvalues --  -10.23265 -10.22869 -10.22854 -10.22701 -10.22554
 Alpha  occ. eigenvalues --  -10.22501 -10.22476 -10.22429 -10.22340 -10.22222
 Alpha  occ. eigenvalues --  -10.22147 -10.22135 -10.22048 -10.21986 -10.21567
 Alpha  occ. eigenvalues --  -10.21451  -3.14508  -1.87333  -1.86886  -1.86732
 Alpha  occ. eigenvalues --   -1.11898  -1.10565  -1.05699  -1.03939  -1.03578
 Alpha  occ. eigenvalues --   -1.01541  -0.99684  -0.98884  -0.98675  -0.97692
 Alpha  occ. eigenvalues --   -0.86448  -0.84720  -0.84556  -0.84165  -0.83237
 Alpha  occ. eigenvalues --   -0.82849  -0.82676  -0.82327  -0.81817  -0.81607
 Alpha  occ. eigenvalues --   -0.80741  -0.79823  -0.78674  -0.78071  -0.77628
 Alpha  occ. eigenvalues --   -0.76911  -0.75808  -0.75242  -0.74870  -0.74328
 Alpha  occ. eigenvalues --   -0.73882  -0.72734  -0.72303  -0.71671  -0.70189
 Alpha  occ. eigenvalues --   -0.70077  -0.69914  -0.69686  -0.69173  -0.68327
 Alpha  occ. eigenvalues --   -0.67445  -0.67050  -0.65740  -0.65032  -0.63760
 Alpha  occ. eigenvalues --   -0.62996  -0.62842  -0.61593  -0.60970  -0.60461
 Alpha  occ. eigenvalues --   -0.59479  -0.59086  -0.58985  -0.58607  -0.58486
 Alpha  occ. eigenvalues --   -0.58360  -0.57510  -0.57162  -0.55505  -0.54873
 Alpha  occ. eigenvalues --   -0.54714  -0.54152  -0.53643  -0.53200  -0.52412
 Alpha  occ. eigenvalues --   -0.52034  -0.51218  -0.50746  -0.50254  -0.50067
 Alpha  occ. eigenvalues --   -0.49667  -0.49532  -0.49385  -0.49280  -0.48798
 Alpha  occ. eigenvalues --   -0.48668  -0.48370  -0.47670  -0.47546  -0.47312
 Alpha  occ. eigenvalues --   -0.47193  -0.46981  -0.46909  -0.46829  -0.46322
 Alpha  occ. eigenvalues --   -0.46221  -0.45835  -0.45616  -0.45366  -0.45256
 Alpha  occ. eigenvalues --   -0.45168  -0.44933  -0.44836  -0.44492  -0.44304
 Alpha  occ. eigenvalues --   -0.44044  -0.43868  -0.43750  -0.43596  -0.43413
 Alpha  occ. eigenvalues --   -0.43191  -0.43059  -0.42900  -0.42486  -0.42392
 Alpha  occ. eigenvalues --   -0.42144  -0.41973  -0.41887  -0.41683  -0.41525
 Alpha  occ. eigenvalues --   -0.41022  -0.40828  -0.40685  -0.40572  -0.40331
 Alpha  occ. eigenvalues --   -0.40139  -0.40041  -0.39930  -0.39753  -0.39706
 Alpha  occ. eigenvalues --   -0.39374  -0.39281  -0.39066  -0.38915  -0.38761
 Alpha  occ. eigenvalues --   -0.38594  -0.38471  -0.38340  -0.38310  -0.38173
 Alpha  occ. eigenvalues --   -0.37523  -0.37396  -0.37212  -0.37192  -0.37023
 Alpha  occ. eigenvalues --   -0.36698  -0.36643  -0.36412  -0.36209  -0.35899
 Alpha  occ. eigenvalues --   -0.35630  -0.35546  -0.34957  -0.34812  -0.34789
 Alpha  occ. eigenvalues --   -0.34277  -0.34069  -0.33857  -0.33657  -0.33544
 Alpha  occ. eigenvalues --   -0.33275  -0.33159  -0.32929  -0.32698  -0.32558
 Alpha  occ. eigenvalues --   -0.32293  -0.32100  -0.31887  -0.31743  -0.31293
 Alpha  occ. eigenvalues --   -0.31153  -0.30736  -0.30382  -0.29806  -0.29118
 Alpha  occ. eigenvalues --   -0.28823  -0.28687  -0.28148  -0.27046  -0.26023
 Alpha  occ. eigenvalues --   -0.25759  -0.25621  -0.25544  -0.25199  -0.20670
 Alpha  occ. eigenvalues --   -0.18760
 Alpha virt. eigenvalues --   -0.11045  -0.04618  -0.03518  -0.01923  -0.00764
 Alpha virt. eigenvalues --   -0.00679   0.00669   0.01859   0.02391   0.03432
 Alpha virt. eigenvalues --    0.04051   0.04886   0.05283   0.05411   0.05611

 Mulliken charges:
               1
     1  Mg   0.988437
     2  C   -0.060668
     3  C   -0.047760
     4  C   -0.043076
     5  C   -0.093101
     6  N   -0.324414
     7  C    0.045983
     8  C   -0.135141
     9  C   -0.105379
    10  C    0.074560
    11  C    0.014032
    12  C    0.044617
    13  C    0.006586
    14  C    0.197362
    15  O   -0.236788
    16  O   -0.385503
    17  N   -0.524056
    18  C    0.118185
    19  C   -0.164838
    20  C   -0.068697
    21  C    0.117667
    22  C    0.041540
    23  C    0.045840
    24  O   -0.218356
    25  C   -0.041125
    26  N   -0.428639
    27  C    0.066300
    28  C   -0.099048
    29  C   -0.074099
    30  C    0.072709
    31  C    0.036790
    32  C   -0.055300
    33  C   -0.073395
    34  N   -0.416831
    35  C    0.154921
    36  C   -0.181883
    37  C   -0.044459
    38  C    0.172535
    39  C    0.062917
    40  C    0.111278
    41  O   -0.226901
    42  C   -0.081513
    43  C    0.268431
    44  O   -0.231549
    45  O   -0.379481
    46  C    0.135977
    47  C    0.218469
    48  C   -0.123456
    49  C   -0.194352
    50  C    0.025663
    51  C    0.002172
    52  C   -0.052452
    53  C   -0.034116
    54  C   -0.196302
    55  C   -0.018481
    56  C    0.023333
    57  C   -0.066967
    58  C   -0.026614
    59  C   -0.209636
    60  C   -0.022455
    61  C   -0.006888
    62  C   -0.065818
    63  C    0.010658
    64  C   -0.223949
    65  C   -0.041873
    66  C    0.014657
    67  H   -0.014307
    68  H    0.021544
    69  H    0.010460
    70  H    0.079144
    71  H    0.050741
    72  H    0.049049
    73  H    0.035479
    74  H    0.057855
    75  H    0.025386
    76  H    0.023856
    77  H    0.061111
    78  H    0.061061
    79  H    0.058939
    80  H    0.062934
    81  H    0.036454
    82  H    0.070087
    83  H    0.060862
    84  H    0.049399
    85  H    0.045413
    86  H    0.035670
    87  H    0.042963
    88  H    0.050614
    89  H    0.052112
    90  H    0.038929
    91  H    0.036677
    92  H    0.053754
    93  H    0.046721
    94  H    0.041804
    95  H    0.042410
    96  H    0.055455
    97  H    0.062288
    98  H    0.083650
    99  H    0.046308
   100  H    0.044042
   101  H    0.081194
   102  H    0.054932
   103  H    0.067949
   104  H    0.030164
   105  H    0.051402
   106  H    0.051948
   107  H    0.042481
   108  H    0.030535
   109  H    0.031497
   110  H    0.036664
   111  H    0.024688
   112  H    0.021533
   113  H    0.040063
   114  H    0.039400
   115  H    0.038710
   116  H    0.026079
   117  H    0.036565
   118  H    0.016849
   119  H    0.023109
   120  H    0.026152
   121  H    0.030108
   122  H    0.022854
   123  H    0.023835
   124  H    0.028068
   125  H    0.033846
   126  H    0.041316
   127  H    0.035287
   128  H    0.019923
   129  H    0.022403
   130  H    0.035455
   131  H    0.030814
   132  H    0.035565
   133  H    0.021077
   134  H    0.039238
   135  H    0.034981
   136  H    0.018586
   137  H    0.032903
   138  H    0.034142
   139  H    0.032389
   140  H    0.030172
 Sum of Mulliken charges =  -0.00000

 Dipole moment (field-independent basis, Debye):
    X=             -5.3463    Y=              2.1921    Z=              2.0336  Tot=              6.1257
 Quadrupole moment (field-independent basis, Debye-Ang):
   XX=           -376.0935   YY=           -436.2216   ZZ=           -401.5963
   XY=             28.3059   XZ=             -1.2576   YZ=             -5.5987

 Normal termination of Gaussian 16 at Fri Apr 29 14:49:59 2022.
