 Gaussian 16, Revision A.03,
 Gaussian 16:  ES64L-G16RevA.03 25-Dec-2016

 --------------------------------
 #p wB97XD/Def2SVP td=(nstates=5)
 --------------------------------

 ----------------------------------------------------
 step_351_chromophore_18 TDDFT with wB97XD functional
 ----------------------------------------------------
 Symbolic Z-matrix:
 Charge =  0 Multiplicity = 1

                         Standard orientation:
 ---------------------------------------------------------------------
 Center     Atomic      Atomic             Coordinates (Angstroms)
 Number     Number       Type             X           Y           Z
 ---------------------------------------------------------------------
      1         12           0        5.286808    1.288633    0.322773
      2          6           0        4.584908   -2.278483    0.247151
      3          6           0        2.006343    1.722111    0.052672
      4          6           0        6.021936    4.526886   -0.160086
      5          6           0        8.635546    0.446584   -0.399928
      6          7           0        3.453529   -0.202351    0.152693
      7          6           0        3.387140   -1.518189    0.227429
      8          6           0        1.923883   -2.010033    0.130284
      9          6           0        1.126530   -0.626386    0.072472
     10          6           0        2.232547    0.374797    0.082826
     11          6           0        0.246328   -0.502449   -1.120034
     12          6           0        1.446258   -2.772890    1.367446
     13          6           0        0.938131   -4.187351    1.190663
     14          6           0       -0.014554   -4.513827    0.023765
     15          8           0        0.137618   -5.426985   -0.734373
     16          8           0       -1.079459   -3.638395    0.023360
     17          7           0        4.207877    2.975618    0.197988
     18          6           0        2.828247    2.943475    0.184882
     19          6           0        2.391369    4.324708    0.348655
     20          6           0        3.509944    5.114890    0.228798
     21          6           0        4.635766    4.240745    0.060619
     22          6           0        0.944405    4.645032    0.595316
     23          6           0        3.595068    6.635371    0.354547
     24          8           0        4.594623    7.312888    0.366291
     25          6           0        2.337092    7.414914    0.590929
     26          7           0        7.003538    2.276921   -0.107029
     27          6           0        7.060187    3.615171   -0.330465
     28          6           0        8.415014    4.113055   -0.898641
     29          6           0        9.307736    2.853672   -0.584022
     30          6           0        8.264030    1.776808   -0.310444
     31          6           0        8.382690    4.623753   -2.332545
     32          6           0       10.441142    2.938534    0.460337
     33          6           0       10.221697    2.552865    1.957539
     34          7           0        6.443272   -0.508855   -0.001169
     35          6           0        7.814440   -0.648212   -0.196612
     36          6           0        8.089423   -2.050589   -0.330977
     37          6           0        6.878336   -2.729639   -0.106979
     38          6           0        5.922424   -1.674526    0.157562
     39          6           0        9.446899   -2.681345   -0.424727
     40          6           0        6.254814   -4.030487    0.009366
     41          8           0        6.772818   -5.151174   -0.017075
     42          6           0        4.753708   -3.811108    0.275899
     43          6           0        4.173997   -4.447726   -0.910406
     44          8           0        3.982767   -3.968694   -1.986819
     45          8           0        3.713890   -5.703554   -0.620743
     46          6           0        3.019728   -6.472354   -1.685849
     47          6           0       -2.172913   -4.110538   -0.900361
     48          6           0       -3.367051   -3.175529   -0.632690
     49          6           0       -4.682972   -3.491914   -0.416289
     50          6           0       -5.239551   -4.899958   -0.639946
     51          6           0       -5.653878   -2.370194   -0.184668
     52          6           0       -6.160157   -2.285249    1.307305
     53          6           0       -6.933413   -0.934987    1.686836
     54          6           0       -8.140561   -1.097405    2.696095
     55          6           0       -7.373469   -1.134560    4.094840
     56          6           0       -9.194510    0.069873    2.617461
     57          6           0      -10.584231   -0.327311    2.113944
     58          6           0      -11.437724    0.806480    1.545205
     59          6           0      -12.092672    0.388522    0.228716
     60          6           0      -10.852107    0.151075   -0.718086
     61          6           0      -12.994210    1.523191   -0.293463
     62          6           0      -14.056325    0.997072   -1.267400
     63          6           0      -14.537477    2.106261   -2.235217
     64          6           0      -15.620068    3.037388   -1.550892
     65          6           0      -16.911168    2.842847   -2.480184
     66          6           0      -15.344808    4.454139   -1.387536
     67          1           0        0.953458    2.005782   -0.009239
     68          1           0        6.231685    5.584625   -0.335057
     69          1           0        9.663342    0.288819   -0.734914
     70          1           0        1.846734   -2.622623   -0.767611
     71          1           0        0.520420   -0.463556    0.963538
     72          1           0        0.747523   -0.184806   -2.034614
     73          1           0       -0.431625    0.304900   -0.844480
     74          1           0       -0.243148   -1.466773   -1.256729
     75          1           0        0.864923   -2.215158    2.101730
     76          1           0        2.313041   -2.826632    2.027095
     77          1           0        0.414580   -4.472514    2.102739
     78          1           0        1.790358   -4.853270    1.054304
     79          1           0        0.682247    4.122258    1.514478
     80          1           0        0.414165    4.239912   -0.266661
     81          1           0        0.598508    5.674087    0.691327
     82          1           0        1.760952    7.106961    1.463257
     83          1           0        1.767106    7.362690   -0.336317
     84          1           0        2.648003    8.447902    0.743294
     85          1           0        8.746347    4.812294   -0.131450
     86          1           0        9.785363    2.671845   -1.546443
     87          1           0        9.123461    4.185003   -3.000469
     88          1           0        8.530885    5.703460   -2.354289
     89          1           0        7.406048    4.437030   -2.778203
     90          1           0       10.906708    3.914196    0.600153
     91          1           0       11.232698    2.269972    0.120897
     92          1           0        9.181353    2.268549    2.115135
     93          1           0       10.504549    3.390408    2.594502
     94          1           0       10.826130    1.668669    2.156743
     95          1           0       10.081768   -1.929544    0.043034
     96          1           0        9.729219   -2.887072   -1.456638
     97          1           0        9.498176   -3.652831    0.068547
     98          1           0        4.330190   -4.218897    1.193485
     99          1           0        2.874579   -7.487573   -1.315231
    100          1           0        3.772295   -6.658866   -2.450858
    101          1           0        2.098542   -6.059643   -2.096479
    102          1           0       -2.470084   -5.134069   -0.676082
    103          1           0       -1.799422   -4.091416   -1.924751
    104          1           0       -3.074518   -2.128619   -0.557003
    105          1           0       -6.165535   -4.908734   -1.214556
    106          1           0       -5.513399   -5.357748    0.311160
    107          1           0       -4.416139   -5.451772   -1.092525
    108          1           0       -6.570862   -2.484862   -0.761893
    109          1           0       -5.274752   -1.412026   -0.540434
    110          1           0       -5.350581   -2.426019    2.023005
    111          1           0       -6.790495   -3.164873    1.437101
    112          1           0       -7.403404   -0.530132    0.790466
    113          1           0       -6.165101   -0.195854    1.914660
    114          1           0       -8.655735   -2.042003    2.519948
    115          1           0       -7.192914   -2.141114    4.471038
    116          1           0       -7.991057   -0.654521    4.853507
    117          1           0       -6.430833   -0.588216    4.051886
    118          1           0       -8.805708    0.844749    1.957114
    119          1           0       -9.343758    0.629304    3.540835
    120          1           0      -11.187162   -0.657834    2.959461
    121          1           0      -10.505397   -1.219193    1.493043
    122          1           0      -10.821930    1.655120    1.247979
    123          1           0      -12.103838    1.118388    2.349403
    124          1           0      -12.707407   -0.461890    0.522236
    125          1           0      -10.869634   -0.868087   -1.102438
    126          1           0       -9.861627    0.170915   -0.264715
    127          1           0      -10.792004    0.856670   -1.546915
    128          1           0      -12.320183    2.259161   -0.731417
    129          1           0      -13.523247    1.914045    0.575289
    130          1           0      -14.845117    0.748634   -0.556389
    131          1           0      -13.668581    0.171883   -1.864286
    132          1           0      -14.865028    1.527367   -3.098578
    133          1           0      -13.611649    2.628749   -2.473133
    134          1           0      -15.859682    2.627144   -0.569845
    135          1           0      -16.633484    2.422701   -3.447250
    136          1           0      -17.445865    3.758282   -2.731876
    137          1           0      -17.717431    2.253163   -2.043981
    138          1           0      -15.652194    5.101718   -2.208658
    139          1           0      -14.277347    4.489921   -1.167503
    140          1           0      -15.908087    4.893973   -0.564962
 ---------------------------------------------------------------------

 SCF Done:  E(RwB97XD) =  -3007.88046314     A.U. after   19 cycles

 Excitation energies and oscillator strengths:

 Excited State   1:      Singlet-A      1.6644 eV  744.94 nm  f=0.3823  <S**2>=0.000
     245 -> 248        0.18516
     246 -> 247        0.68372
     245 <- 248        0.11837
 This state for optimization and/or second-order correction.
 Total Energy, E(TD-HF/TD-DFT) =  -3007.81929939
 Copying the excited state density for this state as the 1-particle RhoCI density.

 Excited State   2:      Singlet-A      2.1621 eV  573.45 nm  f=0.1486  <S**2>=0.000
     245 -> 247        0.65160
     246 -> 248       -0.26610

 Excited State   3:      Singlet-A      3.4010 eV  364.55 nm  f=0.0004  <S**2>=0.000
     240 -> 247       -0.36333
     240 -> 249        0.25955
     240 -> 250       -0.11043
     244 -> 247        0.48421
     244 -> 249       -0.13008

 Excited State   4:      Singlet-A      3.5215 eV  352.08 nm  f=0.0005  <S**2>=0.000
     240 -> 247        0.37816
     240 -> 249       -0.19433
     241 -> 247        0.14689
     242 -> 247       -0.24889
     244 -> 247        0.45319

 Excited State   5:      Singlet-A      3.6357 eV  341.02 nm  f=0.2889  <S**2>=0.000
     239 -> 247        0.12608
     240 -> 247        0.17570
     241 -> 247       -0.14431
     242 -> 247        0.38335
     245 -> 247        0.16483
     246 -> 248        0.49121

 The electronic state is 1-A.
 Alpha  occ. eigenvalues --  -46.95226 -19.30906 -19.28435 -19.25915 -19.23783
 Alpha  occ. eigenvalues --  -19.23697 -19.23643 -14.46640 -14.46176 -14.43990
 Alpha  occ. eigenvalues --  -14.43749 -10.43552 -10.41926 -10.38927 -10.38623
 Alpha  occ. eigenvalues --  -10.36893 -10.34864 -10.34498 -10.34363 -10.34312
 Alpha  occ. eigenvalues --  -10.34017 -10.33772 -10.33573 -10.33312 -10.33015
 Alpha  occ. eigenvalues --  -10.32437 -10.32274 -10.32242 -10.32199 -10.32150
 Alpha  occ. eigenvalues --  -10.31706 -10.31322 -10.31232 -10.31227 -10.31199
 Alpha  occ. eigenvalues --  -10.31187 -10.31067 -10.30963 -10.30748 -10.30717
 Alpha  occ. eigenvalues --  -10.30596 -10.30440 -10.30415 -10.30327 -10.30261
 Alpha  occ. eigenvalues --  -10.30124 -10.29988 -10.29937 -10.29926 -10.29848
 Alpha  occ. eigenvalues --  -10.29613 -10.29394 -10.29232 -10.29076 -10.29064
 Alpha  occ. eigenvalues --  -10.28904 -10.28878 -10.28843 -10.28680 -10.28587
 Alpha  occ. eigenvalues --  -10.28562 -10.28510 -10.28416 -10.28338 -10.27972
 Alpha  occ. eigenvalues --  -10.27896  -3.21307  -1.94882  -1.94434  -1.94274
 Alpha  occ. eigenvalues --   -1.19273  -1.18019  -1.13086  -1.11279  -1.11188
 Alpha  occ. eigenvalues --   -1.08959  -1.07068  -1.06265  -1.05984  -1.05036
 Alpha  occ. eigenvalues --   -0.94150  -0.92394  -0.92220  -0.91804  -0.90833
 Alpha  occ. eigenvalues --   -0.90514  -0.90261  -0.89900  -0.89419  -0.89278
 Alpha  occ. eigenvalues --   -0.88399  -0.87441  -0.86339  -0.85704  -0.85246
 Alpha  occ. eigenvalues --   -0.84559  -0.83469  -0.82918  -0.82532  -0.81953
 Alpha  occ. eigenvalues --   -0.81548  -0.80348  -0.79960  -0.79268  -0.77856
 Alpha  occ. eigenvalues --   -0.77746  -0.77605  -0.77250  -0.76872  -0.75993
 Alpha  occ. eigenvalues --   -0.75011  -0.74653  -0.73270  -0.72642  -0.71326
 Alpha  occ. eigenvalues --   -0.70608  -0.70439  -0.69108  -0.68609  -0.67951
 Alpha  occ. eigenvalues --   -0.66873  -0.66719  -0.66464  -0.66303  -0.65962
 Alpha  occ. eigenvalues --   -0.65836  -0.65161  -0.64822  -0.62962  -0.62250
 Alpha  occ. eigenvalues --   -0.62228  -0.61601  -0.61091  -0.60559  -0.60019
 Alpha  occ. eigenvalues --   -0.59408  -0.58746  -0.58152  -0.57681  -0.57458
 Alpha  occ. eigenvalues --   -0.57064  -0.56938  -0.56860  -0.56681  -0.56285
 Alpha  occ. eigenvalues --   -0.56062  -0.55758  -0.55076  -0.54945  -0.54764
 Alpha  occ. eigenvalues --   -0.54607  -0.54375  -0.54295  -0.54207  -0.53677
 Alpha  occ. eigenvalues --   -0.53523  -0.53171  -0.52980  -0.52852  -0.52626
 Alpha  occ. eigenvalues --   -0.52532  -0.52260  -0.52162  -0.51809  -0.51594
 Alpha  occ. eigenvalues --   -0.51395  -0.51207  -0.51039  -0.50912  -0.50707
 Alpha  occ. eigenvalues --   -0.50461  -0.50321  -0.50172  -0.49755  -0.49649
 Alpha  occ. eigenvalues --   -0.49474  -0.49226  -0.49142  -0.48953  -0.48784
 Alpha  occ. eigenvalues --   -0.48204  -0.47975  -0.47903  -0.47796  -0.47514
 Alpha  occ. eigenvalues --   -0.47381  -0.47227  -0.47151  -0.46961  -0.46922
 Alpha  occ. eigenvalues --   -0.46502  -0.46468  -0.46206  -0.46053  -0.45909
 Alpha  occ. eigenvalues --   -0.45754  -0.45637  -0.45458  -0.45362  -0.45263
 Alpha  occ. eigenvalues --   -0.44694  -0.44639  -0.44374  -0.44314  -0.44111
 Alpha  occ. eigenvalues --   -0.43799  -0.43744  -0.43456  -0.43272  -0.42913
 Alpha  occ. eigenvalues --   -0.42721  -0.42529  -0.42105  -0.41908  -0.41858
 Alpha  occ. eigenvalues --   -0.41388  -0.41136  -0.40964  -0.40612  -0.40586
 Alpha  occ. eigenvalues --   -0.40311  -0.40190  -0.39923  -0.39661  -0.39624
 Alpha  occ. eigenvalues --   -0.39354  -0.39064  -0.38834  -0.38783  -0.38264
 Alpha  occ. eigenvalues --   -0.38040  -0.37683  -0.37494  -0.36853  -0.35962
 Alpha  occ. eigenvalues --   -0.35650  -0.35392  -0.35344  -0.33577  -0.32688
 Alpha  occ. eigenvalues --   -0.32680  -0.32524  -0.32453  -0.31956  -0.25606
 Alpha  occ. eigenvalues --   -0.22960
 Alpha virt. eigenvalues --   -0.06972   0.00854   0.02742   0.04627   0.05228
 Alpha virt. eigenvalues --    0.05899   0.07491   0.08625   0.09133   0.09742
 Alpha virt. eigenvalues --    0.10730   0.11618   0.12080   0.12146   0.12399

 Mulliken charges:
               1
     1  Mg   0.978728
     2  C   -0.065698
     3  C   -0.059961
     4  C   -0.061116
     5  C   -0.115125
     6  N   -0.286351
     7  C    0.011499
     8  C   -0.109956
     9  C   -0.076629
    10  C    0.060272
    11  C    0.030309
    12  C    0.051737
    13  C    0.032344
    14  C    0.182875
    15  O   -0.233296
    16  O   -0.384546
    17  N   -0.491923
    18  C    0.103747
    19  C   -0.151146
    20  C   -0.062154
    21  C    0.104999
    22  C    0.052733
    23  C    0.039106
    24  O   -0.213123
    25  C   -0.027626
    26  N   -0.394137
    27  C    0.054638
    28  C   -0.072158
    29  C   -0.051333
    30  C    0.064316
    31  C    0.045816
    32  C   -0.044662
    33  C   -0.054571
    34  N   -0.378717
    35  C    0.153348
    36  C   -0.182019
    37  C   -0.040977
    38  C    0.149782
    39  C    0.073561
    40  C    0.097527
    41  O   -0.216447
    42  C   -0.039997
    43  C    0.239717
    44  O   -0.224013
    45  O   -0.375656
    46  C    0.150100
    47  C    0.232899
    48  C   -0.132362
    49  C   -0.180454
    50  C    0.039801
    51  C    0.019881
    52  C   -0.038590
    53  C   -0.012924
    54  C   -0.169214
    55  C   -0.006231
    56  C    0.034200
    57  C   -0.047890
    58  C   -0.007542
    59  C   -0.180709
    60  C   -0.007663
    61  C    0.006914
    62  C   -0.044654
    63  C    0.027274
    64  C   -0.197618
    65  C   -0.028737
    66  C    0.026570
    67  H   -0.024481
    68  H    0.017497
    69  H    0.006294
    70  H    0.066862
    71  H    0.040883
    72  H    0.044030
    73  H    0.029013
    74  H    0.044002
    75  H    0.019834
    76  H    0.014152
    77  H    0.056636
    78  H    0.047143
    79  H    0.053767
    80  H    0.057456
    81  H    0.032330
    82  H    0.064125
    83  H    0.054550
    84  H    0.047339
    85  H    0.034199
    86  H    0.024050
    87  H    0.037674
    88  H    0.045619
    89  H    0.045826
    90  H    0.032046
    91  H    0.029140
    92  H    0.042812
    93  H    0.042198
    94  H    0.036061
    95  H    0.035841
    96  H    0.051557
    97  H    0.059318
    98  H    0.078656
    99  H    0.043566
   100  H    0.039989
   101  H    0.077439
   102  H    0.048057
   103  H    0.064705
   104  H    0.026558
   105  H    0.046885
   106  H    0.046423
   107  H    0.035564
   108  H    0.022357
   109  H    0.024921
   110  H    0.027807
   111  H    0.014811
   112  H    0.007624
   113  H    0.032002
   114  H    0.028707
   115  H    0.033387
   116  H    0.019492
   117  H    0.029383
   118  H    0.005819
   119  H    0.016001
   120  H    0.017945
   121  H    0.018289
   122  H    0.009557
   123  H    0.017143
   124  H    0.017135
   125  H    0.027886
   126  H    0.027875
   127  H    0.029976
   128  H    0.008227
   129  H    0.012615
   130  H    0.024365
   131  H    0.023008
   132  H    0.027619
   133  H    0.010551
   134  H    0.027790
   135  H    0.027774
   136  H    0.012218
   137  H    0.027513
   138  H    0.028248
   139  H    0.024497
   140  H    0.025084
 Sum of Mulliken charges =  -0.00000

 Dipole moment (field-independent basis, Debye):
    X=             -5.3646    Y=              2.0299    Z=              2.0919  Tot=              6.1054
 Quadrupole moment (field-independent basis, Debye-Ang):
   XX=           -375.7499   YY=           -435.3337   ZZ=           -401.1081
   XY=             26.8046   XZ=             -0.8142   YZ=             -5.4731

 Normal termination of Gaussian 16 at Fri Apr 29 15:15:51 2022.
