 Gaussian 16, Revision A.03,
 Gaussian 16:  ES64L-G16RevA.03 25-Dec-2016

 --------------------
 #p ZINDO=(nstates=5)
 --------------------

 -----------------------------
 step_351_chromophore_18 ZINDO
 -----------------------------
 Symbolic Z-matrix:
 Charge =  0 Multiplicity = 1

                         Standard orientation:
 ---------------------------------------------------------------------
 Center     Atomic      Atomic             Coordinates (Angstroms)
 Number     Number       Type             X           Y           Z
 ---------------------------------------------------------------------
      1         12           0        5.286808    1.288633    0.322773
      2          6           0        4.584908   -2.278483    0.247151
      3          6           0        2.006343    1.722111    0.052672
      4          6           0        6.021936    4.526886   -0.160086
      5          6           0        8.635546    0.446584   -0.399928
      6          7           0        3.453529   -0.202351    0.152693
      7          6           0        3.387140   -1.518189    0.227429
      8          6           0        1.923883   -2.010033    0.130284
      9          6           0        1.126530   -0.626386    0.072472
     10          6           0        2.232547    0.374797    0.082826
     11          6           0        0.246328   -0.502449   -1.120034
     12          6           0        1.446258   -2.772890    1.367446
     13          6           0        0.938131   -4.187351    1.190663
     14          6           0       -0.014554   -4.513827    0.023765
     15          8           0        0.137618   -5.426985   -0.734373
     16          8           0       -1.079459   -3.638395    0.023360
     17          7           0        4.207877    2.975618    0.197988
     18          6           0        2.828247    2.943475    0.184882
     19          6           0        2.391369    4.324708    0.348655
     20          6           0        3.509944    5.114890    0.228798
     21          6           0        4.635766    4.240745    0.060619
     22          6           0        0.944405    4.645032    0.595316
     23          6           0        3.595068    6.635371    0.354547
     24          8           0        4.594623    7.312888    0.366291
     25          6           0        2.337092    7.414914    0.590929
     26          7           0        7.003538    2.276921   -0.107029
     27          6           0        7.060187    3.615171   -0.330465
     28          6           0        8.415014    4.113055   -0.898641
     29          6           0        9.307736    2.853672   -0.584022
     30          6           0        8.264030    1.776808   -0.310444
     31          6           0        8.382690    4.623753   -2.332545
     32          6           0       10.441142    2.938534    0.460337
     33          6           0       10.221697    2.552865    1.957539
     34          7           0        6.443272   -0.508855   -0.001169
     35          6           0        7.814440   -0.648212   -0.196612
     36          6           0        8.089423   -2.050589   -0.330977
     37          6           0        6.878336   -2.729639   -0.106979
     38          6           0        5.922424   -1.674526    0.157562
     39          6           0        9.446899   -2.681345   -0.424727
     40          6           0        6.254814   -4.030487    0.009366
     41          8           0        6.772818   -5.151174   -0.017075
     42          6           0        4.753708   -3.811108    0.275899
     43          6           0        4.173997   -4.447726   -0.910406
     44          8           0        3.982767   -3.968694   -1.986819
     45          8           0        3.713890   -5.703554   -0.620743
     46          6           0        3.019728   -6.472354   -1.685849
     47          6           0       -2.172913   -4.110538   -0.900361
     48          6           0       -3.367051   -3.175529   -0.632690
     49          6           0       -4.682972   -3.491914   -0.416289
     50          6           0       -5.239551   -4.899958   -0.639946
     51          6           0       -5.653878   -2.370194   -0.184668
     52          6           0       -6.160157   -2.285249    1.307305
     53          6           0       -6.933413   -0.934987    1.686836
     54          6           0       -8.140561   -1.097405    2.696095
     55          6           0       -7.373469   -1.134560    4.094840
     56          6           0       -9.194510    0.069873    2.617461
     57          6           0      -10.584231   -0.327311    2.113944
     58          6           0      -11.437724    0.806480    1.545205
     59          6           0      -12.092672    0.388522    0.228716
     60          6           0      -10.852107    0.151075   -0.718086
     61          6           0      -12.994210    1.523191   -0.293463
     62          6           0      -14.056325    0.997072   -1.267400
     63          6           0      -14.537477    2.106261   -2.235217
     64          6           0      -15.620068    3.037388   -1.550892
     65          6           0      -16.911168    2.842847   -2.480184
     66          6           0      -15.344808    4.454139   -1.387536
     67          1           0        0.953458    2.005782   -0.009239
     68          1           0        6.231685    5.584625   -0.335057
     69          1           0        9.663342    0.288819   -0.734914
     70          1           0        1.846734   -2.622623   -0.767611
     71          1           0        0.520420   -0.463556    0.963538
     72          1           0        0.747523   -0.184806   -2.034614
     73          1           0       -0.431625    0.304900   -0.844480
     74          1           0       -0.243148   -1.466773   -1.256729
     75          1           0        0.864923   -2.215158    2.101730
     76          1           0        2.313041   -2.826632    2.027095
     77          1           0        0.414580   -4.472514    2.102739
     78          1           0        1.790358   -4.853270    1.054304
     79          1           0        0.682247    4.122258    1.514478
     80          1           0        0.414165    4.239912   -0.266661
     81          1           0        0.598508    5.674087    0.691327
     82          1           0        1.760952    7.106961    1.463257
     83          1           0        1.767106    7.362690   -0.336317
     84          1           0        2.648003    8.447902    0.743294
     85          1           0        8.746347    4.812294   -0.131450
     86          1           0        9.785363    2.671845   -1.546443
     87          1           0        9.123461    4.185003   -3.000469
     88          1           0        8.530885    5.703460   -2.354289
     89          1           0        7.406048    4.437030   -2.778203
     90          1           0       10.906708    3.914196    0.600153
     91          1           0       11.232698    2.269972    0.120897
     92          1           0        9.181353    2.268549    2.115135
     93          1           0       10.504549    3.390408    2.594502
     94          1           0       10.826130    1.668669    2.156743
     95          1           0       10.081768   -1.929544    0.043034
     96          1           0        9.729219   -2.887072   -1.456638
     97          1           0        9.498176   -3.652831    0.068547
     98          1           0        4.330190   -4.218897    1.193485
     99          1           0        2.874579   -7.487573   -1.315231
    100          1           0        3.772295   -6.658866   -2.450858
    101          1           0        2.098542   -6.059643   -2.096479
    102          1           0       -2.470084   -5.134069   -0.676082
    103          1           0       -1.799422   -4.091416   -1.924751
    104          1           0       -3.074518   -2.128619   -0.557003
    105          1           0       -6.165535   -4.908734   -1.214556
    106          1           0       -5.513399   -5.357748    0.311160
    107          1           0       -4.416139   -5.451772   -1.092525
    108          1           0       -6.570862   -2.484862   -0.761893
    109          1           0       -5.274752   -1.412026   -0.540434
    110          1           0       -5.350581   -2.426019    2.023005
    111          1           0       -6.790495   -3.164873    1.437101
    112          1           0       -7.403404   -0.530132    0.790466
    113          1           0       -6.165101   -0.195854    1.914660
    114          1           0       -8.655735   -2.042003    2.519948
    115          1           0       -7.192914   -2.141114    4.471038
    116          1           0       -7.991057   -0.654521    4.853507
    117          1           0       -6.430833   -0.588216    4.051886
    118          1           0       -8.805708    0.844749    1.957114
    119          1           0       -9.343758    0.629304    3.540835
    120          1           0      -11.187162   -0.657834    2.959461
    121          1           0      -10.505397   -1.219193    1.493043
    122          1           0      -10.821930    1.655120    1.247979
    123          1           0      -12.103838    1.118388    2.349403
    124          1           0      -12.707407   -0.461890    0.522236
    125          1           0      -10.869634   -0.868087   -1.102438
    126          1           0       -9.861627    0.170915   -0.264715
    127          1           0      -10.792004    0.856670   -1.546915
    128          1           0      -12.320183    2.259161   -0.731417
    129          1           0      -13.523247    1.914045    0.575289
    130          1           0      -14.845117    0.748634   -0.556389
    131          1           0      -13.668581    0.171883   -1.864286
    132          1           0      -14.865028    1.527367   -3.098578
    133          1           0      -13.611649    2.628749   -2.473133
    134          1           0      -15.859682    2.627144   -0.569845
    135          1           0      -16.633484    2.422701   -3.447250
    136          1           0      -17.445865    3.758282   -2.731876
    137          1           0      -17.717431    2.253163   -2.043981
    138          1           0      -15.652194    5.101718   -2.208658
    139          1           0      -14.277347    4.489921   -1.167503
    140          1           0      -15.908087    4.893973   -0.564962
 ---------------------------------------------------------------------

 SCF Done:  E(RZINDO/S) =  -474.552614035     A.U. after   19 cycles

 Excitation energies and oscillator strengths:

 Excited State   1:      Singlet-A      1.2391 eV 1000.59 nm  f=0.6190  <S**2>=0.000
     175 ->178         0.19335
     176 ->177         0.66257
 This state for optimization and/or second-order correction.
 Total Energy, E(CIS/TDA) =  -474.507077774
 Copying the excited state density for this state as the 1-particle RhoCI density.

 Excited State   2:      Singlet-A      1.9002 eV  652.46 nm  f=0.1003  <S**2>=0.000
     175 ->177         0.58341
     176 ->178        -0.37186

 Excited State   3:      Singlet-A      2.9052 eV  426.77 nm  f=0.0040  <S**2>=0.000
     168 ->177         0.33691
     168 ->179        -0.43105
     168 ->180         0.15369
     168 ->186        -0.14156
     168 ->200         0.10578
     170 ->177        -0.10302
     170 ->179         0.10694
     173 ->177         0.12771

 Excited State   4:      Singlet-A      2.9896 eV  414.72 nm  f=0.0008  <S**2>=0.000
     168 ->180         0.11843
     169 ->177         0.13806
     169 ->179         0.12550
     169 ->180         0.23449
     169 ->186         0.11081
     170 ->177         0.22246
     170 ->179         0.18789
     170 ->180         0.36859
     170 ->181         0.10859
     170 ->185        -0.12083
     170 ->186         0.17218
     170 ->187         0.11958

 Excited State   5:      Singlet-A      3.0265 eV  409.66 nm  f=0.7190  <S**2>=0.000
     175 ->177         0.29242
     176 ->178         0.51038
     176 ->179         0.27375

 The electronic state is 1-A.
 Alpha  occ. eigenvalues --   -1.85036  -1.82991  -1.81458  -1.73921  -1.73501
 Alpha  occ. eigenvalues --   -1.71537  -1.66574  -1.60613  -1.59524  -1.57939
 Alpha  occ. eigenvalues --   -1.55661  -1.50904  -1.48282  -1.47739  -1.46951
 Alpha  occ. eigenvalues --   -1.45934  -1.43030  -1.40808  -1.40194  -1.39927
 Alpha  occ. eigenvalues --   -1.37562  -1.34214  -1.32532  -1.31484  -1.29826
 Alpha  occ. eigenvalues --   -1.26204  -1.25186  -1.21232  -1.19330  -1.17525
 Alpha  occ. eigenvalues --   -1.17209  -1.16846  -1.15692  -1.14386  -1.13841
 Alpha  occ. eigenvalues --   -1.13263  -1.10915  -1.10494  -1.05534  -1.03968
 Alpha  occ. eigenvalues --   -1.02305  -1.01575  -0.98712  -0.97950  -0.96822
 Alpha  occ. eigenvalues --   -0.96497  -0.94591  -0.93582  -0.93158  -0.92128
 Alpha  occ. eigenvalues --   -0.91396  -0.89982  -0.88641  -0.88303  -0.86700
 Alpha  occ. eigenvalues --   -0.85732  -0.84829  -0.83377  -0.81811  -0.79995
 Alpha  occ. eigenvalues --   -0.78910  -0.77796  -0.77721  -0.76508  -0.76333
 Alpha  occ. eigenvalues --   -0.76029  -0.75367  -0.74518  -0.74324  -0.73962
 Alpha  occ. eigenvalues --   -0.73288  -0.72945  -0.72639  -0.71412  -0.71157
 Alpha  occ. eigenvalues --   -0.70649  -0.69760  -0.69293  -0.68652  -0.68337
 Alpha  occ. eigenvalues --   -0.67539  -0.66606  -0.66463  -0.66160  -0.65987
 Alpha  occ. eigenvalues --   -0.65738  -0.64211  -0.63877  -0.63711  -0.63357
 Alpha  occ. eigenvalues --   -0.62867  -0.62821  -0.62712  -0.62244  -0.61728
 Alpha  occ. eigenvalues --   -0.61444  -0.60965  -0.60826  -0.60655  -0.60542
 Alpha  occ. eigenvalues --   -0.59883  -0.59627  -0.58553  -0.58463  -0.58101
 Alpha  occ. eigenvalues --   -0.57824  -0.57449  -0.57164  -0.57099  -0.56276
 Alpha  occ. eigenvalues --   -0.55936  -0.55365  -0.55202  -0.54549  -0.54318
 Alpha  occ. eigenvalues --   -0.54280  -0.53894  -0.53731  -0.53391  -0.53065
 Alpha  occ. eigenvalues --   -0.52771  -0.52499  -0.51982  -0.51772  -0.51623
 Alpha  occ. eigenvalues --   -0.51374  -0.50807  -0.50579  -0.50531  -0.50079
 Alpha  occ. eigenvalues --   -0.49560  -0.49277  -0.48850  -0.48765  -0.48396
 Alpha  occ. eigenvalues --   -0.48129  -0.48090  -0.47894  -0.47803  -0.47572
 Alpha  occ. eigenvalues --   -0.47245  -0.47112  -0.46979  -0.46856  -0.46804
 Alpha  occ. eigenvalues --   -0.46151  -0.45995  -0.45839  -0.45697  -0.45540
 Alpha  occ. eigenvalues --   -0.45061  -0.44828  -0.44419  -0.44223  -0.43887
 Alpha  occ. eigenvalues --   -0.43545  -0.43315  -0.43086  -0.42630  -0.41981
 Alpha  occ. eigenvalues --   -0.41449  -0.41140  -0.40883  -0.39006  -0.38519
 Alpha  occ. eigenvalues --   -0.37701  -0.36837  -0.35054  -0.34857  -0.34622
 Alpha  occ. eigenvalues --   -0.33155  -0.32585  -0.32556  -0.32319  -0.26219
 Alpha  occ. eigenvalues --   -0.21717
 Alpha virt. eigenvalues --   -0.08573  -0.01400  -0.00416   0.01559   0.01691
 Alpha virt. eigenvalues --    0.02271   0.03295   0.03925   0.04068   0.05167
 Alpha virt. eigenvalues --    0.06584   0.07124   0.07756   0.08246   0.08470

 Mulliken charges:
               1
     1  Mg   0.433485
     2  C   -0.071810
     3  C   -0.087180
     4  C   -0.069270
     5  C   -0.055722
     6  N   -0.289479
     7  C    0.140063
     8  C    0.006979
     9  C    0.008698
    10  C    0.135523
    11  C   -0.045993
    12  C   -0.024818
    13  C    0.006101
    14  C    0.468267
    15  O   -0.500291
    16  O   -0.279863
    17  N   -0.308510
    18  C    0.081931
    19  C    0.015397
    20  C   -0.041943
    21  C    0.129780
    22  C   -0.047621
    23  C    0.324910
    24  O   -0.516291
    25  C   -0.033215
    26  N   -0.261297
    27  C    0.130802
    28  C   -0.000992
    29  C    0.000995
    30  C    0.126987
    31  C   -0.039405
    32  C   -0.031794
    33  C   -0.058920
    34  N   -0.304093
    35  C    0.089046
    36  C    0.039702
    37  C   -0.064633
    38  C    0.128826
    39  C   -0.041588
    40  C    0.345385
    41  O   -0.526374
    42  C    0.060989
    43  C    0.501516
    44  O   -0.526307
    45  O   -0.282930
    46  C    0.072767
    47  C    0.102367
    48  C   -0.095311
    49  C   -0.004246
    50  C   -0.044125
    51  C   -0.016905
    52  C   -0.036350
    53  C   -0.037450
    54  C   -0.012031
    55  C   -0.062791
    56  C   -0.033161
    57  C   -0.037158
    58  C   -0.035010
    59  C   -0.015096
    60  C   -0.055880
    61  C   -0.038292
    62  C   -0.045538
    63  C   -0.041963
    64  C    0.000168
    65  C   -0.071378
    66  C   -0.044511
    67  H    0.012896
    68  H    0.041848
    69  H    0.028307
    70  H    0.054352
    71  H    0.032942
    72  H    0.028566
    73  H    0.014430
    74  H    0.025281
    75  H    0.028857
    76  H    0.007228
    77  H    0.038339
    78  H    0.038348
    79  H    0.029150
    80  H    0.027668
    81  H    0.028161
    82  H    0.037736
    83  H    0.035049
    84  H    0.030875
    85  H    0.031675
    86  H    0.021602
    87  H    0.023191
    88  H    0.021916
    89  H    0.024888
    90  H    0.020679
    91  H    0.013809
    92  H    0.023260
    93  H    0.024420
    94  H    0.019596
    95  H    0.024520
    96  H    0.036632
    97  H    0.036632
    98  H    0.061378
    99  H    0.028533
   100  H    0.037325
   101  H    0.063719
   102  H    0.048829
   103  H    0.056067
   104  H    0.028336
   105  H    0.031309
   106  H    0.027552
   107  H    0.029081
   108  H    0.017339
   109  H    0.020936
   110  H    0.019636
   111  H    0.017561
   112  H    0.003803
   113  H    0.027475
   114  H    0.031240
   115  H    0.018747
   116  H    0.010545
   117  H    0.022944
   118  H    0.013890
   119  H    0.020021
   120  H    0.005916
   121  H    0.021455
   122  H    0.013536
   123  H    0.014216
   124  H    0.028479
   125  H    0.010445
   126  H    0.022110
   127  H    0.020322
   128  H    0.023399
   129  H    0.015608
   130  H    0.023371
   131  H    0.022227
   132  H    0.024133
   133  H    0.020303
   134  H    0.024914
   135  H    0.019808
   136  H    0.010752
   137  H    0.015781
   138  H    0.022171
   139  H    0.015309
   140  H    0.013472
 Sum of Mulliken charges =  -0.00000

 Dipole moment (field-independent basis, Debye):
    X=             -5.9131    Y=              2.7204    Z=              3.4033  Tot=              7.3449
 N-N= 4.290039796091D+03 E-N= 0.000000000000D+00  KE=-9.254780088224D+03
 Leave Link  601 at Fri Apr 29 15:28:48 2022, MaxMem=  6710886400 cpu:               3.3 elap:               0.2
 (Enter /sw/apps/gaussian-16.0/g16/l9999.exe)
 1\1\GINC-BP1-COMPUTE150\SP\RZINDO CIS\STO-3G\C55H74Mg1N4O6\OF15641\29-
 Apr-2022\0\\#p ZINDO=(nstates=5)\\step_351_chromophore_18 ZINDO\\0,1\M
 g,0,35.029,49.442,25.472\C,0,34.93,47.587,28.598\C,0,33.619,51.933,27.
 154\C,0,34.636,50.893,22.472\C,0,35.557,46.341,23.875\N,0,34.327,49.7,
 27.72\C,0,34.453,48.912,28.771\C,0,33.887,49.584,30.044\C,0,33.475,51.
 024,29.487\C,0,33.806,50.907,28.037\C,0,32.047,51.363,29.728\C,0,34.92
 7,49.79,31.147\C,0,34.671,49.171,32.504\C,0,33.269,49.275,33.136\O,0,3

 Normal termination of Gaussian 16 at Fri Apr 29 15:28:48 2022.
