 Gaussian 16, Revision A.03,
 Gaussian 16:  ES64L-G16RevA.03 25-Dec-2016

 ------------------------------
 #p blyp/Def2SVP td=(nstates=5)
 ------------------------------

 ---------------------------------------------------
 step_1051_chromophore_25 TDDFT with blyp functional
 ---------------------------------------------------
 Symbolic Z-matrix:
 Charge =  0 Multiplicity = 1

                         Standard orientation:
 ---------------------------------------------------------------------
 Center     Atomic      Atomic             Coordinates (Angstroms)
 Number     Number       Type             X           Y           Z
 ---------------------------------------------------------------------
      1         12           0        5.986489    0.394562   -0.001897
      2          6           0        3.518019   -2.161165   -0.102782
      3          6           0        3.515692    2.707800   -0.069373
      4          6           0        8.357483    2.679342   -0.336724
      5          6           0        8.474134   -2.243777    0.125996
      6          7           0        3.790839    0.185475   -0.008971
      7          6           0        3.000917   -0.886241   -0.001086
      8          6           0        1.459114   -0.500046    0.029908
      9          6           0        1.459130    1.093115   -0.023150
     10          6           0        3.038943    1.369950    0.023378
     11          6           0        0.698325    1.797073   -1.186203
     12          6           0        0.567498   -1.159181    1.214846
     13          6           0       -0.562199   -2.155236    0.741677
     14          6           0       -1.905880   -1.868615    1.462561
     15          8           0       -2.117150   -1.789611    2.662414
     16          8           0       -2.935049   -1.807889    0.476818
     17          7           0        5.877860    2.458091   -0.020369
     18          6           0        4.820093    3.209654   -0.069569
     19          6           0        5.196427    4.582789   -0.079098
     20          6           0        6.627740    4.543605   -0.289388
     21          6           0        6.987337    3.146013   -0.286981
     22          6           0        4.281919    5.772405    0.187828
     23          6           0        7.644498    5.754183   -0.398942
     24          8           0        8.862087    5.628629   -0.534724
     25          6           0        7.157843    7.126343   -0.265387
     26          7           0        8.078863    0.223600   -0.294642
     27          6           0        8.838879    1.380412   -0.305598
     28          6           0       10.321451    1.037684   -0.058148
     29          6           0       10.302567   -0.481519    0.316866
     30          6           0        8.886454   -0.863911    0.002710
     31          6           0       11.093818    1.399846   -1.364107
     32          6           0       10.619730   -0.724723    1.831078
     33          6           0        9.712007   -0.067881    2.948630
     34          7           0        6.073862   -1.753181    0.026176
     35          6           0        7.157753   -2.622325    0.041564
     36          6           0        6.664187   -3.993374    0.114389
     37          6           0        5.306076   -3.884605    0.059726
     38          6           0        4.933564   -2.515894   -0.023583
     39          6           0        7.456702   -5.222293    0.403519
     40          6           0        4.022200   -4.597184    0.030800
     41          8           0        3.738788   -5.792518    0.113278
     42          6           0        2.828355   -3.492351   -0.053228
     43          6           0        2.033126   -3.937367   -1.241621
     44          8           0        2.292919   -3.726450   -2.409312
     45          8           0        0.998435   -4.690771   -0.811781
     46          6           0        0.106955   -5.087484   -1.802933
     47          6           0       -4.286530   -1.808576    0.952412
     48          6           0       -5.095263   -1.375565   -0.291080
     49          6           0       -5.340389   -0.081669   -0.665451
     50          6           0       -4.999683    1.179785    0.118191
     51          6           0       -6.319046    0.194341   -1.825383
     52          6           0       -7.888842    0.077011   -1.565961
     53          6           0       -8.632058    1.343722   -2.152491
     54          6           0      -10.003640    1.053398   -2.873045
     55          6           0      -10.470280    2.049454   -3.920532
     56          6           0      -11.166749    0.688097   -1.828106
     57          6           0      -12.314541   -0.155478   -2.392265
     58          6           0      -13.694717    0.399684   -1.905191
     59          6           0      -14.041764   -0.104045   -0.482068
     60          6           0      -15.585057   -0.382161   -0.302329
     61          6           0      -13.547338    0.981093    0.478765
     62          6           0      -13.086967    0.244307    1.800471
     63          6           0      -12.765261    1.199211    3.042622
     64          6           0      -11.506154    0.860957    3.859430
     65          6           0      -11.464389    1.565029    5.189267
     66          6           0      -10.288160    1.244654    2.960703
     67          1           0        2.704071    3.428908    0.045931
     68          1           0        9.210710    3.360048   -0.344071
     69          1           0        9.203865   -2.930003    0.562366
     70          1           0        1.087768   -0.800485   -0.950010
     71          1           0        1.064392    1.531894    0.893438
     72          1           0        1.498829    1.828450   -1.925853
     73          1           0        0.392161    2.788141   -0.851706
     74          1           0       -0.080927    1.144803   -1.579512
     75          1           0        0.179972   -0.373767    1.863213
     76          1           0        1.321884   -1.625852    1.847818
     77          1           0       -0.236125   -3.168517    0.975493
     78          1           0       -0.806973   -2.158442   -0.320975
     79          1           0        4.225442    6.448321   -0.665484
     80          1           0        4.579387    6.486686    0.954953
     81          1           0        3.277082    5.446194    0.453325
     82          1           0        6.462239    7.424280   -1.050863
     83          1           0        7.907849    7.917709   -0.261795
     84          1           0        6.628350    7.149484    0.687341
     85          1           0       10.606312    1.699042    0.759920
     86          1           0       11.085099   -1.037215   -0.199663
     87          1           0       11.492404    0.458853   -1.742805
     88          1           0       11.944447    2.058879   -1.190265
     89          1           0       10.405539    1.848560   -2.079465
     90          1           0       11.664225   -0.515100    2.060777
     91          1           0       10.536775   -1.801014    1.982306
     92          1           0       10.283393    0.763490    3.359884
     93          1           0        9.606965   -0.667007    3.853328
     94          1           0        8.805654    0.365477    2.523365
     95          1           0        8.381909   -5.199812    0.978213
     96          1           0        7.543241   -5.762826   -0.538716
     97          1           0        6.812845   -5.819287    1.050363
     98          1           0        2.422404   -3.784170    0.914099
     99          1           0        0.471119   -5.194797   -2.824483
    100          1           0       -0.775143   -4.447253   -1.757528
    101          1           0       -0.363102   -6.029367   -1.519786
    102          1           0       -4.352954   -1.040831    1.723424
    103          1           0       -4.513880   -2.850232    1.177737
    104          1           0       -5.358777   -2.183986   -0.974270
    105          1           0       -4.300813    0.997491    0.934926
    106          1           0       -5.911484    1.618533    0.521770
    107          1           0       -4.539551    1.969687   -0.475944
    108          1           0       -6.140342   -0.542955   -2.608998
    109          1           0       -6.139953    1.131885   -2.351640
    110          1           0       -8.120321    0.186695   -0.506070
    111          1           0       -8.261807   -0.837433   -2.026390
    112          1           0       -7.997155    1.972898   -2.776442
    113          1           0       -8.930388    2.045314   -1.372991
    114          1           0       -9.945530    0.127080   -3.443539
    115          1           0      -10.669064    1.598708   -4.892311
    116          1           0       -9.741356    2.851650   -4.041307
    117          1           0      -11.443562    2.434939   -3.615512
    118          1           0      -11.445495    1.690270   -1.501727
    119          1           0      -10.608557    0.112125   -1.089837
    120          1           0      -12.206635   -1.183176   -2.043642
    121          1           0      -12.242593   -0.143881   -3.479391
    122          1           0      -14.461514    0.204814   -2.654678
    123          1           0      -13.692586    1.490462   -1.918739
    124          1           0      -13.573368   -1.041062   -0.179758
    125          1           0      -15.754157   -1.442487   -0.115336
    126          1           0      -16.160859   -0.146034   -1.196395
    127          1           0      -16.025317    0.176594    0.523641
    128          1           0      -14.391339    1.654338    0.629378
    129          1           0      -12.736890    1.644069    0.178920
    130          1           0      -12.208832   -0.392023    1.682601
    131          1           0      -13.904801   -0.416984    2.089991
    132          1           0      -13.589558    1.224443    3.756813
    133          1           0      -12.583979    2.172927    2.588503
    134          1           0      -11.412877   -0.195156    4.114119
    135          1           0      -10.541581    1.326344    5.717633
    136          1           0      -12.305975    1.356525    5.849788
    137          1           0      -11.334670    2.617146    4.937871
    138          1           0      -10.568022    1.063315    1.923142
    139          1           0       -9.414447    0.668074    3.262745
    140          1           0      -10.065317    2.292118    3.169406
 ---------------------------------------------------------------------

 SCF Done:  E(RB-LYP) =  -3007.39074969     A.U. after   21 cycles

 Excitation energies and oscillator strengths:

 Excited State   1:      Singlet-A      1.7992 eV  689.09 nm  f=0.2759  <S**2>=0.000
     244 -> 247       -0.18166
     245 -> 248       -0.17659
     246 -> 247        0.67027
     246 <- 247       -0.14969
 This state for optimization and/or second-order correction.
 Total Energy, E(TD-HF/TD-DFT) =  -3007.32462863
 Copying the excited state density for this state as the 1-particle RhoCI density.

 Excited State   2:      Singlet-A      1.8717 eV  662.43 nm  f=0.0337  <S**2>=0.000
     244 -> 247        0.67080
     245 -> 247       -0.11679
     246 -> 247        0.18115

 Excited State   3:      Singlet-A      1.9748 eV  627.84 nm  f=0.0078  <S**2>=0.000
     243 -> 247        0.66515
     245 -> 247        0.21887

 Excited State   4:      Singlet-A      2.0473 eV  605.60 nm  f=0.0803  <S**2>=0.000
     243 -> 247       -0.23599
     244 -> 247        0.11050
     245 -> 247        0.60131
     246 -> 248        0.23764

 Excited State   5:      Singlet-A      2.3078 eV  537.23 nm  f=0.0002  <S**2>=0.000
     242 -> 247        0.70686

 The electronic state is 1-A.
 Alpha  occ. eigenvalues --  -46.27541 -18.82345 -18.80992 -18.77585 -18.76308
 Alpha  occ. eigenvalues --  -18.76207 -18.75645 -14.03762 -14.03474 -14.01247
 Alpha  occ. eigenvalues --  -14.00743 -10.04248 -10.03687 -10.00200 -10.00189
 Alpha  occ. eigenvalues --   -9.97555  -9.97104  -9.97005  -9.96940  -9.96769
 Alpha  occ. eigenvalues --   -9.96080  -9.96022  -9.95267  -9.95166  -9.95092
 Alpha  occ. eigenvalues --   -9.94855  -9.94449  -9.94164  -9.94083  -9.94051
 Alpha  occ. eigenvalues --   -9.93859  -9.93829  -9.93813  -9.93780  -9.93604
 Alpha  occ. eigenvalues --   -9.93592  -9.93422  -9.93264  -9.93089  -9.92998
 Alpha  occ. eigenvalues --   -9.92789  -9.92762  -9.92619  -9.92577  -9.92481
 Alpha  occ. eigenvalues --   -9.92436  -9.92313  -9.92309  -9.92222  -9.91998
 Alpha  occ. eigenvalues --   -9.91984  -9.91926  -9.91761  -9.91640  -9.91499
 Alpha  occ. eigenvalues --   -9.91480  -9.91396  -9.91382  -9.91177  -9.91057
 Alpha  occ. eigenvalues --   -9.91022  -9.90912  -9.90855  -9.90795  -9.90784
 Alpha  occ. eigenvalues --   -9.90573  -2.92086  -1.72529  -1.71968  -1.71789
 Alpha  occ. eigenvalues --   -0.99574  -0.96696  -0.91274  -0.91246  -0.90430
 Alpha  occ. eigenvalues --   -0.90067  -0.88348  -0.85885  -0.85345  -0.84611
 Alpha  occ. eigenvalues --   -0.74928  -0.73086  -0.72549  -0.72236  -0.71818
 Alpha  occ. eigenvalues --   -0.71677  -0.71409  -0.70935  -0.70787  -0.70440
 Alpha  occ. eigenvalues --   -0.69987  -0.68936  -0.67842  -0.67534  -0.66887
 Alpha  occ. eigenvalues --   -0.66047  -0.65921  -0.65575  -0.65072  -0.64460
 Alpha  occ. eigenvalues --   -0.63840  -0.62654  -0.62207  -0.61943  -0.60988
 Alpha  occ. eigenvalues --   -0.60489  -0.59979  -0.59756  -0.59279  -0.58811
 Alpha  occ. eigenvalues --   -0.58244  -0.57593  -0.56446  -0.55456  -0.55314
 Alpha  occ. eigenvalues --   -0.53676  -0.53571  -0.52763  -0.52555  -0.51319
 Alpha  occ. eigenvalues --   -0.51122  -0.51083  -0.50731  -0.50210  -0.50096
 Alpha  occ. eigenvalues --   -0.48904  -0.48609  -0.48585  -0.48147  -0.47197
 Alpha  occ. eigenvalues --   -0.46489  -0.46139  -0.45348  -0.45166  -0.44971
 Alpha  occ. eigenvalues --   -0.43928  -0.43838  -0.43473  -0.43202  -0.42386
 Alpha  occ. eigenvalues --   -0.42271  -0.41956  -0.41569  -0.41389  -0.41157
 Alpha  occ. eigenvalues --   -0.40869  -0.40674  -0.40269  -0.39957  -0.39837
 Alpha  occ. eigenvalues --   -0.39779  -0.39709  -0.39572  -0.39376  -0.39042
 Alpha  occ. eigenvalues --   -0.38861  -0.38718  -0.38522  -0.38309  -0.38155
 Alpha  occ. eigenvalues --   -0.37815  -0.37645  -0.37494  -0.37357  -0.37207
 Alpha  occ. eigenvalues --   -0.37136  -0.36954  -0.36807  -0.36781  -0.36674
 Alpha  occ. eigenvalues --   -0.36423  -0.36223  -0.36027  -0.35873  -0.35781
 Alpha  occ. eigenvalues --   -0.35482  -0.35282  -0.34986  -0.34935  -0.34863
 Alpha  occ. eigenvalues --   -0.34553  -0.34507  -0.34125  -0.33982  -0.33784
 Alpha  occ. eigenvalues --   -0.33677  -0.33498  -0.33331  -0.33139  -0.33067
 Alpha  occ. eigenvalues --   -0.32966  -0.32743  -0.32695  -0.32520  -0.32210
 Alpha  occ. eigenvalues --   -0.32156  -0.32039  -0.31623  -0.31438  -0.31337
 Alpha  occ. eigenvalues --   -0.31185  -0.30966  -0.30796  -0.30661  -0.30606
 Alpha  occ. eigenvalues --   -0.30342  -0.30292  -0.30108  -0.29990  -0.29927
 Alpha  occ. eigenvalues --   -0.29855  -0.29601  -0.29562  -0.29358  -0.29085
 Alpha  occ. eigenvalues --   -0.28900  -0.28752  -0.28385  -0.28152  -0.27823
 Alpha  occ. eigenvalues --   -0.27543  -0.27540  -0.27285  -0.26632  -0.26494
 Alpha  occ. eigenvalues --   -0.26119  -0.26100  -0.25926  -0.25639  -0.25468
 Alpha  occ. eigenvalues --   -0.24749  -0.24622  -0.24401  -0.24010  -0.23319
 Alpha  occ. eigenvalues --   -0.23278  -0.22784  -0.22384  -0.21790  -0.20824
 Alpha  occ. eigenvalues --   -0.20580  -0.20294  -0.18993  -0.18628  -0.17535
 Alpha  occ. eigenvalues --   -0.16012
 Alpha virt. eigenvalues --   -0.11814  -0.06794  -0.05972  -0.04796  -0.03442
 Alpha virt. eigenvalues --   -0.03137  -0.02150  -0.01910  -0.01603  -0.00242
 Alpha virt. eigenvalues --    0.01000   0.01358   0.02064   0.02409   0.02820

 Mulliken charges:
               1
     1  Mg   0.675700
     2  C    0.114017
     3  C   -0.074303
     4  C   -0.025909
     5  C   -0.105836
     6  N   -0.204453
     7  C   -0.098627
     8  C    0.036093
     9  C   -0.059307
    10  C    0.003917
    11  C    0.135379
    12  C    0.131094
    13  C    0.103500
    14  C    0.075710
    15  O   -0.180890
    16  O   -0.302367
    17  N   -0.236986
    18  C    0.139948
    19  C   -0.122607
    20  C   -0.014997
    21  C    0.121141
    22  C    0.159041
    23  C   -0.031947
    24  O   -0.170398
    25  C    0.138621
    26  N   -0.242794
    27  C   -0.026474
    28  C    0.002987
    29  C    0.077245
    30  C    0.028737
    31  C    0.136736
    32  C    0.039982
    33  C    0.056130
    34  N   -0.251442
    35  C    0.156386
    36  C   -0.199852
    37  C    0.166909
    38  C    0.003117
    39  C    0.165437
    40  C   -0.094242
    41  O   -0.136290
    42  C    0.002297
    43  C    0.113272
    44  O   -0.171076
    45  O   -0.221445
    46  C    0.212142
    47  C    0.336267
    48  C   -0.100329
    49  C   -0.094969
    50  C    0.124088
    51  C    0.103808
    52  C    0.091425
    53  C    0.072974
    54  C   -0.109955
    55  C    0.124477
    56  C    0.033655
    57  C    0.120966
    58  C    0.110338
    59  C   -0.064269
    60  C    0.108273
    61  C    0.095519
    62  C    0.035174
    63  C    0.111243
    64  C   -0.088365
    65  C    0.107740
    66  C    0.076953
    67  H   -0.068785
    68  H   -0.040359
    69  H   -0.041443
    70  H   -0.013779
    71  H   -0.022388
    72  H   -0.003427
    73  H    0.006190
    74  H    0.005798
    75  H   -0.008237
    76  H   -0.019216
    77  H    0.028202
    78  H    0.008276
    79  H   -0.008096
    80  H   -0.005905
    81  H   -0.015995
    82  H    0.004772
    83  H   -0.009526
    84  H    0.003882
    85  H   -0.015463
    86  H   -0.031332
    87  H   -0.019004
    88  H   -0.001325
    89  H    0.009773
    90  H   -0.020167
    91  H   -0.029372
    92  H   -0.018257
    93  H   -0.004245
    94  H    0.018254
    95  H   -0.004360
    96  H    0.010829
    97  H    0.002639
    98  H    0.008334
    99  H    0.027126
   100  H   -0.009449
   101  H   -0.005910
   102  H   -0.003450
   103  H   -0.013392
   104  H   -0.035341
   105  H   -0.010931
   106  H    0.003384
   107  H   -0.007356
   108  H   -0.030531
   109  H   -0.035018
   110  H   -0.005263
   111  H   -0.008934
   112  H   -0.034678
   113  H   -0.035503
   114  H   -0.049917
   115  H   -0.015585
   116  H   -0.019248
   117  H   -0.027328
   118  H   -0.007311
   119  H   -0.025179
   120  H   -0.031758
   121  H   -0.034541
   122  H   -0.051802
   123  H   -0.036475
   124  H   -0.030723
   125  H   -0.017060
   126  H   -0.020737
   127  H   -0.016054
   128  H   -0.036549
   129  H   -0.025913
   130  H   -0.020878
   131  H   -0.036823
   132  H   -0.036906
   133  H   -0.040985
   134  H   -0.037333
   135  H   -0.027015
   136  H   -0.007963
   137  H   -0.027304
   138  H    0.000876
   139  H   -0.017185
   140  H   -0.021632
 Sum of Mulliken charges =  -0.00000

 Dipole moment (field-independent basis, Debye):
    X=             -1.2727    Y=              3.0642    Z=              0.9316  Tot=              3.4463
 Quadrupole moment (field-independent basis, Debye-Ang):
   XX=           -375.9065   YY=           -415.7331   ZZ=           -416.3157
   XY=             -6.5691   XZ=             27.7929   YZ=              1.3990

 Normal termination of Gaussian 16 at Wed Apr 27 04:18:36 2022.
