 Gaussian 16, Revision A.03,
 Gaussian 16:  ES64L-G16RevA.03 25-Dec-2016

 -----------------------------------
 #p cam-b3lyp/Def2SVP td=(nstates=5)
 -----------------------------------

 --------------------------------------------------------
 step_1051_chromophore_25 TDDFT with cam-b3lyp functional
 --------------------------------------------------------
 Symbolic Z-matrix:
 Charge =  0 Multiplicity = 1

                         Standard orientation:
 ---------------------------------------------------------------------
 Center     Atomic      Atomic             Coordinates (Angstroms)
 Number     Number       Type             X           Y           Z
 ---------------------------------------------------------------------
      1         12           0        5.986489    0.394562   -0.001897
      2          6           0        3.518019   -2.161165   -0.102782
      3          6           0        3.515692    2.707800   -0.069373
      4          6           0        8.357483    2.679342   -0.336724
      5          6           0        8.474134   -2.243777    0.125996
      6          7           0        3.790839    0.185475   -0.008971
      7          6           0        3.000917   -0.886241   -0.001086
      8          6           0        1.459114   -0.500046    0.029908
      9          6           0        1.459130    1.093115   -0.023150
     10          6           0        3.038943    1.369950    0.023378
     11          6           0        0.698325    1.797073   -1.186203
     12          6           0        0.567498   -1.159181    1.214846
     13          6           0       -0.562199   -2.155236    0.741677
     14          6           0       -1.905880   -1.868615    1.462561
     15          8           0       -2.117150   -1.789611    2.662414
     16          8           0       -2.935049   -1.807889    0.476818
     17          7           0        5.877860    2.458091   -0.020369
     18          6           0        4.820093    3.209654   -0.069569
     19          6           0        5.196427    4.582789   -0.079098
     20          6           0        6.627740    4.543605   -0.289388
     21          6           0        6.987337    3.146013   -0.286981
     22          6           0        4.281919    5.772405    0.187828
     23          6           0        7.644498    5.754183   -0.398942
     24          8           0        8.862087    5.628629   -0.534724
     25          6           0        7.157843    7.126343   -0.265387
     26          7           0        8.078863    0.223600   -0.294642
     27          6           0        8.838879    1.380412   -0.305598
     28          6           0       10.321451    1.037684   -0.058148
     29          6           0       10.302567   -0.481519    0.316866
     30          6           0        8.886454   -0.863911    0.002710
     31          6           0       11.093818    1.399846   -1.364107
     32          6           0       10.619730   -0.724723    1.831078
     33          6           0        9.712007   -0.067881    2.948630
     34          7           0        6.073862   -1.753181    0.026176
     35          6           0        7.157753   -2.622325    0.041564
     36          6           0        6.664187   -3.993374    0.114389
     37          6           0        5.306076   -3.884605    0.059726
     38          6           0        4.933564   -2.515894   -0.023583
     39          6           0        7.456702   -5.222293    0.403519
     40          6           0        4.022200   -4.597184    0.030800
     41          8           0        3.738788   -5.792518    0.113278
     42          6           0        2.828355   -3.492351   -0.053228
     43          6           0        2.033126   -3.937367   -1.241621
     44          8           0        2.292919   -3.726450   -2.409312
     45          8           0        0.998435   -4.690771   -0.811781
     46          6           0        0.106955   -5.087484   -1.802933
     47          6           0       -4.286530   -1.808576    0.952412
     48          6           0       -5.095263   -1.375565   -0.291080
     49          6           0       -5.340389   -0.081669   -0.665451
     50          6           0       -4.999683    1.179785    0.118191
     51          6           0       -6.319046    0.194341   -1.825383
     52          6           0       -7.888842    0.077011   -1.565961
     53          6           0       -8.632058    1.343722   -2.152491
     54          6           0      -10.003640    1.053398   -2.873045
     55          6           0      -10.470280    2.049454   -3.920532
     56          6           0      -11.166749    0.688097   -1.828106
     57          6           0      -12.314541   -0.155478   -2.392265
     58          6           0      -13.694717    0.399684   -1.905191
     59          6           0      -14.041764   -0.104045   -0.482068
     60          6           0      -15.585057   -0.382161   -0.302329
     61          6           0      -13.547338    0.981093    0.478765
     62          6           0      -13.086967    0.244307    1.800471
     63          6           0      -12.765261    1.199211    3.042622
     64          6           0      -11.506154    0.860957    3.859430
     65          6           0      -11.464389    1.565029    5.189267
     66          6           0      -10.288160    1.244654    2.960703
     67          1           0        2.704071    3.428908    0.045931
     68          1           0        9.210710    3.360048   -0.344071
     69          1           0        9.203865   -2.930003    0.562366
     70          1           0        1.087768   -0.800485   -0.950010
     71          1           0        1.064392    1.531894    0.893438
     72          1           0        1.498829    1.828450   -1.925853
     73          1           0        0.392161    2.788141   -0.851706
     74          1           0       -0.080927    1.144803   -1.579512
     75          1           0        0.179972   -0.373767    1.863213
     76          1           0        1.321884   -1.625852    1.847818
     77          1           0       -0.236125   -3.168517    0.975493
     78          1           0       -0.806973   -2.158442   -0.320975
     79          1           0        4.225442    6.448321   -0.665484
     80          1           0        4.579387    6.486686    0.954953
     81          1           0        3.277082    5.446194    0.453325
     82          1           0        6.462239    7.424280   -1.050863
     83          1           0        7.907849    7.917709   -0.261795
     84          1           0        6.628350    7.149484    0.687341
     85          1           0       10.606312    1.699042    0.759920
     86          1           0       11.085099   -1.037215   -0.199663
     87          1           0       11.492404    0.458853   -1.742805
     88          1           0       11.944447    2.058879   -1.190265
     89          1           0       10.405539    1.848560   -2.079465
     90          1           0       11.664225   -0.515100    2.060777
     91          1           0       10.536775   -1.801014    1.982306
     92          1           0       10.283393    0.763490    3.359884
     93          1           0        9.606965   -0.667007    3.853328
     94          1           0        8.805654    0.365477    2.523365
     95          1           0        8.381909   -5.199812    0.978213
     96          1           0        7.543241   -5.762826   -0.538716
     97          1           0        6.812845   -5.819287    1.050363
     98          1           0        2.422404   -3.784170    0.914099
     99          1           0        0.471119   -5.194797   -2.824483
    100          1           0       -0.775143   -4.447253   -1.757528
    101          1           0       -0.363102   -6.029367   -1.519786
    102          1           0       -4.352954   -1.040831    1.723424
    103          1           0       -4.513880   -2.850232    1.177737
    104          1           0       -5.358777   -2.183986   -0.974270
    105          1           0       -4.300813    0.997491    0.934926
    106          1           0       -5.911484    1.618533    0.521770
    107          1           0       -4.539551    1.969687   -0.475944
    108          1           0       -6.140342   -0.542955   -2.608998
    109          1           0       -6.139953    1.131885   -2.351640
    110          1           0       -8.120321    0.186695   -0.506070
    111          1           0       -8.261807   -0.837433   -2.026390
    112          1           0       -7.997155    1.972898   -2.776442
    113          1           0       -8.930388    2.045314   -1.372991
    114          1           0       -9.945530    0.127080   -3.443539
    115          1           0      -10.669064    1.598708   -4.892311
    116          1           0       -9.741356    2.851650   -4.041307
    117          1           0      -11.443562    2.434939   -3.615512
    118          1           0      -11.445495    1.690270   -1.501727
    119          1           0      -10.608557    0.112125   -1.089837
    120          1           0      -12.206635   -1.183176   -2.043642
    121          1           0      -12.242593   -0.143881   -3.479391
    122          1           0      -14.461514    0.204814   -2.654678
    123          1           0      -13.692586    1.490462   -1.918739
    124          1           0      -13.573368   -1.041062   -0.179758
    125          1           0      -15.754157   -1.442487   -0.115336
    126          1           0      -16.160859   -0.146034   -1.196395
    127          1           0      -16.025317    0.176594    0.523641
    128          1           0      -14.391339    1.654338    0.629378
    129          1           0      -12.736890    1.644069    0.178920
    130          1           0      -12.208832   -0.392023    1.682601
    131          1           0      -13.904801   -0.416984    2.089991
    132          1           0      -13.589558    1.224443    3.756813
    133          1           0      -12.583979    2.172927    2.588503
    134          1           0      -11.412877   -0.195156    4.114119
    135          1           0      -10.541581    1.326344    5.717633
    136          1           0      -12.305975    1.356525    5.849788
    137          1           0      -11.334670    2.617146    4.937871
    138          1           0      -10.568022    1.063315    1.923142
    139          1           0       -9.414447    0.668074    3.262745
    140          1           0      -10.065317    2.292118    3.169406
 ---------------------------------------------------------------------

 SCF Done:  E(RCAM-B3LYP) =  -3007.17652009     A.U. after   19 cycles

 Excitation energies and oscillator strengths:

 Excited State   1:      Singlet-A      1.6826 eV  736.84 nm  f=0.3806  <S**2>=0.000
     245 -> 248       -0.17268
     246 -> 247        0.68832
     245 <- 248       -0.10905
 This state for optimization and/or second-order correction.
 Total Energy, E(TD-HF/TD-DFT) =  -3007.11468400
 Copying the excited state density for this state as the 1-particle RhoCI density.

 Excited State   2:      Singlet-A      2.2317 eV  555.56 nm  f=0.1262  <S**2>=0.000
     245 -> 247        0.64304
     246 -> 248        0.28318

 Excited State   3:      Singlet-A      3.3729 eV  367.59 nm  f=0.0091  <S**2>=0.000
     242 -> 247        0.56265
     244 -> 247       -0.36500
     246 -> 248       -0.14226

 Excited State   4:      Singlet-A      3.4437 eV  360.03 nm  f=0.0043  <S**2>=0.000
     239 -> 247        0.10746
     240 -> 247        0.54661
     240 -> 249       -0.27943
     240 -> 250        0.13940
     244 -> 247        0.25245

 Excited State   5:      Singlet-A      3.4920 eV  355.05 nm  f=0.0355  <S**2>=0.000
     240 -> 247       -0.22799
     240 -> 249        0.10036
     242 -> 247        0.29533
     244 -> 247        0.50377
     246 -> 248       -0.26592

 The electronic state is 1-A.
 Alpha  occ. eigenvalues --  -46.89079 -19.25437 -19.23842 -19.20680 -19.19707
 Alpha  occ. eigenvalues --  -19.19615 -19.18624 -14.42564 -14.42449 -14.39496
 Alpha  occ. eigenvalues --  -14.39322 -10.39762 -10.39315 -10.35924 -10.35189
 Alpha  occ. eigenvalues --  -10.31757 -10.31632 -10.31602 -10.31465 -10.30732
 Alpha  occ. eigenvalues --  -10.30299 -10.30054 -10.29864 -10.29823 -10.29095
 Alpha  occ. eigenvalues --  -10.28991 -10.28486 -10.28477 -10.28417 -10.28193
 Alpha  occ. eigenvalues --  -10.28187 -10.28136 -10.28112 -10.28018 -10.27962
 Alpha  occ. eigenvalues --  -10.27449 -10.27316 -10.27103 -10.27090 -10.27075
 Alpha  occ. eigenvalues --  -10.26897 -10.26462 -10.26445 -10.26429 -10.26334
 Alpha  occ. eigenvalues --  -10.26201 -10.26179 -10.26056 -10.25946 -10.25838
 Alpha  occ. eigenvalues --  -10.25733 -10.25712 -10.25565 -10.25487 -10.25403
 Alpha  occ. eigenvalues --  -10.25157 -10.25152 -10.25122 -10.24853 -10.24744
 Alpha  occ. eigenvalues --  -10.24738 -10.24556 -10.24520 -10.24401 -10.24377
 Alpha  occ. eigenvalues --  -10.24161  -3.17527  -1.92449  -1.91986  -1.91823
 Alpha  occ. eigenvalues --   -1.18317  -1.15190  -1.09921  -1.09447  -1.08664
 Alpha  occ. eigenvalues --   -1.07977  -1.05789  -1.03707  -1.02999  -1.02262
 Alpha  occ. eigenvalues --   -0.92225  -0.89916  -0.89323  -0.88933  -0.88531
 Alpha  occ. eigenvalues --   -0.88327  -0.88002  -0.87631  -0.87396  -0.87123
 Alpha  occ. eigenvalues --   -0.86430  -0.85300  -0.84113  -0.83729  -0.82989
 Alpha  occ. eigenvalues --   -0.82080  -0.81935  -0.81491  -0.80967  -0.80280
 Alpha  occ. eigenvalues --   -0.79628  -0.78324  -0.77796  -0.77422  -0.76465
 Alpha  occ. eigenvalues --   -0.75837  -0.75329  -0.75022  -0.74530  -0.74055
 Alpha  occ. eigenvalues --   -0.73408  -0.72605  -0.71292  -0.70254  -0.70002
 Alpha  occ. eigenvalues --   -0.68331  -0.68173  -0.67043  -0.66923  -0.65390
 Alpha  occ. eigenvalues --   -0.65303  -0.65193  -0.64809  -0.64178  -0.64154
 Alpha  occ. eigenvalues --   -0.62788  -0.62497  -0.62358  -0.62023  -0.60721
 Alpha  occ. eigenvalues --   -0.59996  -0.59915  -0.59055  -0.58893  -0.58390
 Alpha  occ. eigenvalues --   -0.57326  -0.57124  -0.56896  -0.56396  -0.55755
 Alpha  occ. eigenvalues --   -0.55374  -0.55099  -0.54869  -0.54377  -0.54012
 Alpha  occ. eigenvalues --   -0.53839  -0.53437  -0.53288  -0.52741  -0.52450
 Alpha  occ. eigenvalues --   -0.52418  -0.52315  -0.52293  -0.51903  -0.51801
 Alpha  occ. eigenvalues --   -0.51535  -0.51270  -0.51093  -0.50707  -0.50498
 Alpha  occ. eigenvalues --   -0.50169  -0.50079  -0.49853  -0.49834  -0.49551
 Alpha  occ. eigenvalues --   -0.49527  -0.49177  -0.49066  -0.48965  -0.48940
 Alpha  occ. eigenvalues --   -0.48870  -0.48616  -0.48365  -0.48259  -0.47817
 Alpha  occ. eigenvalues --   -0.47401  -0.47322  -0.47042  -0.46902  -0.46748
 Alpha  occ. eigenvalues --   -0.46417  -0.46326  -0.45952  -0.45746  -0.45660
 Alpha  occ. eigenvalues --   -0.45387  -0.45243  -0.44923  -0.44827  -0.44805
 Alpha  occ. eigenvalues --   -0.44745  -0.44402  -0.44267  -0.44192  -0.44108
 Alpha  occ. eigenvalues --   -0.43653  -0.43602  -0.43387  -0.43253  -0.42972
 Alpha  occ. eigenvalues --   -0.42747  -0.42624  -0.42329  -0.42103  -0.41937
 Alpha  occ. eigenvalues --   -0.41764  -0.41623  -0.41454  -0.41353  -0.41249
 Alpha  occ. eigenvalues --   -0.41101  -0.40906  -0.40738  -0.40550  -0.40172
 Alpha  occ. eigenvalues --   -0.40101  -0.39779  -0.39653  -0.39087  -0.38977
 Alpha  occ. eigenvalues --   -0.38470  -0.38441  -0.38079  -0.37654  -0.37220
 Alpha  occ. eigenvalues --   -0.36847  -0.36822  -0.36593  -0.36411  -0.36337
 Alpha  occ. eigenvalues --   -0.36204  -0.36148  -0.34900  -0.34695  -0.34640
 Alpha  occ. eigenvalues --   -0.34288  -0.33537  -0.33326  -0.31364  -0.31010
 Alpha  occ. eigenvalues --   -0.30677  -0.30357  -0.30033  -0.29794  -0.24332
 Alpha  occ. eigenvalues --   -0.21292
 Alpha virt. eigenvalues --   -0.09006  -0.01584   0.00602   0.02355   0.03327
 Alpha virt. eigenvalues --    0.04099   0.04515   0.05040   0.05361   0.06173
 Alpha virt. eigenvalues --    0.08009   0.08086   0.08419   0.08823   0.09099

 Mulliken charges:
               1
     1  Mg   0.809375
     2  C    0.085016
     3  C   -0.081400
     4  C   -0.037421
     5  C   -0.104677
     6  N   -0.279018
     7  C   -0.050084
     8  C   -0.010739
     9  C   -0.099398
    10  C    0.019589
    11  C    0.074538
    12  C    0.073477
    13  C    0.035334
    14  C    0.161823
    15  O   -0.221068
    16  O   -0.366785
    17  N   -0.326850
    18  C    0.137319
    19  C   -0.128368
    20  C   -0.079983
    21  C    0.136401
    22  C    0.103870
    23  C    0.047525
    24  O   -0.213297
    25  C    0.054068
    26  N   -0.310741
    27  C   -0.013656
    28  C   -0.052910
    29  C    0.015641
    30  C    0.044988
    31  C    0.079872
    32  C   -0.008407
    33  C   -0.004809
    34  N   -0.338922
    35  C    0.160637
    36  C   -0.187776
    37  C    0.079889
    38  C    0.042094
    39  C    0.108613
    40  C    0.014743
    41  O   -0.172291
    42  C   -0.076722
    43  C    0.199690
    44  O   -0.207880
    45  O   -0.282788
    46  C    0.168363
    47  C    0.297227
    48  C   -0.121027
    49  C   -0.117894
    50  C    0.065304
    51  C    0.046720
    52  C    0.037911
    53  C    0.023148
    54  C   -0.158729
    55  C    0.063183
    56  C   -0.011530
    57  C    0.061563
    58  C    0.054785
    59  C   -0.122333
    60  C    0.051299
    61  C    0.044706
    62  C   -0.015546
    63  C    0.056863
    64  C   -0.148758
    65  C    0.048746
    66  C    0.024962
    67  H   -0.035825
    68  H    0.000736
    69  H   -0.007630
    70  H    0.019664
    71  H    0.010656
    72  H    0.022703
    73  H    0.028492
    74  H    0.029164
    75  H    0.024351
    76  H    0.012263
    77  H    0.058427
    78  H    0.040121
    79  H    0.016724
    80  H    0.019403
    81  H    0.010004
    82  H    0.031947
    83  H    0.025585
    84  H    0.028192
    85  H    0.019104
    86  H    0.006251
    87  H    0.004303
    88  H    0.022874
    89  H    0.035554
    90  H    0.009644
    91  H   -0.002892
    92  H    0.005751
    93  H    0.021046
    94  H    0.037222
    95  H    0.023139
    96  H    0.039445
    97  H    0.030385
    98  H    0.049455
    99  H    0.054256
   100  H    0.011144
   101  H    0.018647
   102  H    0.026225
   103  H    0.016175
   104  H   -0.002600
   105  H    0.012271
   106  H    0.025579
   107  H    0.017668
   108  H    0.000063
   109  H   -0.005316
   110  H    0.019510
   111  H    0.017874
   112  H   -0.006831
   113  H   -0.008512
   114  H   -0.018332
   115  H    0.009085
   116  H    0.005651
   117  H   -0.004245
   118  H    0.015234
   119  H   -0.000360
   120  H   -0.002053
   121  H   -0.005181
   122  H   -0.019764
   123  H   -0.008839
   124  H    0.000929
   125  H    0.007062
   126  H    0.003813
   127  H    0.007498
   128  H   -0.007027
   129  H   -0.000229
   130  H    0.004830
   131  H   -0.008631
   132  H   -0.007845
   133  H   -0.013299
   134  H   -0.006848
   135  H   -0.000592
   136  H    0.016792
   137  H   -0.004948
   138  H    0.018067
   139  H    0.007578
   140  H    0.001761
 Sum of Mulliken charges =  -0.00000

 Dipole moment (field-independent basis, Debye):
    X=             -1.2710    Y=              2.7708    Z=              1.0524  Tot=              3.2250
 Quadrupole moment (field-independent basis, Debye-Ang):
   XX=           -373.9803   YY=           -411.8186   ZZ=           -416.7471
   XY=             -9.5008   XZ=             29.4362   YZ=              1.5120

 Normal termination of Gaussian 16 at Wed Apr 27 03:23:12 2022.
