 Gaussian 16, Revision A.03,
 Gaussian 16:  ES64L-G16RevA.03 25-Dec-2016

 ---------------------------------
 #p PBE1PBE/Def2SVP td=(nstates=5)
 ---------------------------------

 ------------------------------------------------------
 step_1051_chromophore_25 TDDFT with PBE1PBE functional
 ------------------------------------------------------
 Symbolic Z-matrix:
 Charge =  0 Multiplicity = 1

                         Standard orientation:
 ---------------------------------------------------------------------
 Center     Atomic      Atomic             Coordinates (Angstroms)
 Number     Number       Type             X           Y           Z
 ---------------------------------------------------------------------
      1         12           0        5.986489    0.394562   -0.001897
      2          6           0        3.518019   -2.161165   -0.102782
      3          6           0        3.515692    2.707800   -0.069373
      4          6           0        8.357483    2.679342   -0.336724
      5          6           0        8.474134   -2.243777    0.125996
      6          7           0        3.790839    0.185475   -0.008971
      7          6           0        3.000917   -0.886241   -0.001086
      8          6           0        1.459114   -0.500046    0.029908
      9          6           0        1.459130    1.093115   -0.023150
     10          6           0        3.038943    1.369950    0.023378
     11          6           0        0.698325    1.797073   -1.186203
     12          6           0        0.567498   -1.159181    1.214846
     13          6           0       -0.562199   -2.155236    0.741677
     14          6           0       -1.905880   -1.868615    1.462561
     15          8           0       -2.117150   -1.789611    2.662414
     16          8           0       -2.935049   -1.807889    0.476818
     17          7           0        5.877860    2.458091   -0.020369
     18          6           0        4.820093    3.209654   -0.069569
     19          6           0        5.196427    4.582789   -0.079098
     20          6           0        6.627740    4.543605   -0.289388
     21          6           0        6.987337    3.146013   -0.286981
     22          6           0        4.281919    5.772405    0.187828
     23          6           0        7.644498    5.754183   -0.398942
     24          8           0        8.862087    5.628629   -0.534724
     25          6           0        7.157843    7.126343   -0.265387
     26          7           0        8.078863    0.223600   -0.294642
     27          6           0        8.838879    1.380412   -0.305598
     28          6           0       10.321451    1.037684   -0.058148
     29          6           0       10.302567   -0.481519    0.316866
     30          6           0        8.886454   -0.863911    0.002710
     31          6           0       11.093818    1.399846   -1.364107
     32          6           0       10.619730   -0.724723    1.831078
     33          6           0        9.712007   -0.067881    2.948630
     34          7           0        6.073862   -1.753181    0.026176
     35          6           0        7.157753   -2.622325    0.041564
     36          6           0        6.664187   -3.993374    0.114389
     37          6           0        5.306076   -3.884605    0.059726
     38          6           0        4.933564   -2.515894   -0.023583
     39          6           0        7.456702   -5.222293    0.403519
     40          6           0        4.022200   -4.597184    0.030800
     41          8           0        3.738788   -5.792518    0.113278
     42          6           0        2.828355   -3.492351   -0.053228
     43          6           0        2.033126   -3.937367   -1.241621
     44          8           0        2.292919   -3.726450   -2.409312
     45          8           0        0.998435   -4.690771   -0.811781
     46          6           0        0.106955   -5.087484   -1.802933
     47          6           0       -4.286530   -1.808576    0.952412
     48          6           0       -5.095263   -1.375565   -0.291080
     49          6           0       -5.340389   -0.081669   -0.665451
     50          6           0       -4.999683    1.179785    0.118191
     51          6           0       -6.319046    0.194341   -1.825383
     52          6           0       -7.888842    0.077011   -1.565961
     53          6           0       -8.632058    1.343722   -2.152491
     54          6           0      -10.003640    1.053398   -2.873045
     55          6           0      -10.470280    2.049454   -3.920532
     56          6           0      -11.166749    0.688097   -1.828106
     57          6           0      -12.314541   -0.155478   -2.392265
     58          6           0      -13.694717    0.399684   -1.905191
     59          6           0      -14.041764   -0.104045   -0.482068
     60          6           0      -15.585057   -0.382161   -0.302329
     61          6           0      -13.547338    0.981093    0.478765
     62          6           0      -13.086967    0.244307    1.800471
     63          6           0      -12.765261    1.199211    3.042622
     64          6           0      -11.506154    0.860957    3.859430
     65          6           0      -11.464389    1.565029    5.189267
     66          6           0      -10.288160    1.244654    2.960703
     67          1           0        2.704071    3.428908    0.045931
     68          1           0        9.210710    3.360048   -0.344071
     69          1           0        9.203865   -2.930003    0.562366
     70          1           0        1.087768   -0.800485   -0.950010
     71          1           0        1.064392    1.531894    0.893438
     72          1           0        1.498829    1.828450   -1.925853
     73          1           0        0.392161    2.788141   -0.851706
     74          1           0       -0.080927    1.144803   -1.579512
     75          1           0        0.179972   -0.373767    1.863213
     76          1           0        1.321884   -1.625852    1.847818
     77          1           0       -0.236125   -3.168517    0.975493
     78          1           0       -0.806973   -2.158442   -0.320975
     79          1           0        4.225442    6.448321   -0.665484
     80          1           0        4.579387    6.486686    0.954953
     81          1           0        3.277082    5.446194    0.453325
     82          1           0        6.462239    7.424280   -1.050863
     83          1           0        7.907849    7.917709   -0.261795
     84          1           0        6.628350    7.149484    0.687341
     85          1           0       10.606312    1.699042    0.759920
     86          1           0       11.085099   -1.037215   -0.199663
     87          1           0       11.492404    0.458853   -1.742805
     88          1           0       11.944447    2.058879   -1.190265
     89          1           0       10.405539    1.848560   -2.079465
     90          1           0       11.664225   -0.515100    2.060777
     91          1           0       10.536775   -1.801014    1.982306
     92          1           0       10.283393    0.763490    3.359884
     93          1           0        9.606965   -0.667007    3.853328
     94          1           0        8.805654    0.365477    2.523365
     95          1           0        8.381909   -5.199812    0.978213
     96          1           0        7.543241   -5.762826   -0.538716
     97          1           0        6.812845   -5.819287    1.050363
     98          1           0        2.422404   -3.784170    0.914099
     99          1           0        0.471119   -5.194797   -2.824483
    100          1           0       -0.775143   -4.447253   -1.757528
    101          1           0       -0.363102   -6.029367   -1.519786
    102          1           0       -4.352954   -1.040831    1.723424
    103          1           0       -4.513880   -2.850232    1.177737
    104          1           0       -5.358777   -2.183986   -0.974270
    105          1           0       -4.300813    0.997491    0.934926
    106          1           0       -5.911484    1.618533    0.521770
    107          1           0       -4.539551    1.969687   -0.475944
    108          1           0       -6.140342   -0.542955   -2.608998
    109          1           0       -6.139953    1.131885   -2.351640
    110          1           0       -8.120321    0.186695   -0.506070
    111          1           0       -8.261807   -0.837433   -2.026390
    112          1           0       -7.997155    1.972898   -2.776442
    113          1           0       -8.930388    2.045314   -1.372991
    114          1           0       -9.945530    0.127080   -3.443539
    115          1           0      -10.669064    1.598708   -4.892311
    116          1           0       -9.741356    2.851650   -4.041307
    117          1           0      -11.443562    2.434939   -3.615512
    118          1           0      -11.445495    1.690270   -1.501727
    119          1           0      -10.608557    0.112125   -1.089837
    120          1           0      -12.206635   -1.183176   -2.043642
    121          1           0      -12.242593   -0.143881   -3.479391
    122          1           0      -14.461514    0.204814   -2.654678
    123          1           0      -13.692586    1.490462   -1.918739
    124          1           0      -13.573368   -1.041062   -0.179758
    125          1           0      -15.754157   -1.442487   -0.115336
    126          1           0      -16.160859   -0.146034   -1.196395
    127          1           0      -16.025317    0.176594    0.523641
    128          1           0      -14.391339    1.654338    0.629378
    129          1           0      -12.736890    1.644069    0.178920
    130          1           0      -12.208832   -0.392023    1.682601
    131          1           0      -13.904801   -0.416984    2.089991
    132          1           0      -13.589558    1.224443    3.756813
    133          1           0      -12.583979    2.172927    2.588503
    134          1           0      -11.412877   -0.195156    4.114119
    135          1           0      -10.541581    1.326344    5.717633
    136          1           0      -12.305975    1.356525    5.849788
    137          1           0      -11.334670    2.617146    4.937871
    138          1           0      -10.568022    1.063315    1.923142
    139          1           0       -9.414447    0.668074    3.262745
    140          1           0      -10.065317    2.292118    3.169406
 ---------------------------------------------------------------------

 SCF Done:  E(RPBE1PBE) =  -3005.36499349     A.U. after   15 cycles

 Excitation energies and oscillator strengths:

 Excited State   1:      Singlet-A      1.8407 eV  673.55 nm  f=0.3662  <S**2>=0.000
     245 -> 248       -0.16763
     246 -> 247        0.69564
     246 <- 247       -0.11313
 This state for optimization and/or second-order correction.
 Total Energy, E(TD-HF/TD-DFT) =  -3005.29734735
 Copying the excited state density for this state as the 1-particle RhoCI density.

 Excited State   2:      Singlet-A      2.2440 eV  552.52 nm  f=0.1232  <S**2>=0.000
     245 -> 247        0.65296
     246 -> 248        0.26068

 Excited State   3:      Singlet-A      2.9648 eV  418.18 nm  f=0.0001  <S**2>=0.000
     240 -> 247       -0.26784
     241 -> 247        0.61805
     241 -> 249       -0.13766

 Excited State   4:      Singlet-A      3.0538 eV  406.00 nm  f=0.0002  <S**2>=0.000
     240 -> 247       -0.20492
     242 -> 247       -0.44768
     243 -> 247        0.49433

 Excited State   5:      Singlet-A      3.0587 eV  405.35 nm  f=0.0005  <S**2>=0.000
     242 -> 247        0.51347
     242 -> 249        0.10638
     243 -> 247        0.44712

 The electronic state is 1-A.
 Alpha  occ. eigenvalues --  -46.92463 -19.25968 -19.24572 -19.20930 -19.19765
 Alpha  occ. eigenvalues --  -19.19721 -19.18997 -14.42144 -14.41930 -14.39200
 Alpha  occ. eigenvalues --  -14.38910 -10.36804 -10.36191 -10.32962 -10.32480
 Alpha  occ. eigenvalues --  -10.29407 -10.29360 -10.29221 -10.28983 -10.28197
 Alpha  occ. eigenvalues --  -10.27966 -10.27879 -10.27337 -10.27329 -10.26903
 Alpha  occ. eigenvalues --  -10.26873 -10.26342 -10.25946 -10.25927 -10.25925
 Alpha  occ. eigenvalues --  -10.25902 -10.25858 -10.25781 -10.25715 -10.25661
 Alpha  occ. eigenvalues --  -10.25312 -10.24854 -10.24829 -10.24816 -10.24723
 Alpha  occ. eigenvalues --  -10.24697 -10.24179 -10.23942 -10.23934 -10.23768
 Alpha  occ. eigenvalues --  -10.23708 -10.23661 -10.23593 -10.23436 -10.23351
 Alpha  occ. eigenvalues --  -10.23336 -10.23139 -10.23125 -10.23105 -10.23100
 Alpha  occ. eigenvalues --  -10.22792 -10.22704 -10.22691 -10.22446 -10.22334
 Alpha  occ. eigenvalues --  -10.22319 -10.22113 -10.21937 -10.21801 -10.21768
 Alpha  occ. eigenvalues --  -10.21532  -3.14499  -1.87362  -1.86876  -1.86716
 Alpha  occ. eigenvalues --   -1.13017  -1.09978  -1.04494  -1.04316  -1.03358
 Alpha  occ. eigenvalues --   -1.02847  -1.00707  -0.98237  -0.97578  -0.96828
 Alpha  occ. eigenvalues --   -0.86455  -0.83992  -0.83448  -0.83240  -0.82676
 Alpha  occ. eigenvalues --   -0.82536  -0.82302  -0.81871  -0.81523  -0.81375
 Alpha  occ. eigenvalues --   -0.80832  -0.79554  -0.78362  -0.77913  -0.77250
 Alpha  occ. eigenvalues --   -0.76334  -0.76135  -0.75763  -0.75288  -0.74496
 Alpha  occ. eigenvalues --   -0.73764  -0.72656  -0.72076  -0.71745  -0.70774
 Alpha  occ. eigenvalues --   -0.70005  -0.69422  -0.69382  -0.68680  -0.68207
 Alpha  occ. eigenvalues --   -0.67786  -0.66923  -0.65723  -0.64548  -0.64322
 Alpha  occ. eigenvalues --   -0.62748  -0.62410  -0.61601  -0.61159  -0.59875
 Alpha  occ. eigenvalues --   -0.59678  -0.59517  -0.59318  -0.58680  -0.58277
 Alpha  occ. eigenvalues --   -0.57284  -0.56897  -0.56654  -0.56196  -0.55388
 Alpha  occ. eigenvalues --   -0.54378  -0.54335  -0.53463  -0.53395  -0.52953
 Alpha  occ. eigenvalues --   -0.51920  -0.51442  -0.51289  -0.51019  -0.50196
 Alpha  occ. eigenvalues --   -0.49922  -0.49614  -0.49386  -0.48750  -0.48519
 Alpha  occ. eigenvalues --   -0.48480  -0.47874  -0.47827  -0.47326  -0.46975
 Alpha  occ. eigenvalues --   -0.46859  -0.46822  -0.46746  -0.46507  -0.46353
 Alpha  occ. eigenvalues --   -0.45986  -0.45758  -0.45592  -0.45260  -0.45083
 Alpha  occ. eigenvalues --   -0.44732  -0.44602  -0.44489  -0.44392  -0.44201
 Alpha  occ. eigenvalues --   -0.44102  -0.43840  -0.43648  -0.43558  -0.43513
 Alpha  occ. eigenvalues --   -0.43460  -0.43298  -0.43055  -0.42888  -0.42437
 Alpha  occ. eigenvalues --   -0.41992  -0.41908  -0.41771  -0.41573  -0.41449
 Alpha  occ. eigenvalues --   -0.41167  -0.41038  -0.40654  -0.40451  -0.40362
 Alpha  occ. eigenvalues --   -0.40171  -0.40028  -0.39586  -0.39569  -0.39513
 Alpha  occ. eigenvalues --   -0.39366  -0.39130  -0.39009  -0.38859  -0.38843
 Alpha  occ. eigenvalues --   -0.38344  -0.38249  -0.38044  -0.38016  -0.37801
 Alpha  occ. eigenvalues --   -0.37616  -0.37431  -0.37147  -0.36815  -0.36747
 Alpha  occ. eigenvalues --   -0.36671  -0.36469  -0.36323  -0.36209  -0.36147
 Alpha  occ. eigenvalues --   -0.35874  -0.35776  -0.35530  -0.35418  -0.35060
 Alpha  occ. eigenvalues --   -0.34879  -0.34571  -0.34447  -0.33948  -0.33868
 Alpha  occ. eigenvalues --   -0.33429  -0.33237  -0.32891  -0.32688  -0.32089
 Alpha  occ. eigenvalues --   -0.31956  -0.31603  -0.31434  -0.31424  -0.31233
 Alpha  occ. eigenvalues --   -0.31093  -0.31027  -0.29848  -0.29663  -0.29481
 Alpha  occ. eigenvalues --   -0.29265  -0.28872  -0.28519  -0.26996  -0.25908
 Alpha  occ. eigenvalues --   -0.25769  -0.25579  -0.25531  -0.25371  -0.21251
 Alpha  occ. eigenvalues --   -0.18941
 Alpha virt. eigenvalues --   -0.11446  -0.05115  -0.03641  -0.02142  -0.00424
 Alpha virt. eigenvalues --   -0.00017   0.00490   0.00851   0.00961   0.02501
 Alpha virt. eigenvalues --    0.03948   0.04307   0.04874   0.05306   0.05750

 Mulliken charges:
               1
     1  Mg   0.959779
     2  C    0.078886
     3  C   -0.071404
     4  C   -0.021633
     5  C   -0.081044
     6  N   -0.382648
     7  C    0.016645
     8  C   -0.070807
     9  C   -0.164025
    10  C    0.054976
    11  C    0.008828
    12  C    0.021409
    13  C   -0.043177
    14  C    0.227286
    15  O   -0.253986
    16  O   -0.395596
    17  N   -0.453449
    18  C    0.153710
    19  C   -0.146101
    20  C   -0.127401
    21  C    0.166746
    22  C    0.046007
    23  C    0.094951
    24  O   -0.249161
    25  C   -0.018817
    26  N   -0.413702
    27  C    0.012856
    28  C   -0.126404
    29  C   -0.064017
    30  C    0.077598
    31  C    0.024936
    32  C   -0.064132
    33  C   -0.080693
    34  N   -0.458532
    35  C    0.171255
    36  C   -0.205970
    37  C    0.022682
    38  C    0.091751
    39  C    0.055470
    40  C    0.112676
    41  O   -0.216736
    42  C   -0.186722
    43  C    0.290628
    44  O   -0.245748
    45  O   -0.317154
    46  C    0.113555
    47  C    0.252367
    48  C   -0.135001
    49  C   -0.157538
    50  C    0.002529
    51  C   -0.013415
    52  C   -0.026454
    53  C   -0.031044
    54  C   -0.238845
    55  C    0.003499
    56  C   -0.067810
    57  C   -0.004784
    58  C   -0.003038
    59  C   -0.207518
    60  C   -0.004694
    61  C   -0.008901
    62  C   -0.079642
    63  C    0.000218
    64  C   -0.242116
    65  C   -0.012153
    66  C   -0.039414
    67  H   -0.002337
    68  H    0.032212
    69  H    0.021205
    70  H    0.059094
    71  H    0.048320
    72  H    0.052460
    73  H    0.054482
    74  H    0.058020
    75  H    0.054325
    76  H    0.045700
    77  H    0.091883
    78  H    0.071569
    79  H    0.045738
    80  H    0.047281
    81  H    0.038275
    82  H    0.058832
    83  H    0.053714
    84  H    0.055560
    85  H    0.055452
    86  H    0.041426
    87  H    0.033118
    88  H    0.050333
    89  H    0.063033
    90  H    0.041987
    91  H    0.031642
    92  H    0.033301
    93  H    0.048538
    94  H    0.069569
    95  H    0.047196
    96  H    0.066873
    97  H    0.057193
    98  H    0.086173
    99  H    0.075109
   100  H    0.033902
   101  H    0.041307
   102  H    0.052257
   103  H    0.044455
   104  H    0.026444
   105  H    0.039927
   106  H    0.053246
   107  H    0.045183
   108  H    0.033502
   109  H    0.026195
   110  H    0.051731
   111  H    0.048539
   112  H    0.024280
   113  H    0.025028
   114  H    0.022035
   115  H    0.035930
   116  H    0.033125
   117  H    0.023908
   118  H    0.045479
   119  H    0.036601
   120  H    0.031367
   121  H    0.027426
   122  H    0.012708
   123  H    0.024387
   124  H    0.037467
   125  H    0.034466
   126  H    0.030603
   127  H    0.033696
   128  H    0.026036
   129  H    0.032937
   130  H    0.036596
   131  H    0.026436
   132  H    0.024871
   133  H    0.020487
   134  H    0.031128
   135  H    0.028386
   136  H    0.044034
   137  H    0.022827
   138  H    0.048755
   139  H    0.035926
   140  H    0.029292
 Sum of Mulliken charges =  -0.00000

 Dipole moment (field-independent basis, Debye):
    X=             -1.2923    Y=              3.2509    Z=              1.0904  Tot=              3.6644
 Quadrupole moment (field-independent basis, Debye-Ang):
   XX=           -368.0469   YY=           -408.4627   ZZ=           -414.2431
   XY=             -7.3176   XZ=             30.2207   YZ=              1.4136

 Normal termination of Gaussian 16 at Wed Apr 27 03:39:50 2022.
