 Gaussian 16, Revision A.03,
 Gaussian 16:  ES64L-G16RevA.03 25-Dec-2016

 --------------------------------
 #p wB97XD/Def2SVP td=(nstates=5)
 --------------------------------

 -----------------------------------------------------
 step_1051_chromophore_25 TDDFT with wB97XD functional
 -----------------------------------------------------
 Symbolic Z-matrix:
 Charge =  0 Multiplicity = 1

                         Standard orientation:
 ---------------------------------------------------------------------
 Center     Atomic      Atomic             Coordinates (Angstroms)
 Number     Number       Type             X           Y           Z
 ---------------------------------------------------------------------
      1         12           0        5.986489    0.394562   -0.001897
      2          6           0        3.518019   -2.161165   -0.102782
      3          6           0        3.515692    2.707800   -0.069373
      4          6           0        8.357483    2.679342   -0.336724
      5          6           0        8.474134   -2.243777    0.125996
      6          7           0        3.790839    0.185475   -0.008971
      7          6           0        3.000917   -0.886241   -0.001086
      8          6           0        1.459114   -0.500046    0.029908
      9          6           0        1.459130    1.093115   -0.023150
     10          6           0        3.038943    1.369950    0.023378
     11          6           0        0.698325    1.797073   -1.186203
     12          6           0        0.567498   -1.159181    1.214846
     13          6           0       -0.562199   -2.155236    0.741677
     14          6           0       -1.905880   -1.868615    1.462561
     15          8           0       -2.117150   -1.789611    2.662414
     16          8           0       -2.935049   -1.807889    0.476818
     17          7           0        5.877860    2.458091   -0.020369
     18          6           0        4.820093    3.209654   -0.069569
     19          6           0        5.196427    4.582789   -0.079098
     20          6           0        6.627740    4.543605   -0.289388
     21          6           0        6.987337    3.146013   -0.286981
     22          6           0        4.281919    5.772405    0.187828
     23          6           0        7.644498    5.754183   -0.398942
     24          8           0        8.862087    5.628629   -0.534724
     25          6           0        7.157843    7.126343   -0.265387
     26          7           0        8.078863    0.223600   -0.294642
     27          6           0        8.838879    1.380412   -0.305598
     28          6           0       10.321451    1.037684   -0.058148
     29          6           0       10.302567   -0.481519    0.316866
     30          6           0        8.886454   -0.863911    0.002710
     31          6           0       11.093818    1.399846   -1.364107
     32          6           0       10.619730   -0.724723    1.831078
     33          6           0        9.712007   -0.067881    2.948630
     34          7           0        6.073862   -1.753181    0.026176
     35          6           0        7.157753   -2.622325    0.041564
     36          6           0        6.664187   -3.993374    0.114389
     37          6           0        5.306076   -3.884605    0.059726
     38          6           0        4.933564   -2.515894   -0.023583
     39          6           0        7.456702   -5.222293    0.403519
     40          6           0        4.022200   -4.597184    0.030800
     41          8           0        3.738788   -5.792518    0.113278
     42          6           0        2.828355   -3.492351   -0.053228
     43          6           0        2.033126   -3.937367   -1.241621
     44          8           0        2.292919   -3.726450   -2.409312
     45          8           0        0.998435   -4.690771   -0.811781
     46          6           0        0.106955   -5.087484   -1.802933
     47          6           0       -4.286530   -1.808576    0.952412
     48          6           0       -5.095263   -1.375565   -0.291080
     49          6           0       -5.340389   -0.081669   -0.665451
     50          6           0       -4.999683    1.179785    0.118191
     51          6           0       -6.319046    0.194341   -1.825383
     52          6           0       -7.888842    0.077011   -1.565961
     53          6           0       -8.632058    1.343722   -2.152491
     54          6           0      -10.003640    1.053398   -2.873045
     55          6           0      -10.470280    2.049454   -3.920532
     56          6           0      -11.166749    0.688097   -1.828106
     57          6           0      -12.314541   -0.155478   -2.392265
     58          6           0      -13.694717    0.399684   -1.905191
     59          6           0      -14.041764   -0.104045   -0.482068
     60          6           0      -15.585057   -0.382161   -0.302329
     61          6           0      -13.547338    0.981093    0.478765
     62          6           0      -13.086967    0.244307    1.800471
     63          6           0      -12.765261    1.199211    3.042622
     64          6           0      -11.506154    0.860957    3.859430
     65          6           0      -11.464389    1.565029    5.189267
     66          6           0      -10.288160    1.244654    2.960703
     67          1           0        2.704071    3.428908    0.045931
     68          1           0        9.210710    3.360048   -0.344071
     69          1           0        9.203865   -2.930003    0.562366
     70          1           0        1.087768   -0.800485   -0.950010
     71          1           0        1.064392    1.531894    0.893438
     72          1           0        1.498829    1.828450   -1.925853
     73          1           0        0.392161    2.788141   -0.851706
     74          1           0       -0.080927    1.144803   -1.579512
     75          1           0        0.179972   -0.373767    1.863213
     76          1           0        1.321884   -1.625852    1.847818
     77          1           0       -0.236125   -3.168517    0.975493
     78          1           0       -0.806973   -2.158442   -0.320975
     79          1           0        4.225442    6.448321   -0.665484
     80          1           0        4.579387    6.486686    0.954953
     81          1           0        3.277082    5.446194    0.453325
     82          1           0        6.462239    7.424280   -1.050863
     83          1           0        7.907849    7.917709   -0.261795
     84          1           0        6.628350    7.149484    0.687341
     85          1           0       10.606312    1.699042    0.759920
     86          1           0       11.085099   -1.037215   -0.199663
     87          1           0       11.492404    0.458853   -1.742805
     88          1           0       11.944447    2.058879   -1.190265
     89          1           0       10.405539    1.848560   -2.079465
     90          1           0       11.664225   -0.515100    2.060777
     91          1           0       10.536775   -1.801014    1.982306
     92          1           0       10.283393    0.763490    3.359884
     93          1           0        9.606965   -0.667007    3.853328
     94          1           0        8.805654    0.365477    2.523365
     95          1           0        8.381909   -5.199812    0.978213
     96          1           0        7.543241   -5.762826   -0.538716
     97          1           0        6.812845   -5.819287    1.050363
     98          1           0        2.422404   -3.784170    0.914099
     99          1           0        0.471119   -5.194797   -2.824483
    100          1           0       -0.775143   -4.447253   -1.757528
    101          1           0       -0.363102   -6.029367   -1.519786
    102          1           0       -4.352954   -1.040831    1.723424
    103          1           0       -4.513880   -2.850232    1.177737
    104          1           0       -5.358777   -2.183986   -0.974270
    105          1           0       -4.300813    0.997491    0.934926
    106          1           0       -5.911484    1.618533    0.521770
    107          1           0       -4.539551    1.969687   -0.475944
    108          1           0       -6.140342   -0.542955   -2.608998
    109          1           0       -6.139953    1.131885   -2.351640
    110          1           0       -8.120321    0.186695   -0.506070
    111          1           0       -8.261807   -0.837433   -2.026390
    112          1           0       -7.997155    1.972898   -2.776442
    113          1           0       -8.930388    2.045314   -1.372991
    114          1           0       -9.945530    0.127080   -3.443539
    115          1           0      -10.669064    1.598708   -4.892311
    116          1           0       -9.741356    2.851650   -4.041307
    117          1           0      -11.443562    2.434939   -3.615512
    118          1           0      -11.445495    1.690270   -1.501727
    119          1           0      -10.608557    0.112125   -1.089837
    120          1           0      -12.206635   -1.183176   -2.043642
    121          1           0      -12.242593   -0.143881   -3.479391
    122          1           0      -14.461514    0.204814   -2.654678
    123          1           0      -13.692586    1.490462   -1.918739
    124          1           0      -13.573368   -1.041062   -0.179758
    125          1           0      -15.754157   -1.442487   -0.115336
    126          1           0      -16.160859   -0.146034   -1.196395
    127          1           0      -16.025317    0.176594    0.523641
    128          1           0      -14.391339    1.654338    0.629378
    129          1           0      -12.736890    1.644069    0.178920
    130          1           0      -12.208832   -0.392023    1.682601
    131          1           0      -13.904801   -0.416984    2.089991
    132          1           0      -13.589558    1.224443    3.756813
    133          1           0      -12.583979    2.172927    2.588503
    134          1           0      -11.412877   -0.195156    4.114119
    135          1           0      -10.541581    1.326344    5.717633
    136          1           0      -12.305975    1.356525    5.849788
    137          1           0      -11.334670    2.617146    4.937871
    138          1           0      -10.568022    1.063315    1.923142
    139          1           0       -9.414447    0.668074    3.262745
    140          1           0      -10.065317    2.292118    3.169406
 ---------------------------------------------------------------------

 SCF Done:  E(RwB97XD) =  -3007.87687653     A.U. after   19 cycles

 Excitation energies and oscillator strengths:

 Excited State   1:      Singlet-A      1.6263 eV  762.38 nm  f=0.3796  <S**2>=0.000
     245 -> 248       -0.17739
     246 -> 247        0.68619
     245 <- 248       -0.11799
 This state for optimization and/or second-order correction.
 Total Energy, E(TD-HF/TD-DFT) =  -3007.81711159
 Copying the excited state density for this state as the 1-particle RhoCI density.

 Excited State   2:      Singlet-A      2.1746 eV  570.15 nm  f=0.1230  <S**2>=0.000
     245 -> 247        0.64101
     246 -> 248        0.28547

 Excited State   3:      Singlet-A      3.3756 eV  367.30 nm  f=0.0151  <S**2>=0.000
     241 -> 247        0.46474
     242 -> 247       -0.38203
     244 -> 247        0.27209
     246 -> 248        0.18260

 Excited State   4:      Singlet-A      3.4669 eV  357.63 nm  f=0.0029  <S**2>=0.000
     240 -> 247        0.56360
     240 -> 249       -0.30944
     240 -> 250        0.14336
     244 -> 247        0.19239

 Excited State   5:      Singlet-A      3.5306 eV  351.17 nm  f=0.0785  <S**2>=0.000
     240 -> 247       -0.17164
     241 -> 247       -0.15693
     244 -> 247        0.54782
     246 -> 248       -0.31391

 The electronic state is 1-A.
 Alpha  occ. eigenvalues --  -46.95406 -19.30667 -19.29128 -19.25649 -19.24826
 Alpha  occ. eigenvalues --  -19.24580 -19.23607 -14.47153 -14.47076 -14.44026
 Alpha  occ. eigenvalues --  -14.43967 -10.43628 -10.43176 -10.40028 -10.39116
 Alpha  occ. eigenvalues --  -10.35829 -10.35689 -10.35501 -10.35487 -10.34470
 Alpha  occ. eigenvalues --  -10.34299 -10.34021 -10.33952 -10.33925 -10.33182
 Alpha  occ. eigenvalues --  -10.32910 -10.32683 -10.32522 -10.32507 -10.32262
 Alpha  occ. eigenvalues --  -10.32196 -10.32194 -10.32152 -10.32052 -10.32038
 Alpha  occ. eigenvalues --  -10.31482 -10.31397 -10.31094 -10.31069 -10.30999
 Alpha  occ. eigenvalues --  -10.30953 -10.30503 -10.30390 -10.30292 -10.30266
 Alpha  occ. eigenvalues --  -10.30137 -10.30034 -10.30023 -10.29955 -10.29792
 Alpha  occ. eigenvalues --  -10.29708 -10.29550 -10.29445 -10.29411 -10.29399
 Alpha  occ. eigenvalues --  -10.29078 -10.29068 -10.29066 -10.28789 -10.28696
 Alpha  occ. eigenvalues --  -10.28690 -10.28474 -10.28358 -10.28219 -10.28196
 Alpha  occ. eigenvalues --  -10.27967  -3.21301  -1.94913  -1.94427  -1.94266
 Alpha  occ. eigenvalues --   -1.20528  -1.17386  -1.12218  -1.11614  -1.10870
 Alpha  occ. eigenvalues --   -1.10216  -1.07788  -1.05752  -1.05000  -1.04314
 Alpha  occ. eigenvalues --   -0.94239  -0.91672  -0.91130  -0.90837  -0.90327
 Alpha  occ. eigenvalues --   -0.90158  -0.89889  -0.89584  -0.89194  -0.89085
 Alpha  occ. eigenvalues --   -0.88313  -0.87192  -0.86061  -0.85571  -0.84881
 Alpha  occ. eigenvalues --   -0.83953  -0.83806  -0.83432  -0.82901  -0.82178
 Alpha  occ. eigenvalues --   -0.81444  -0.80270  -0.79701  -0.79335  -0.78426
 Alpha  occ. eigenvalues --   -0.77685  -0.77115  -0.76962  -0.76355  -0.75884
 Alpha  occ. eigenvalues --   -0.75409  -0.74543  -0.73252  -0.72179  -0.71932
 Alpha  occ. eigenvalues --   -0.70357  -0.70055  -0.68992  -0.68803  -0.67373
 Alpha  occ. eigenvalues --   -0.67180  -0.67159  -0.66785  -0.66147  -0.65961
 Alpha  occ. eigenvalues --   -0.64781  -0.64385  -0.64319  -0.63842  -0.62683
 Alpha  occ. eigenvalues --   -0.61929  -0.61869  -0.61069  -0.60883  -0.60374
 Alpha  occ. eigenvalues --   -0.59337  -0.59004  -0.58813  -0.58376  -0.57690
 Alpha  occ. eigenvalues --   -0.57350  -0.57039  -0.56846  -0.56235  -0.55960
 Alpha  occ. eigenvalues --   -0.55772  -0.55286  -0.55279  -0.54664  -0.54360
 Alpha  occ. eigenvalues --   -0.54282  -0.54210  -0.54167  -0.53828  -0.53753
 Alpha  occ. eigenvalues --   -0.53502  -0.53178  -0.52961  -0.52622  -0.52405
 Alpha  occ. eigenvalues --   -0.52120  -0.51994  -0.51771  -0.51731  -0.51473
 Alpha  occ. eigenvalues --   -0.51415  -0.51091  -0.51041  -0.50856  -0.50829
 Alpha  occ. eigenvalues --   -0.50759  -0.50553  -0.50266  -0.50143  -0.49706
 Alpha  occ. eigenvalues --   -0.49379  -0.49216  -0.48966  -0.48820  -0.48630
 Alpha  occ. eigenvalues --   -0.48338  -0.48222  -0.47864  -0.47643  -0.47579
 Alpha  occ. eigenvalues --   -0.47307  -0.47176  -0.46792  -0.46783  -0.46709
 Alpha  occ. eigenvalues --   -0.46601  -0.46328  -0.46192  -0.46031  -0.46004
 Alpha  occ. eigenvalues --   -0.45556  -0.45465  -0.45380  -0.45191  -0.44882
 Alpha  occ. eigenvalues --   -0.44697  -0.44539  -0.44282  -0.44070  -0.43818
 Alpha  occ. eigenvalues --   -0.43715  -0.43537  -0.43360  -0.43298  -0.43197
 Alpha  occ. eigenvalues --   -0.42948  -0.42786  -0.42606  -0.42461  -0.42053
 Alpha  occ. eigenvalues --   -0.41959  -0.41646  -0.41541  -0.40937  -0.40899
 Alpha  occ. eigenvalues --   -0.40378  -0.40291  -0.39918  -0.39614  -0.39068
 Alpha  occ. eigenvalues --   -0.38931  -0.38645  -0.38427  -0.38400  -0.38303
 Alpha  occ. eigenvalues --   -0.38161  -0.38073  -0.36784  -0.36674  -0.36561
 Alpha  occ. eigenvalues --   -0.36291  -0.35580  -0.35390  -0.33597  -0.33067
 Alpha  occ. eigenvalues --   -0.32589  -0.32550  -0.32077  -0.31920  -0.26259
 Alpha  occ. eigenvalues --   -0.23100
 Alpha virt. eigenvalues --   -0.07368   0.00327   0.02634   0.04461   0.06275
 Alpha virt. eigenvalues --    0.06366   0.06804   0.07424   0.07617   0.08821
 Alpha virt. eigenvalues --    0.10570   0.11165   0.11576   0.12074   0.12572

 Mulliken charges:
               1
     1  Mg   0.948991
     2  C    0.068935
     3  C   -0.086437
     4  C   -0.041224
     5  C   -0.104703
     6  N   -0.351766
     7  C   -0.007286
     8  C   -0.053590
     9  C   -0.140445
    10  C    0.039292
    11  C    0.022754
    12  C    0.033301
    13  C   -0.024518
    14  C    0.219208
    15  O   -0.251194
    16  O   -0.394975
    17  N   -0.415295
    18  C    0.148320
    19  C   -0.142798
    20  C   -0.121990
    21  C    0.154810
    22  C    0.058065
    23  C    0.093014
    24  O   -0.245210
    25  C   -0.007781
    26  N   -0.381441
    27  C    0.005405
    28  C   -0.105037
    29  C   -0.038095
    30  C    0.067446
    31  C    0.034933
    32  C   -0.051766
    33  C   -0.061008
    34  N   -0.424389
    35  C    0.171681
    36  C   -0.198263
    37  C    0.028722
    38  C    0.079837
    39  C    0.063336
    40  C    0.094463
    41  O   -0.206418
    42  C   -0.143815
    43  C    0.266705
    44  O   -0.238991
    45  O   -0.314207
    46  C    0.127983
    47  C    0.264189
    48  C   -0.141337
    49  C   -0.147663
    50  C    0.016630
    51  C    0.006001
    52  C   -0.013320
    53  C   -0.012840
    54  C   -0.207836
    55  C    0.013460
    56  C   -0.046978
    57  C    0.009968
    58  C    0.018781
    59  C   -0.179613
    60  C    0.004569
    61  C    0.008216
    62  C   -0.061385
    63  C    0.018699
    64  C   -0.212826
    65  C    0.000117
    66  C   -0.022244
    67  H   -0.012365
    68  H    0.027592
    69  H    0.015465
    70  H    0.045749
    71  H    0.037194
    72  H    0.044148
    73  H    0.050156
    74  H    0.052010
    75  H    0.048605
    76  H    0.037078
    77  H    0.083183
    78  H    0.064189
    79  H    0.038709
    80  H    0.040912
    81  H    0.033105
    82  H    0.053550
    83  H    0.052326
    84  H    0.047449
    85  H    0.045278
    86  H    0.033939
    87  H    0.025705
    88  H    0.045468
    89  H    0.056605
    90  H    0.035974
    91  H    0.020808
    92  H    0.027416
    93  H    0.044378
    94  H    0.057576
    95  H    0.045078
    96  H    0.063704
    97  H    0.053278
    98  H    0.077953
    99  H    0.072043
   100  H    0.029177
   101  H    0.037495
   102  H    0.046438
   103  H    0.041342
   104  H    0.024006
   105  H    0.033871
   106  H    0.046832
   107  H    0.040240
   108  H    0.025821
   109  H    0.017175
   110  H    0.042410
   111  H    0.041573
   112  H    0.014279
   113  H    0.014975
   114  H    0.006594
   115  H    0.031119
   116  H    0.027905
   117  H    0.016185
   118  H    0.030736
   119  H    0.023015
   120  H    0.023691
   121  H    0.019272
   122  H    0.005513
   123  H    0.012330
   124  H    0.023637
   125  H    0.029388
   126  H    0.024999
   127  H    0.027586
   128  H    0.016804
   129  H    0.018720
   130  H    0.025755
   131  H    0.016460
   132  H    0.017307
   133  H    0.008205
   134  H    0.020396
   135  H    0.022603
   136  H    0.039262
   137  H    0.013837
   138  H    0.037364
   139  H    0.030511
   140  H    0.021770
 Sum of Mulliken charges =  -0.00000

 Dipole moment (field-independent basis, Debye):
    X=             -1.2938    Y=              2.7064    Z=              1.1098  Tot=              3.1985
 Quadrupole moment (field-independent basis, Debye-Ang):
   XX=           -368.5606   YY=           -407.2763   ZZ=           -413.9751
   XY=            -10.1951   XZ=             30.3940   YZ=              1.4658

 Normal termination of Gaussian 16 at Wed Apr 27 04:06:46 2022.
