 Gaussian 16, Revision A.03,
 Gaussian 16:  ES64L-G16RevA.03 25-Dec-2016

 --------------------
 #p ZINDO=(nstates=5)
 --------------------

 ------------------------------
 step_1051_chromophore_25 ZINDO
 ------------------------------
 Symbolic Z-matrix:
 Charge =  0 Multiplicity = 1

                         Standard orientation:
 ---------------------------------------------------------------------
 Center     Atomic      Atomic             Coordinates (Angstroms)
 Number     Number       Type             X           Y           Z
 ---------------------------------------------------------------------
      1         12           0        5.986489    0.394562   -0.001897
      2          6           0        3.518019   -2.161165   -0.102782
      3          6           0        3.515692    2.707800   -0.069373
      4          6           0        8.357483    2.679342   -0.336724
      5          6           0        8.474134   -2.243777    0.125996
      6          7           0        3.790839    0.185475   -0.008971
      7          6           0        3.000917   -0.886241   -0.001086
      8          6           0        1.459114   -0.500046    0.029908
      9          6           0        1.459130    1.093115   -0.023150
     10          6           0        3.038943    1.369950    0.023378
     11          6           0        0.698325    1.797073   -1.186203
     12          6           0        0.567498   -1.159181    1.214846
     13          6           0       -0.562199   -2.155236    0.741677
     14          6           0       -1.905880   -1.868615    1.462561
     15          8           0       -2.117150   -1.789611    2.662414
     16          8           0       -2.935049   -1.807889    0.476818
     17          7           0        5.877860    2.458091   -0.020369
     18          6           0        4.820093    3.209654   -0.069569
     19          6           0        5.196427    4.582789   -0.079098
     20          6           0        6.627740    4.543605   -0.289388
     21          6           0        6.987337    3.146013   -0.286981
     22          6           0        4.281919    5.772405    0.187828
     23          6           0        7.644498    5.754183   -0.398942
     24          8           0        8.862087    5.628629   -0.534724
     25          6           0        7.157843    7.126343   -0.265387
     26          7           0        8.078863    0.223600   -0.294642
     27          6           0        8.838879    1.380412   -0.305598
     28          6           0       10.321451    1.037684   -0.058148
     29          6           0       10.302567   -0.481519    0.316866
     30          6           0        8.886454   -0.863911    0.002710
     31          6           0       11.093818    1.399846   -1.364107
     32          6           0       10.619730   -0.724723    1.831078
     33          6           0        9.712007   -0.067881    2.948630
     34          7           0        6.073862   -1.753181    0.026176
     35          6           0        7.157753   -2.622325    0.041564
     36          6           0        6.664187   -3.993374    0.114389
     37          6           0        5.306076   -3.884605    0.059726
     38          6           0        4.933564   -2.515894   -0.023583
     39          6           0        7.456702   -5.222293    0.403519
     40          6           0        4.022200   -4.597184    0.030800
     41          8           0        3.738788   -5.792518    0.113278
     42          6           0        2.828355   -3.492351   -0.053228
     43          6           0        2.033126   -3.937367   -1.241621
     44          8           0        2.292919   -3.726450   -2.409312
     45          8           0        0.998435   -4.690771   -0.811781
     46          6           0        0.106955   -5.087484   -1.802933
     47          6           0       -4.286530   -1.808576    0.952412
     48          6           0       -5.095263   -1.375565   -0.291080
     49          6           0       -5.340389   -0.081669   -0.665451
     50          6           0       -4.999683    1.179785    0.118191
     51          6           0       -6.319046    0.194341   -1.825383
     52          6           0       -7.888842    0.077011   -1.565961
     53          6           0       -8.632058    1.343722   -2.152491
     54          6           0      -10.003640    1.053398   -2.873045
     55          6           0      -10.470280    2.049454   -3.920532
     56          6           0      -11.166749    0.688097   -1.828106
     57          6           0      -12.314541   -0.155478   -2.392265
     58          6           0      -13.694717    0.399684   -1.905191
     59          6           0      -14.041764   -0.104045   -0.482068
     60          6           0      -15.585057   -0.382161   -0.302329
     61          6           0      -13.547338    0.981093    0.478765
     62          6           0      -13.086967    0.244307    1.800471
     63          6           0      -12.765261    1.199211    3.042622
     64          6           0      -11.506154    0.860957    3.859430
     65          6           0      -11.464389    1.565029    5.189267
     66          6           0      -10.288160    1.244654    2.960703
     67          1           0        2.704071    3.428908    0.045931
     68          1           0        9.210710    3.360048   -0.344071
     69          1           0        9.203865   -2.930003    0.562366
     70          1           0        1.087768   -0.800485   -0.950010
     71          1           0        1.064392    1.531894    0.893438
     72          1           0        1.498829    1.828450   -1.925853
     73          1           0        0.392161    2.788141   -0.851706
     74          1           0       -0.080927    1.144803   -1.579512
     75          1           0        0.179972   -0.373767    1.863213
     76          1           0        1.321884   -1.625852    1.847818
     77          1           0       -0.236125   -3.168517    0.975493
     78          1           0       -0.806973   -2.158442   -0.320975
     79          1           0        4.225442    6.448321   -0.665484
     80          1           0        4.579387    6.486686    0.954953
     81          1           0        3.277082    5.446194    0.453325
     82          1           0        6.462239    7.424280   -1.050863
     83          1           0        7.907849    7.917709   -0.261795
     84          1           0        6.628350    7.149484    0.687341
     85          1           0       10.606312    1.699042    0.759920
     86          1           0       11.085099   -1.037215   -0.199663
     87          1           0       11.492404    0.458853   -1.742805
     88          1           0       11.944447    2.058879   -1.190265
     89          1           0       10.405539    1.848560   -2.079465
     90          1           0       11.664225   -0.515100    2.060777
     91          1           0       10.536775   -1.801014    1.982306
     92          1           0       10.283393    0.763490    3.359884
     93          1           0        9.606965   -0.667007    3.853328
     94          1           0        8.805654    0.365477    2.523365
     95          1           0        8.381909   -5.199812    0.978213
     96          1           0        7.543241   -5.762826   -0.538716
     97          1           0        6.812845   -5.819287    1.050363
     98          1           0        2.422404   -3.784170    0.914099
     99          1           0        0.471119   -5.194797   -2.824483
    100          1           0       -0.775143   -4.447253   -1.757528
    101          1           0       -0.363102   -6.029367   -1.519786
    102          1           0       -4.352954   -1.040831    1.723424
    103          1           0       -4.513880   -2.850232    1.177737
    104          1           0       -5.358777   -2.183986   -0.974270
    105          1           0       -4.300813    0.997491    0.934926
    106          1           0       -5.911484    1.618533    0.521770
    107          1           0       -4.539551    1.969687   -0.475944
    108          1           0       -6.140342   -0.542955   -2.608998
    109          1           0       -6.139953    1.131885   -2.351640
    110          1           0       -8.120321    0.186695   -0.506070
    111          1           0       -8.261807   -0.837433   -2.026390
    112          1           0       -7.997155    1.972898   -2.776442
    113          1           0       -8.930388    2.045314   -1.372991
    114          1           0       -9.945530    0.127080   -3.443539
    115          1           0      -10.669064    1.598708   -4.892311
    116          1           0       -9.741356    2.851650   -4.041307
    117          1           0      -11.443562    2.434939   -3.615512
    118          1           0      -11.445495    1.690270   -1.501727
    119          1           0      -10.608557    0.112125   -1.089837
    120          1           0      -12.206635   -1.183176   -2.043642
    121          1           0      -12.242593   -0.143881   -3.479391
    122          1           0      -14.461514    0.204814   -2.654678
    123          1           0      -13.692586    1.490462   -1.918739
    124          1           0      -13.573368   -1.041062   -0.179758
    125          1           0      -15.754157   -1.442487   -0.115336
    126          1           0      -16.160859   -0.146034   -1.196395
    127          1           0      -16.025317    0.176594    0.523641
    128          1           0      -14.391339    1.654338    0.629378
    129          1           0      -12.736890    1.644069    0.178920
    130          1           0      -12.208832   -0.392023    1.682601
    131          1           0      -13.904801   -0.416984    2.089991
    132          1           0      -13.589558    1.224443    3.756813
    133          1           0      -12.583979    2.172927    2.588503
    134          1           0      -11.412877   -0.195156    4.114119
    135          1           0      -10.541581    1.326344    5.717633
    136          1           0      -12.305975    1.356525    5.849788
    137          1           0      -11.334670    2.617146    4.937871
    138          1           0      -10.568022    1.063315    1.923142
    139          1           0       -9.414447    0.668074    3.262745
    140          1           0      -10.065317    2.292118    3.169406
 ---------------------------------------------------------------------

 SCF Done:  E(RZINDO/S) =  -474.069737335     A.U. after   20 cycles

 Excitation energies and oscillator strengths:

 Excited State   1:      Singlet-A      1.2559 eV  987.21 nm  f=0.5944  <S**2>=0.000
     175 ->178        -0.17817
     176 ->177         0.66729
 This state for optimization and/or second-order correction.
 Total Energy, E(CIS/TDA) =  -474.023583585
 Copying the excited state density for this state as the 1-particle RhoCI density.

 Excited State   2:      Singlet-A      1.9369 eV  640.10 nm  f=0.0485  <S**2>=0.000
     175 ->177         0.55320
     176 ->178         0.41098

 Excited State   3:      Singlet-A      2.9427 eV  421.32 nm  f=0.0102  <S**2>=0.000
     168 ->177         0.36995
     168 ->179        -0.46901
     168 ->181         0.13276
     168 ->183         0.12219
     168 ->186         0.18022

 Excited State   4:      Singlet-A      3.0305 eV  409.12 nm  f=0.7621  <S**2>=0.000
     170 ->179         0.10391
     170 ->181         0.22477
     171 ->177         0.16883
     174 ->177        -0.10441
     175 ->177        -0.30605
     176 ->178         0.44735
     176 ->179         0.11494

 Excited State   5:      Singlet-A      3.0512 eV  406.35 nm  f=0.3077  <S**2>=0.000
     170 ->177        -0.20657
     170 ->179        -0.13862
     170 ->181        -0.35684
     170 ->182        -0.16214
     170 ->186         0.15910
     170 ->187        -0.12510
     170 ->188         0.12534
     171 ->181        -0.15699
     175 ->177        -0.19121
     176 ->178         0.27434
     176 ->179         0.10952

 The electronic state is 1-A.
 Alpha  occ. eigenvalues --   -1.83887  -1.83444  -1.79321  -1.76202  -1.71944
 Alpha  occ. eigenvalues --   -1.69813  -1.65403  -1.59631  -1.59246  -1.57942
 Alpha  occ. eigenvalues --   -1.55228  -1.51398  -1.48853  -1.46990  -1.44837
 Alpha  occ. eigenvalues --   -1.44580  -1.42404  -1.40344  -1.37988  -1.36700
 Alpha  occ. eigenvalues --   -1.35699  -1.34687  -1.31702  -1.30715  -1.28798
 Alpha  occ. eigenvalues --   -1.26469  -1.25203  -1.21470  -1.20468  -1.18234
 Alpha  occ. eigenvalues --   -1.17884  -1.15713  -1.14599  -1.14377  -1.13304
 Alpha  occ. eigenvalues --   -1.11996  -1.10637  -1.09611  -1.05208  -1.04411
 Alpha  occ. eigenvalues --   -1.02149  -1.01501  -0.98957  -0.98176  -0.96974
 Alpha  occ. eigenvalues --   -0.96456  -0.93824  -0.93011  -0.92470  -0.92197
 Alpha  occ. eigenvalues --   -0.90632  -0.90047  -0.88639  -0.87636  -0.86297
 Alpha  occ. eigenvalues --   -0.85093  -0.84431  -0.81958  -0.81459  -0.80260
 Alpha  occ. eigenvalues --   -0.80065  -0.79104  -0.77742  -0.77244  -0.77033
 Alpha  occ. eigenvalues --   -0.76764  -0.75772  -0.75400  -0.75000  -0.74896
 Alpha  occ. eigenvalues --   -0.73648  -0.72942  -0.72036  -0.71761  -0.71358
 Alpha  occ. eigenvalues --   -0.70500  -0.69188  -0.68753  -0.68144  -0.67704
 Alpha  occ. eigenvalues --   -0.67155  -0.66861  -0.66093  -0.65768  -0.65321
 Alpha  occ. eigenvalues --   -0.65014  -0.64790  -0.64441  -0.64171  -0.63749
 Alpha  occ. eigenvalues --   -0.63326  -0.63065  -0.62664  -0.62032  -0.61467
 Alpha  occ. eigenvalues --   -0.61151  -0.60592  -0.60410  -0.60179  -0.59854
 Alpha  occ. eigenvalues --   -0.59657  -0.58806  -0.58401  -0.58273  -0.57791
 Alpha  occ. eigenvalues --   -0.57503  -0.56923  -0.56731  -0.56382  -0.56160
 Alpha  occ. eigenvalues --   -0.56069  -0.55978  -0.55564  -0.55472  -0.55033
 Alpha  occ. eigenvalues --   -0.54703  -0.54088  -0.53897  -0.53772  -0.53045
 Alpha  occ. eigenvalues --   -0.52577  -0.52327  -0.52159  -0.51958  -0.51895
 Alpha  occ. eigenvalues --   -0.51675  -0.51181  -0.51143  -0.50730  -0.50337
 Alpha  occ. eigenvalues --   -0.50190  -0.49982  -0.49833  -0.49764  -0.49314
 Alpha  occ. eigenvalues --   -0.49121  -0.48767  -0.48602  -0.48479  -0.48305
 Alpha  occ. eigenvalues --   -0.47596  -0.47538  -0.47225  -0.46745  -0.46392
 Alpha  occ. eigenvalues --   -0.46363  -0.46207  -0.45861  -0.45346  -0.45215
 Alpha  occ. eigenvalues --   -0.45072  -0.44957  -0.44776  -0.44652  -0.44214
 Alpha  occ. eigenvalues --   -0.44139  -0.43849  -0.42978  -0.42614  -0.42423
 Alpha  occ. eigenvalues --   -0.41852  -0.41730  -0.41401  -0.39936  -0.39137
 Alpha  occ. eigenvalues --   -0.38474  -0.37474  -0.35860  -0.35045  -0.34291
 Alpha  occ. eigenvalues --   -0.33999  -0.32691  -0.32606  -0.31526  -0.26956
 Alpha  occ. eigenvalues --   -0.21892
 Alpha virt. eigenvalues --   -0.08722  -0.01963  -0.00638   0.01277   0.01476
 Alpha virt. eigenvalues --    0.02396   0.02735   0.03084   0.03743   0.04835
 Alpha virt. eigenvalues --    0.05942   0.06164   0.06897   0.07038   0.07514

 Mulliken charges:
               1
     1  Mg   0.427059
     2  C   -0.065311
     3  C   -0.073686
     4  C   -0.058741
     5  C   -0.074468
     6  N   -0.280272
     7  C    0.163672
     8  C   -0.007937
     9  C   -0.010191
    10  C    0.078849
    11  C   -0.053560
    12  C   -0.024169
    13  C    0.008408
    14  C    0.456050
    15  O   -0.500160
    16  O   -0.286511
    17  N   -0.284223
    18  C    0.111125
    19  C   -0.027244
    20  C   -0.073102
    21  C    0.115719
    22  C   -0.043940
    23  C    0.328458
    24  O   -0.534122
    25  C   -0.022564
    26  N   -0.273090
    27  C    0.100373
    28  C   -0.002528
    29  C    0.013946
    30  C    0.160405
    31  C   -0.051992
    32  C   -0.031174
    33  C   -0.060509
    34  N   -0.346127
    35  C    0.124638
    36  C    0.065481
    37  C   -0.034106
    38  C    0.127912
    39  C   -0.039947
    40  C    0.326277
    41  O   -0.515050
    42  C    0.046989
    43  C    0.497180
    44  O   -0.525958
    45  O   -0.250516
    46  C    0.078963
    47  C    0.103096
    48  C   -0.085684
    49  C   -0.002230
    50  C   -0.040071
    51  C   -0.031638
    52  C   -0.031005
    53  C   -0.039795
    54  C   -0.028825
    55  C   -0.054607
    56  C   -0.042827
    57  C   -0.031924
    58  C   -0.032460
    59  C   -0.007121
    60  C   -0.062399
    61  C   -0.034079
    62  C   -0.049097
    63  C   -0.041064
    64  C   -0.010983
    65  C   -0.055344
    66  C   -0.062074
    67  H    0.021782
    68  H    0.053924
    69  H    0.040543
    70  H    0.033409
    71  H    0.024718
    72  H    0.025893
    73  H    0.032232
    74  H    0.026650
    75  H    0.037353
    76  H    0.025528
    77  H    0.050151
    78  H    0.043431
    79  H    0.023186
    80  H    0.027089
    81  H    0.020198
    82  H    0.033354
    83  H    0.034525
    84  H    0.033261
    85  H    0.035913
    86  H    0.035414
    87  H    0.015381
    88  H    0.024566
    89  H    0.034093
    90  H    0.020008
    91  H    0.008000
    92  H    0.011195
    93  H    0.028684
    94  H    0.036268
    95  H    0.034039
    96  H    0.042413
    97  H    0.027189
    98  H    0.063218
    99  H    0.058377
   100  H    0.024962
   101  H    0.023579
   102  H    0.059165
   103  H    0.049031
   104  H    0.035323
   105  H    0.020585
   106  H    0.028264
   107  H    0.025851
   108  H    0.011662
   109  H    0.022665
   110  H    0.026716
   111  H    0.034458
   112  H    0.020176
   113  H    0.012699
   114  H    0.007588
   115  H    0.017438
   116  H    0.019048
   117  H    0.015660
   118  H    0.028569
   119  H    0.017822
   120  H    0.021525
   121  H    0.020695
   122  H    0.010591
   123  H    0.017239
   124  H    0.027955
   125  H    0.014783
   126  H    0.018533
   127  H    0.020645
   128  H    0.019130
   129  H    0.024829
   130  H    0.025302
   131  H    0.014380
   132  H    0.016660
   133  H    0.019159
   134  H    0.016109
   135  H    0.010519
   136  H    0.022904
   137  H    0.015853
   138  H    0.024712
   139  H    0.014401
   140  H    0.020656
 Sum of Mulliken charges =  -0.00000

 Dipole moment (field-independent basis, Debye):
    X=             -1.7636    Y=              1.7196    Z=              2.3127  Tot=              3.3787
 N-N= 4.272079445617D+03 E-N= 0.000000000000D+00  KE=-9.218012871430D+03
 Leave Link  601 at Wed Apr 27 04:18:43 2022, MaxMem=  6710886400 cpu:               0.8 elap:               0.1
 (Enter /sw/apps/gaussian-16.0/g16/l9999.exe)
 1\1\GINC-BP1-COMPUTE140\SP\RZINDO CIS\STO-3G\C55H74Mg1N4O6\OF15641\27-
 Apr-2022\0\\#p ZINDO=(nstates=5)\\step_1051_chromophore_25 ZINDO\\0,1\
 Mg,0,-3.726,34.934,26.477\C,0,-4.713,33.152,29.39\C,0,-2.023,37.099,28
 .445\C,0,-3.222,36.754,23.759\C,0,-5.561,32.468,24.549\N,0,-3.408,34.9
 83,28.659\C,0,-3.83,34.183,29.636\C,0,-3.286,34.631,31.061\C,0,-2.458,
 35.959,30.758\C,0,-2.584,36.003,29.159\C,0,-2.867,37.272,31.49\C,0,-2.
 505,33.504,31.929\C,0,-3.209,33.074,33.275\C,0,-2.198,33.027,34.451\O,

 Normal termination of Gaussian 16 at Wed Apr 27 04:18:43 2022.
