 Gaussian 16, Revision A.03,
 Gaussian 16:  ES64L-G16RevA.03 25-Dec-2016

 ------------------------------
 #p blyp/Def2SVP td=(nstates=5)
 ------------------------------

 -----------------------------------------------
 step_1_chromophore_3 TDDFT with blyp functional
 -----------------------------------------------
 Symbolic Z-matrix:
 Charge =  0 Multiplicity = 1

                         Standard orientation:
 ---------------------------------------------------------------------
 Center     Atomic      Atomic             Coordinates (Angstroms)
 Number     Number       Type             X           Y           Z
 ---------------------------------------------------------------------
      1         12           0       -5.354145    0.712393    0.087725
      2          6           0       -4.085157   -2.473661   -0.004536
      3          6           0       -2.146047    1.919766    0.175955
      4          6           0       -6.618796    3.935070    0.295471
      5          6           0       -8.555727   -0.569645    0.443553
      6          7           0       -3.292203   -0.171247    0.138138
      7          6           0       -3.073232   -1.512027   -0.002521
      8          6           0       -1.652443   -1.805551   -0.057089
      9          6           0       -0.953856   -0.480661    0.204951
     10          6           0       -2.185207    0.527042    0.213889
     11          6           0       -0.057050   -0.340488    1.483242
     12          6           0       -1.250655   -2.475606   -1.415074
     13          6           0       -0.079990   -3.517740   -1.376748
     14          6           0        0.988376   -3.336835   -0.280617
     15          8           0        1.262449   -4.020939    0.725735
     16          8           0        1.831097   -2.277107   -0.654700
     17          7           0       -4.464831    2.658645    0.101743
     18          6           0       -3.104709    2.916095    0.116096
     19          6           0       -2.896020    4.377895    0.148837
     20          6           0       -4.220351    4.995205    0.178332
     21          6           0       -5.172506    3.871002    0.168798
     22          6           0       -1.536611    5.056668    0.188740
     23          6           0       -4.553192    6.466588    0.094327
     24          8           0       -5.746466    6.814037    0.051682
     25          6           0       -3.552507    7.560976    0.092911
     26          7           0       -7.298338    1.577917    0.412527
     27          6           0       -7.532430    2.893249    0.396556
     28          6           0       -9.043233    3.178636    0.423921
     29          6           0       -9.735727    1.723408    0.215369
     30          6           0       -8.431794    0.852737    0.282134
     31          6           0       -9.458234    3.919278    1.732429
     32          6           0      -10.466201    1.518536   -1.140082
     33          6           0      -11.994737    1.389942   -1.059910
     34          7           0       -6.205634   -1.143798    0.271564
     35          6           0       -7.538253   -1.532009    0.427931
     36          6           0       -7.636532   -3.007690    0.477395
     37          6           0       -6.278969   -3.376161    0.325491
     38          6           0       -5.460051   -2.220617    0.215347
     39          6           0       -8.824662   -3.830415    0.582163
     40          6           0       -5.390430   -4.541717    0.138071
     41          8           0       -5.622672   -5.718674    0.056969
     42          6           0       -3.931425   -3.988850   -0.038900
     43          6           0       -3.061956   -4.646594    0.949617
     44          8           0       -3.154583   -4.360473    2.154227
     45          8           0       -2.098407   -5.450060    0.421241
     46          6           0       -1.066085   -5.981489    1.305578
     47          6           0        3.182141   -2.306679   -0.026181
     48          6           0        4.011992   -2.174257   -1.317104
     49          6           0        5.219470   -2.701509   -1.638293
     50          6           0        5.928937   -3.775038   -0.841232
     51          6           0        5.802518   -2.397504   -2.975348
     52          6           0        7.180186   -1.680298   -3.012137
     53          6           0        7.038174   -0.111686   -3.272575
     54          6           0        8.206982    0.814200   -3.473730
     55          6           0        7.896297    1.911181   -4.490000
     56          6           0        8.732522    1.485405   -2.209340
     57          6           0       10.186490    1.342290   -1.853686
     58          6           0       10.648542    2.580184   -1.100070
     59          6           0       12.077154    2.375647   -0.488268
     60          6           0       13.145160    2.174510   -1.589899
     61          6           0       12.215960    1.297076    0.595379
     62          6           0       13.208133    1.721609    1.718058
     63          6           0       13.632838    0.496424    2.651199
     64          6           0       13.697352    0.984965    4.128233
     65          6           0       14.828909    0.186117    4.872193
     66          6           0       12.294972    0.615897    4.749607
     67          1           0       -1.112590    2.271574    0.201781
     68          1           0       -6.995712    4.955091    0.397619
     69          1           0       -9.588028   -0.925103    0.427492
     70          1           0       -1.423254   -2.497014    0.754478
     71          1           0       -0.406380   -0.139951   -0.674619
     72          1           0        0.101485   -1.172939    2.169571
     73          1           0       -0.447918    0.486580    2.075427
     74          1           0        0.948660    0.022717    1.270310
     75          1           0       -1.068746   -1.704262   -2.163527
     76          1           0       -2.144810   -2.893773   -1.876996
     77          1           0        0.432597   -3.538090   -2.338902
     78          1           0       -0.417117   -4.525890   -1.137572
     79          1           0       -0.704643    4.365374    0.058903
     80          1           0       -1.364228    5.533225    1.154178
     81          1           0       -1.408865    5.688499   -0.690039
     82          1           0       -4.109155    8.483890   -0.066976
     83          1           0       -2.783658    7.447798   -0.672513
     84          1           0       -2.982806    7.532385    1.021898
     85          1           0       -9.275298    3.730692   -0.486930
     86          1           0      -10.383022    1.445899    1.047220
     87          1           0      -10.073415    4.801686    1.555833
     88          1           0       -8.579343    4.256953    2.282311
     89          1           0       -9.956987    3.149654    2.321998
     90          1           0      -10.125876    0.638142   -1.683947
     91          1           0      -10.265330    2.332810   -1.836638
     92          1           0      -12.358999    1.934018   -0.188402
     93          1           0      -12.235768    0.335315   -0.930389
     94          1           0      -12.383434    1.702330   -2.028276
     95          1           0       -8.657464   -4.857169    0.257461
     96          1           0       -9.672084   -3.437572    0.020678
     97          1           0       -9.022776   -3.987876    1.642479
     98          1           0       -3.723602   -4.286424   -1.067255
     99          1           0       -1.433860   -6.686728    2.051382
    100          1           0       -0.479970   -5.176882    1.749523
    101          1           0       -0.359557   -6.572620    0.723135
    102          1           0        3.431196   -3.223289    0.506550
    103          1           0        3.366486   -1.432451    0.598070
    104          1           0        3.535881   -1.459534   -1.988635
    105          1           0        5.892476   -4.643171   -1.499353
    106          1           0        5.382783   -3.885496    0.095259
    107          1           0        6.943410   -3.416148   -0.664573
    108          1           0        5.067479   -1.877850   -3.590612
    109          1           0        6.103410   -3.305498   -3.497004
    110          1           0        7.929399   -2.086451   -3.691897
    111          1           0        7.696209   -1.780316   -2.057713
    112          1           0        6.500320    0.455702   -2.513539
    113          1           0        6.416893   -0.047733   -4.166262
    114          1           0        9.036596    0.232788   -3.876113
    115          1           0        6.829155    2.072541   -4.642838
    116          1           0        8.176488    1.433775   -5.428332
    117          1           0        8.260600    2.912186   -4.255569
    118          1           0        8.196341    0.947810   -1.426919
    119          1           0        8.377464    2.515840   -2.165799
    120          1           0       10.744457    1.076304   -2.751006
    121          1           0       10.211727    0.453653   -1.223781
    122          1           0        9.855127    2.958375   -0.455330
    123          1           0       10.852958    3.312754   -1.881555
    124          1           0       12.247057    3.320269    0.028615
    125          1           0       13.163031    2.974971   -2.328940
    126          1           0       12.918473    1.260945   -2.141091
    127          1           0       14.164900    2.193718   -1.206551
    128          1           0       12.529555    0.438134    0.001761
    129          1           0       11.236090    1.064234    1.012819
    130          1           0       12.609601    2.467573    2.241022
    131          1           0       14.023681    2.194288    1.169355
    132          1           0       14.589328    0.178066    2.237894
    133          1           0       12.974534   -0.344429    2.430940
    134          1           0       13.755390    2.053879    4.329986
    135          1           0       15.519947   -0.329189    4.205326
    136          1           0       14.400575   -0.629765    5.454876
    137          1           0       15.369990    0.915748    5.474308
    138          1           0       11.969866    1.606354    5.066535
    139          1           0       12.364956   -0.025027    5.629022
    140          1           0       11.653599    0.023263    4.098019
 ---------------------------------------------------------------------

 SCF Done:  E(RB-LYP) =  -3007.40406339     A.U. after   21 cycles

 Excitation energies and oscillator strengths:

 Excited State   1:      Singlet-A      1.8352 eV  675.58 nm  f=0.2848  <S**2>=0.000
     245 -> 248       -0.19516
     246 -> 247        0.68462
     246 <- 247       -0.14464
 This state for optimization and/or second-order correction.
 Total Energy, E(TD-HF/TD-DFT) =  -3007.33661958
 Copying the excited state density for this state as the 1-particle RhoCI density.

 Excited State   2:      Singlet-A      1.9884 eV  623.53 nm  f=0.0206  <S**2>=0.000
     243 -> 247       -0.12876
     244 -> 247        0.58537
     245 -> 247       -0.34874
     246 -> 248       -0.12112

 Excited State   3:      Singlet-A      2.0234 eV  612.76 nm  f=0.0437  <S**2>=0.000
     243 -> 247        0.33594
     244 -> 247        0.38507
     245 -> 247        0.44560
     246 -> 248        0.17456

 Excited State   4:      Singlet-A      2.0785 eV  596.52 nm  f=0.0185  <S**2>=0.000
     243 -> 247        0.60667
     245 -> 247       -0.30887
     246 -> 248       -0.14763

 Excited State   5:      Singlet-A      2.5890 eV  478.89 nm  f=0.0012  <S**2>=0.000
     239 -> 247        0.24871
     240 -> 247        0.46139
     242 -> 247        0.45934

 The electronic state is 1-A.
 Alpha  occ. eigenvalues --  -46.27341 -18.82493 -18.82267 -18.78498 -18.75710
 Alpha  occ. eigenvalues --  -18.75690 -18.75074 -14.02996 -14.02943 -14.01026
 Alpha  occ. eigenvalues --  -14.00823 -10.05497 -10.03575  -9.99689  -9.99411
 Alpha  occ. eigenvalues --   -9.98528  -9.96541  -9.96511  -9.96180  -9.96108
 Alpha  occ. eigenvalues --   -9.96057  -9.95755  -9.95668  -9.95655  -9.94724
 Alpha  occ. eigenvalues --   -9.94409  -9.94383  -9.94313  -9.94227  -9.93920
 Alpha  occ. eigenvalues --   -9.93868  -9.93631  -9.93520  -9.93488  -9.93470
 Alpha  occ. eigenvalues --   -9.93400  -9.93169  -9.93053  -9.92847  -9.92768
 Alpha  occ. eigenvalues --   -9.92699  -9.92472  -9.92430  -9.92420  -9.92357
 Alpha  occ. eigenvalues --   -9.92329  -9.92152  -9.92035  -9.92007  -9.91939
 Alpha  occ. eigenvalues --   -9.91892  -9.91754  -9.91569  -9.91505  -9.91390
 Alpha  occ. eigenvalues --   -9.91272  -9.91248  -9.91228  -9.91068  -9.91031
 Alpha  occ. eigenvalues --   -9.90726  -9.90709  -9.90700  -9.90661  -9.90556
 Alpha  occ. eigenvalues --   -9.90103  -2.91863  -1.72305  -1.71732  -1.71578
 Alpha  occ. eigenvalues --   -0.97374  -0.97225  -0.92324  -0.90474  -0.89649
 Alpha  occ. eigenvalues --   -0.88582  -0.87374  -0.86400  -0.85790  -0.83477
 Alpha  occ. eigenvalues --   -0.75322  -0.74137  -0.73475  -0.73122  -0.72179
 Alpha  occ. eigenvalues --   -0.71613  -0.71112  -0.70797  -0.70558  -0.70268
 Alpha  occ. eigenvalues --   -0.69573  -0.69316  -0.68068  -0.67381  -0.67230
 Alpha  occ. eigenvalues --   -0.66631  -0.65803  -0.65325  -0.64913  -0.64593
 Alpha  occ. eigenvalues --   -0.64200  -0.62884  -0.62463  -0.61529  -0.60916
 Alpha  occ. eigenvalues --   -0.60689  -0.59742  -0.59665  -0.59462  -0.58950
 Alpha  occ. eigenvalues --   -0.58523  -0.57580  -0.56996  -0.56524  -0.53934
 Alpha  occ. eigenvalues --   -0.53851  -0.53594  -0.52612  -0.52439  -0.51976
 Alpha  occ. eigenvalues --   -0.51801  -0.51398  -0.50799  -0.50316  -0.50097
 Alpha  occ. eigenvalues --   -0.49887  -0.49475  -0.48496  -0.47493  -0.46479
 Alpha  occ. eigenvalues --   -0.46067  -0.45973  -0.45547  -0.45163  -0.44841
 Alpha  occ. eigenvalues --   -0.43992  -0.43620  -0.42861  -0.42482  -0.42396
 Alpha  occ. eigenvalues --   -0.41926  -0.41752  -0.41621  -0.41501  -0.41283
 Alpha  occ. eigenvalues --   -0.40955  -0.40603  -0.40312  -0.40273  -0.40167
 Alpha  occ. eigenvalues --   -0.39695  -0.39630  -0.39533  -0.39407  -0.39238
 Alpha  occ. eigenvalues --   -0.39067  -0.38901  -0.38551  -0.38438  -0.38302
 Alpha  occ. eigenvalues --   -0.38166  -0.37938  -0.37790  -0.37677  -0.37541
 Alpha  occ. eigenvalues --   -0.36911  -0.36713  -0.36632  -0.36505  -0.36437
 Alpha  occ. eigenvalues --   -0.36239  -0.36056  -0.35965  -0.35771  -0.35672
 Alpha  occ. eigenvalues --   -0.35630  -0.35097  -0.35001  -0.34845  -0.34655
 Alpha  occ. eigenvalues --   -0.34589  -0.34307  -0.34019  -0.33838  -0.33708
 Alpha  occ. eigenvalues --   -0.33617  -0.33501  -0.33394  -0.33264  -0.33074
 Alpha  occ. eigenvalues --   -0.32919  -0.32778  -0.32695  -0.32496  -0.32257
 Alpha  occ. eigenvalues --   -0.32087  -0.32040  -0.31988  -0.31781  -0.31651
 Alpha  occ. eigenvalues --   -0.31587  -0.31336  -0.31054  -0.30958  -0.30846
 Alpha  occ. eigenvalues --   -0.30375  -0.30152  -0.29909  -0.29609  -0.29599
 Alpha  occ. eigenvalues --   -0.29558  -0.29314  -0.29253  -0.29116  -0.28951
 Alpha  occ. eigenvalues --   -0.28864  -0.28736  -0.28545  -0.28358  -0.28269
 Alpha  occ. eigenvalues --   -0.27713  -0.27208  -0.27118  -0.26904  -0.26167
 Alpha  occ. eigenvalues --   -0.26068  -0.26023  -0.25569  -0.25310  -0.25146
 Alpha  occ. eigenvalues --   -0.24863  -0.24725  -0.24412  -0.23739  -0.23496
 Alpha  occ. eigenvalues --   -0.23181  -0.22965  -0.21913  -0.20825  -0.20747
 Alpha  occ. eigenvalues --   -0.20724  -0.20195  -0.18689  -0.18473  -0.17107
 Alpha  occ. eigenvalues --   -0.15607
 Alpha virt. eigenvalues --   -0.11215  -0.06886  -0.05934  -0.05098  -0.04361
 Alpha virt. eigenvalues --   -0.02819  -0.02009  -0.01834  -0.00858   0.00416
 Alpha virt. eigenvalues --    0.01406   0.01897   0.02508   0.02749   0.03050

 Mulliken charges:
               1
     1  Mg   0.682752
     2  C    0.004585
     3  C   -0.050594
     4  C   -0.032038
     5  C   -0.070948
     6  N   -0.169803
     7  C   -0.084025
     8  C    0.004192
     9  C    0.064015
    10  C   -0.066507
    11  C    0.123371
    12  C    0.130768
    13  C    0.161198
    14  C    0.091499
    15  O   -0.205729
    16  O   -0.305110
    17  N   -0.294873
    18  C    0.170780
    19  C   -0.145906
    20  C    0.049470
    21  C    0.068791
    22  C    0.164154
    23  C   -0.083395
    24  O   -0.190148
    25  C    0.155626
    26  N   -0.188907
    27  C    0.031328
    28  C    0.007520
    29  C    0.007786
    30  C   -0.000666
    31  C    0.138795
    32  C    0.081638
    33  C    0.062278
    34  N   -0.264260
    35  C    0.119840
    36  C   -0.157521
    37  C    0.074875
    38  C    0.062997
    39  C    0.179553
    40  C   -0.091165
    41  O   -0.105989
    42  C    0.108705
    43  C    0.133475
    44  O   -0.213988
    45  O   -0.263938
    46  C    0.222667
    47  C    0.300631
    48  C   -0.136176
    49  C   -0.135201
    50  C    0.173412
    51  C    0.178241
    52  C    0.073536
    53  C    0.068161
    54  C   -0.074838
    55  C    0.116657
    56  C    0.109338
    57  C    0.066668
    58  C    0.099378
    59  C   -0.037709
    60  C    0.084484
    61  C    0.064322
    62  C    0.053568
    63  C    0.126948
    64  C   -0.107406
    65  C    0.113316
    66  C    0.087024
    67  H   -0.082915
    68  H   -0.040369
    69  H   -0.062863
    70  H    0.008190
    71  H   -0.024663
    72  H    0.011223
    73  H   -0.018843
    74  H   -0.022015
    75  H   -0.034016
    76  H   -0.026658
    77  H    0.004167
    78  H    0.007947
    79  H   -0.027755
    80  H    0.015807
    81  H    0.004607
    82  H    0.002142
    83  H   -0.007558
    84  H    0.003828
    85  H   -0.020222
    86  H   -0.019026
    87  H    0.001586
    88  H   -0.000470
    89  H   -0.015500
    90  H   -0.022625
    91  H   -0.026715
    92  H   -0.001784
    93  H   -0.010538
    94  H   -0.005602
    95  H   -0.004131
    96  H    0.002177
    97  H    0.005955
    98  H   -0.009653
    99  H    0.011155
   100  H    0.030143
   101  H    0.001537
   102  H    0.016315
   103  H    0.015028
   104  H   -0.034505
   105  H    0.009365
   106  H   -0.018758
   107  H   -0.001381
   108  H   -0.032449
   109  H   -0.037234
   110  H   -0.032500
   111  H   -0.036963
   112  H   -0.038310
   113  H   -0.046055
   114  H   -0.056792
   115  H   -0.033443
   116  H   -0.018865
   117  H   -0.008767
   118  H   -0.053920
   119  H   -0.040567
   120  H   -0.026370
   121  H   -0.038277
   122  H   -0.023040
   123  H   -0.039039
   124  H   -0.056713
   125  H   -0.025173
   126  H   -0.004132
   127  H   -0.017577
   128  H   -0.038972
   129  H   -0.036963
   130  H   -0.024023
   131  H   -0.020225
   132  H   -0.035816
   133  H   -0.021323
   134  H   -0.017703
   135  H   -0.021882
   136  H   -0.019270
   137  H   -0.010401
   138  H   -0.011099
   139  H   -0.023656
   140  H   -0.006588
 Sum of Mulliken charges =  -0.00000

 Dipole moment (field-independent basis, Debye):
    X=              3.9773    Y=              2.0070    Z=             -2.9326  Tot=              5.3336
 Quadrupole moment (field-independent basis, Debye-Ang):
   XX=           -379.2187   YY=           -437.3286   ZZ=           -407.2226
   XY=             -7.8660   XZ=              6.6991   YZ=             12.5144

 Normal termination of Gaussian 16 at Fri Apr 29 07:19:30 2022.
