 Gaussian 16, Revision A.03,
 Gaussian 16:  ES64L-G16RevA.03 25-Dec-2016

 -----------------------------------
 #p cam-b3lyp/Def2SVP td=(nstates=5)
 -----------------------------------

 ----------------------------------------------------
 step_1_chromophore_3 TDDFT with cam-b3lyp functional
 ----------------------------------------------------
 Symbolic Z-matrix:
 Charge =  0 Multiplicity = 1

                         Standard orientation:
 ---------------------------------------------------------------------
 Center     Atomic      Atomic             Coordinates (Angstroms)
 Number     Number       Type             X           Y           Z
 ---------------------------------------------------------------------
      1         12           0       -5.354145    0.712393    0.087725
      2          6           0       -4.085157   -2.473661   -0.004536
      3          6           0       -2.146047    1.919766    0.175955
      4          6           0       -6.618796    3.935070    0.295471
      5          6           0       -8.555727   -0.569645    0.443553
      6          7           0       -3.292203   -0.171247    0.138138
      7          6           0       -3.073232   -1.512027   -0.002521
      8          6           0       -1.652443   -1.805551   -0.057089
      9          6           0       -0.953856   -0.480661    0.204951
     10          6           0       -2.185207    0.527042    0.213889
     11          6           0       -0.057050   -0.340488    1.483242
     12          6           0       -1.250655   -2.475606   -1.415074
     13          6           0       -0.079990   -3.517740   -1.376748
     14          6           0        0.988376   -3.336835   -0.280617
     15          8           0        1.262449   -4.020939    0.725735
     16          8           0        1.831097   -2.277107   -0.654700
     17          7           0       -4.464831    2.658645    0.101743
     18          6           0       -3.104709    2.916095    0.116096
     19          6           0       -2.896020    4.377895    0.148837
     20          6           0       -4.220351    4.995205    0.178332
     21          6           0       -5.172506    3.871002    0.168798
     22          6           0       -1.536611    5.056668    0.188740
     23          6           0       -4.553192    6.466588    0.094327
     24          8           0       -5.746466    6.814037    0.051682
     25          6           0       -3.552507    7.560976    0.092911
     26          7           0       -7.298338    1.577917    0.412527
     27          6           0       -7.532430    2.893249    0.396556
     28          6           0       -9.043233    3.178636    0.423921
     29          6           0       -9.735727    1.723408    0.215369
     30          6           0       -8.431794    0.852737    0.282134
     31          6           0       -9.458234    3.919278    1.732429
     32          6           0      -10.466201    1.518536   -1.140082
     33          6           0      -11.994737    1.389942   -1.059910
     34          7           0       -6.205634   -1.143798    0.271564
     35          6           0       -7.538253   -1.532009    0.427931
     36          6           0       -7.636532   -3.007690    0.477395
     37          6           0       -6.278969   -3.376161    0.325491
     38          6           0       -5.460051   -2.220617    0.215347
     39          6           0       -8.824662   -3.830415    0.582163
     40          6           0       -5.390430   -4.541717    0.138071
     41          8           0       -5.622672   -5.718674    0.056969
     42          6           0       -3.931425   -3.988850   -0.038900
     43          6           0       -3.061956   -4.646594    0.949617
     44          8           0       -3.154583   -4.360473    2.154227
     45          8           0       -2.098407   -5.450060    0.421241
     46          6           0       -1.066085   -5.981489    1.305578
     47          6           0        3.182141   -2.306679   -0.026181
     48          6           0        4.011992   -2.174257   -1.317104
     49          6           0        5.219470   -2.701509   -1.638293
     50          6           0        5.928937   -3.775038   -0.841232
     51          6           0        5.802518   -2.397504   -2.975348
     52          6           0        7.180186   -1.680298   -3.012137
     53          6           0        7.038174   -0.111686   -3.272575
     54          6           0        8.206982    0.814200   -3.473730
     55          6           0        7.896297    1.911181   -4.490000
     56          6           0        8.732522    1.485405   -2.209340
     57          6           0       10.186490    1.342290   -1.853686
     58          6           0       10.648542    2.580184   -1.100070
     59          6           0       12.077154    2.375647   -0.488268
     60          6           0       13.145160    2.174510   -1.589899
     61          6           0       12.215960    1.297076    0.595379
     62          6           0       13.208133    1.721609    1.718058
     63          6           0       13.632838    0.496424    2.651199
     64          6           0       13.697352    0.984965    4.128233
     65          6           0       14.828909    0.186117    4.872193
     66          6           0       12.294972    0.615897    4.749607
     67          1           0       -1.112590    2.271574    0.201781
     68          1           0       -6.995712    4.955091    0.397619
     69          1           0       -9.588028   -0.925103    0.427492
     70          1           0       -1.423254   -2.497014    0.754478
     71          1           0       -0.406380   -0.139951   -0.674619
     72          1           0        0.101485   -1.172939    2.169571
     73          1           0       -0.447918    0.486580    2.075427
     74          1           0        0.948660    0.022717    1.270310
     75          1           0       -1.068746   -1.704262   -2.163527
     76          1           0       -2.144810   -2.893773   -1.876996
     77          1           0        0.432597   -3.538090   -2.338902
     78          1           0       -0.417117   -4.525890   -1.137572
     79          1           0       -0.704643    4.365374    0.058903
     80          1           0       -1.364228    5.533225    1.154178
     81          1           0       -1.408865    5.688499   -0.690039
     82          1           0       -4.109155    8.483890   -0.066976
     83          1           0       -2.783658    7.447798   -0.672513
     84          1           0       -2.982806    7.532385    1.021898
     85          1           0       -9.275298    3.730692   -0.486930
     86          1           0      -10.383022    1.445899    1.047220
     87          1           0      -10.073415    4.801686    1.555833
     88          1           0       -8.579343    4.256953    2.282311
     89          1           0       -9.956987    3.149654    2.321998
     90          1           0      -10.125876    0.638142   -1.683947
     91          1           0      -10.265330    2.332810   -1.836638
     92          1           0      -12.358999    1.934018   -0.188402
     93          1           0      -12.235768    0.335315   -0.930389
     94          1           0      -12.383434    1.702330   -2.028276
     95          1           0       -8.657464   -4.857169    0.257461
     96          1           0       -9.672084   -3.437572    0.020678
     97          1           0       -9.022776   -3.987876    1.642479
     98          1           0       -3.723602   -4.286424   -1.067255
     99          1           0       -1.433860   -6.686728    2.051382
    100          1           0       -0.479970   -5.176882    1.749523
    101          1           0       -0.359557   -6.572620    0.723135
    102          1           0        3.431196   -3.223289    0.506550
    103          1           0        3.366486   -1.432451    0.598070
    104          1           0        3.535881   -1.459534   -1.988635
    105          1           0        5.892476   -4.643171   -1.499353
    106          1           0        5.382783   -3.885496    0.095259
    107          1           0        6.943410   -3.416148   -0.664573
    108          1           0        5.067479   -1.877850   -3.590612
    109          1           0        6.103410   -3.305498   -3.497004
    110          1           0        7.929399   -2.086451   -3.691897
    111          1           0        7.696209   -1.780316   -2.057713
    112          1           0        6.500320    0.455702   -2.513539
    113          1           0        6.416893   -0.047733   -4.166262
    114          1           0        9.036596    0.232788   -3.876113
    115          1           0        6.829155    2.072541   -4.642838
    116          1           0        8.176488    1.433775   -5.428332
    117          1           0        8.260600    2.912186   -4.255569
    118          1           0        8.196341    0.947810   -1.426919
    119          1           0        8.377464    2.515840   -2.165799
    120          1           0       10.744457    1.076304   -2.751006
    121          1           0       10.211727    0.453653   -1.223781
    122          1           0        9.855127    2.958375   -0.455330
    123          1           0       10.852958    3.312754   -1.881555
    124          1           0       12.247057    3.320269    0.028615
    125          1           0       13.163031    2.974971   -2.328940
    126          1           0       12.918473    1.260945   -2.141091
    127          1           0       14.164900    2.193718   -1.206551
    128          1           0       12.529555    0.438134    0.001761
    129          1           0       11.236090    1.064234    1.012819
    130          1           0       12.609601    2.467573    2.241022
    131          1           0       14.023681    2.194288    1.169355
    132          1           0       14.589328    0.178066    2.237894
    133          1           0       12.974534   -0.344429    2.430940
    134          1           0       13.755390    2.053879    4.329986
    135          1           0       15.519947   -0.329189    4.205326
    136          1           0       14.400575   -0.629765    5.454876
    137          1           0       15.369990    0.915748    5.474308
    138          1           0       11.969866    1.606354    5.066535
    139          1           0       12.364956   -0.025027    5.629022
    140          1           0       11.653599    0.023263    4.098019
 ---------------------------------------------------------------------

 SCF Done:  E(RCAM-B3LYP) =  -3007.19629724     A.U. after   17 cycles

 Excitation energies and oscillator strengths:

 Excited State   1:      Singlet-A      1.7312 eV  716.16 nm  f=0.3801  <S**2>=0.000
     245 -> 248        0.18899
     246 -> 247        0.68226
     245 <- 248        0.10880
 This state for optimization and/or second-order correction.
 Total Energy, E(TD-HF/TD-DFT) =  -3007.13267589
 Copying the excited state density for this state as the 1-particle RhoCI density.

 Excited State   2:      Singlet-A      2.2547 eV  549.90 nm  f=0.0891  <S**2>=0.000
     245 -> 247        0.62492
     246 -> 248       -0.31750

 Excited State   3:      Singlet-A      3.4100 eV  363.59 nm  f=0.1959  <S**2>=0.000
     244 -> 247        0.54077
     245 -> 247        0.16375
     246 -> 248        0.40551

 Excited State   4:      Singlet-A      3.5316 eV  351.07 nm  f=0.4274  <S**2>=0.000
     241 -> 247        0.12434
     243 -> 247        0.28546
     244 -> 247       -0.40474
     245 -> 247        0.21862
     246 -> 248        0.41073

 Excited State   5:      Singlet-A      3.6383 eV  340.78 nm  f=0.1094  <S**2>=0.000
     239 -> 247        0.17839
     240 -> 249        0.14616
     241 -> 247        0.49392
     241 -> 249       -0.21099
     241 -> 250        0.10226
     241 -> 251        0.15189
     243 -> 247        0.15840
     244 -> 247        0.13373
     245 -> 247       -0.10912
     246 -> 248       -0.16976

 The electronic state is 1-A.
 Alpha  occ. eigenvalues --  -46.88887 -19.25323 -19.25245 -19.21554 -19.18928
 Alpha  occ. eigenvalues --  -19.18791 -19.18367 -14.41818 -14.41760 -14.39488
 Alpha  occ. eigenvalues --  -14.39229 -10.40977 -10.39060 -10.34963 -10.34731
 Alpha  occ. eigenvalues --  -10.32627 -10.30902 -10.30650 -10.30611 -10.30524
 Alpha  occ. eigenvalues --  -10.30503 -10.30101 -10.30016 -10.29897 -10.29157
 Alpha  occ. eigenvalues --  -10.28777 -10.28659 -10.28349 -10.28303 -10.28266
 Alpha  occ. eigenvalues --  -10.27888 -10.27848 -10.27772 -10.27605 -10.27527
 Alpha  occ. eigenvalues --  -10.27381 -10.27380 -10.27240 -10.26972 -10.26483
 Alpha  occ. eigenvalues --  -10.26448 -10.26412 -10.26199 -10.26117 -10.26107
 Alpha  occ. eigenvalues --  -10.26013 -10.26008 -10.26000 -10.25996 -10.25868
 Alpha  occ. eigenvalues --  -10.25495 -10.25343 -10.25324 -10.25206 -10.25201
 Alpha  occ. eigenvalues --  -10.25095 -10.24960 -10.24949 -10.24929 -10.24668
 Alpha  occ. eigenvalues --  -10.24324 -10.24313 -10.24291 -10.24286 -10.24225
 Alpha  occ. eigenvalues --  -10.23749  -3.17309  -1.92231  -1.91749  -1.91616
 Alpha  occ. eigenvalues --   -1.15801  -1.15721  -1.10814  -1.08921  -1.07450
 Alpha  occ. eigenvalues --   -1.06550  -1.05165  -1.04041  -1.03358  -1.00957
 Alpha  occ. eigenvalues --   -0.92459  -0.91038  -0.90318  -0.89929  -0.88911
 Alpha  occ. eigenvalues --   -0.88262  -0.87699  -0.87373  -0.87163  -0.86758
 Alpha  occ. eigenvalues --   -0.86263  -0.85642  -0.84339  -0.83570  -0.83405
 Alpha  occ. eigenvalues --   -0.82709  -0.81933  -0.81393  -0.80691  -0.80393
 Alpha  occ. eigenvalues --   -0.80006  -0.78576  -0.78187  -0.77034  -0.76337
 Alpha  occ. eigenvalues --   -0.76060  -0.75050  -0.74920  -0.74749  -0.74187
 Alpha  occ. eigenvalues --   -0.73617  -0.72587  -0.71914  -0.71378  -0.68528
 Alpha  occ. eigenvalues --   -0.68405  -0.68194  -0.66988  -0.66809  -0.66338
 Alpha  occ. eigenvalues --   -0.66072  -0.65423  -0.64859  -0.64322  -0.63958
 Alpha  occ. eigenvalues --   -0.63878  -0.63481  -0.62208  -0.61261  -0.60172
 Alpha  occ. eigenvalues --   -0.59642  -0.59446  -0.59076  -0.58503  -0.58492
 Alpha  occ. eigenvalues --   -0.57366  -0.56925  -0.55981  -0.55690  -0.55608
 Alpha  occ. eigenvalues --   -0.55275  -0.54796  -0.54546  -0.54377  -0.54093
 Alpha  occ. eigenvalues --   -0.53983  -0.53398  -0.53259  -0.52920  -0.52835
 Alpha  occ. eigenvalues --   -0.52472  -0.52419  -0.52281  -0.51960  -0.51662
 Alpha  occ. eigenvalues --   -0.51548  -0.51377  -0.51121  -0.51102  -0.50622
 Alpha  occ. eigenvalues --   -0.50578  -0.50189  -0.50115  -0.50028  -0.49912
 Alpha  occ. eigenvalues --   -0.49381  -0.49090  -0.48965  -0.48724  -0.48712
 Alpha  occ. eigenvalues --   -0.48594  -0.48463  -0.48196  -0.47923  -0.47640
 Alpha  occ. eigenvalues --   -0.47477  -0.47353  -0.47101  -0.46997  -0.46805
 Alpha  occ. eigenvalues --   -0.46393  -0.46275  -0.45843  -0.45803  -0.45556
 Alpha  occ. eigenvalues --   -0.45492  -0.45285  -0.45138  -0.45021  -0.44866
 Alpha  occ. eigenvalues --   -0.44520  -0.44477  -0.44345  -0.44242  -0.43898
 Alpha  occ. eigenvalues --   -0.43755  -0.43610  -0.43468  -0.43444  -0.43220
 Alpha  occ. eigenvalues --   -0.43176  -0.42931  -0.42700  -0.42472  -0.42283
 Alpha  occ. eigenvalues --   -0.41515  -0.41316  -0.41131  -0.41048  -0.40976
 Alpha  occ. eigenvalues --   -0.40908  -0.40735  -0.40394  -0.40341  -0.40320
 Alpha  occ. eigenvalues --   -0.39911  -0.39869  -0.39540  -0.39488  -0.39266
 Alpha  occ. eigenvalues --   -0.38606  -0.38117  -0.37896  -0.37672  -0.37407
 Alpha  occ. eigenvalues --   -0.36802  -0.36695  -0.36581  -0.36333  -0.36197
 Alpha  occ. eigenvalues --   -0.36036  -0.35416  -0.35021  -0.34991  -0.34037
 Alpha  occ. eigenvalues --   -0.33813  -0.33533  -0.33054  -0.31129  -0.30881
 Alpha  occ. eigenvalues --   -0.30584  -0.30257  -0.30017  -0.29502  -0.23874
 Alpha  occ. eigenvalues --   -0.20800
 Alpha virt. eigenvalues --   -0.08272  -0.01738   0.00550   0.02534   0.02611
 Alpha virt. eigenvalues --    0.03118   0.04897   0.05407   0.06073   0.06846
 Alpha virt. eigenvalues --    0.08339   0.08727   0.08929   0.09186   0.09433

 Mulliken charges:
               1
     1  Mg   0.815139
     2  C   -0.020320
     3  C   -0.070158
     4  C   -0.047142
     5  C   -0.073379
     6  N   -0.243764
     7  C   -0.036410
     8  C   -0.057281
     9  C    0.013039
    10  C   -0.039669
    11  C    0.063204
    12  C    0.081559
    13  C    0.096765
    14  C    0.168134
    15  O   -0.249207
    16  O   -0.368842
    17  N   -0.381109
    18  C    0.179823
    19  C   -0.151638
    20  C   -0.018594
    21  C    0.094890
    22  C    0.107362
    23  C   -0.005732
    24  O   -0.232175
    25  C    0.074380
    26  N   -0.261022
    27  C    0.046189
    28  C   -0.044124
    29  C   -0.048494
    30  C    0.017414
    31  C    0.079006
    32  C    0.027460
    33  C    0.003022
    34  N   -0.356440
    35  C    0.120902
    36  C   -0.150074
    37  C   -0.005624
    38  C    0.102521
    39  C    0.121455
    40  C    0.014459
    41  O   -0.145064
    42  C    0.029641
    43  C    0.217538
    44  O   -0.249108
    45  O   -0.328189
    46  C    0.179676
    47  C    0.270208
    48  C   -0.155556
    49  C   -0.156893
    50  C    0.116032
    51  C    0.108252
    52  C    0.023336
    53  C    0.019618
    54  C   -0.130045
    55  C    0.055214
    56  C    0.053384
    57  C    0.014743
    58  C    0.045280
    59  C   -0.100290
    60  C    0.029344
    61  C    0.014682
    62  C    0.006609
    63  C    0.069515
    64  C   -0.169859
    65  C    0.055409
    66  C    0.031828
    67  H   -0.048863
    68  H    0.001125
    69  H   -0.028598
    70  H    0.038881
    71  H    0.011997
    72  H    0.035963
    73  H    0.008614
    74  H    0.002143
    75  H   -0.001233
    76  H    0.005464
    77  H    0.038265
    78  H    0.038231
    79  H    0.002028
    80  H    0.041672
    81  H    0.029803
    82  H    0.037744
    83  H    0.020515
    84  H    0.031199
    85  H    0.014279
    86  H    0.014798
    87  H    0.025667
    88  H    0.025052
    89  H    0.008222
    90  H    0.007500
    91  H    0.001603
    92  H    0.019721
    93  H    0.010953
    94  H    0.018555
    95  H    0.025340
    96  H    0.026094
    97  H    0.033948
    98  H    0.033946
    99  H    0.036046
   100  H    0.054248
   101  H    0.025373
   102  H    0.045903
   103  H    0.039625
   104  H   -0.000261
   105  H    0.032702
   106  H    0.004185
   107  H    0.021628
   108  H   -0.001038
   109  H   -0.005110
   110  H   -0.002667
   111  H   -0.012262
   112  H   -0.011159
   113  H   -0.017263
   114  H   -0.024691
   115  H   -0.007686
   116  H    0.006352
   117  H    0.015603
   118  H   -0.023252
   119  H   -0.011788
   120  H    0.000210
   121  H   -0.010741
   122  H    0.006464
   123  H   -0.009897
   124  H   -0.021993
   125  H    0.000477
   126  H    0.017273
   127  H    0.007226
   128  H   -0.012944
   129  H   -0.009197
   130  H    0.001718
   131  H    0.004892
   132  H   -0.006390
   133  H    0.006976
   134  H    0.013554
   135  H    0.002220
   136  H    0.004096
   137  H    0.013201
   138  H    0.011121
   139  H    0.000564
   140  H    0.015223
 Sum of Mulliken charges =  -0.00000

 Dipole moment (field-independent basis, Debye):
    X=              4.2269    Y=              2.4314    Z=             -3.1838  Tot=              5.8236
 Quadrupole moment (field-independent basis, Debye-Ang):
   XX=           -380.0553   YY=           -433.2079   ZZ=           -407.4404
   XY=             -8.6161   XZ=              6.8627   YZ=             12.9135

 Normal termination of Gaussian 16 at Fri Apr 29 06:19:42 2022.
