 Gaussian 16, Revision A.03,
 Gaussian 16:  ES64L-G16RevA.03 25-Dec-2016

 ---------------------------------
 #p PBE1PBE/Def2SVP td=(nstates=5)
 ---------------------------------

 --------------------------------------------------
 step_1_chromophore_3 TDDFT with PBE1PBE functional
 --------------------------------------------------
 Symbolic Z-matrix:
 Charge =  0 Multiplicity = 1

                         Standard orientation:
 ---------------------------------------------------------------------
 Center     Atomic      Atomic             Coordinates (Angstroms)
 Number     Number       Type             X           Y           Z
 ---------------------------------------------------------------------
      1         12           0       -5.354145    0.712393    0.087725
      2          6           0       -4.085157   -2.473661   -0.004536
      3          6           0       -2.146047    1.919766    0.175955
      4          6           0       -6.618796    3.935070    0.295471
      5          6           0       -8.555727   -0.569645    0.443553
      6          7           0       -3.292203   -0.171247    0.138138
      7          6           0       -3.073232   -1.512027   -0.002521
      8          6           0       -1.652443   -1.805551   -0.057089
      9          6           0       -0.953856   -0.480661    0.204951
     10          6           0       -2.185207    0.527042    0.213889
     11          6           0       -0.057050   -0.340488    1.483242
     12          6           0       -1.250655   -2.475606   -1.415074
     13          6           0       -0.079990   -3.517740   -1.376748
     14          6           0        0.988376   -3.336835   -0.280617
     15          8           0        1.262449   -4.020939    0.725735
     16          8           0        1.831097   -2.277107   -0.654700
     17          7           0       -4.464831    2.658645    0.101743
     18          6           0       -3.104709    2.916095    0.116096
     19          6           0       -2.896020    4.377895    0.148837
     20          6           0       -4.220351    4.995205    0.178332
     21          6           0       -5.172506    3.871002    0.168798
     22          6           0       -1.536611    5.056668    0.188740
     23          6           0       -4.553192    6.466588    0.094327
     24          8           0       -5.746466    6.814037    0.051682
     25          6           0       -3.552507    7.560976    0.092911
     26          7           0       -7.298338    1.577917    0.412527
     27          6           0       -7.532430    2.893249    0.396556
     28          6           0       -9.043233    3.178636    0.423921
     29          6           0       -9.735727    1.723408    0.215369
     30          6           0       -8.431794    0.852737    0.282134
     31          6           0       -9.458234    3.919278    1.732429
     32          6           0      -10.466201    1.518536   -1.140082
     33          6           0      -11.994737    1.389942   -1.059910
     34          7           0       -6.205634   -1.143798    0.271564
     35          6           0       -7.538253   -1.532009    0.427931
     36          6           0       -7.636532   -3.007690    0.477395
     37          6           0       -6.278969   -3.376161    0.325491
     38          6           0       -5.460051   -2.220617    0.215347
     39          6           0       -8.824662   -3.830415    0.582163
     40          6           0       -5.390430   -4.541717    0.138071
     41          8           0       -5.622672   -5.718674    0.056969
     42          6           0       -3.931425   -3.988850   -0.038900
     43          6           0       -3.061956   -4.646594    0.949617
     44          8           0       -3.154583   -4.360473    2.154227
     45          8           0       -2.098407   -5.450060    0.421241
     46          6           0       -1.066085   -5.981489    1.305578
     47          6           0        3.182141   -2.306679   -0.026181
     48          6           0        4.011992   -2.174257   -1.317104
     49          6           0        5.219470   -2.701509   -1.638293
     50          6           0        5.928937   -3.775038   -0.841232
     51          6           0        5.802518   -2.397504   -2.975348
     52          6           0        7.180186   -1.680298   -3.012137
     53          6           0        7.038174   -0.111686   -3.272575
     54          6           0        8.206982    0.814200   -3.473730
     55          6           0        7.896297    1.911181   -4.490000
     56          6           0        8.732522    1.485405   -2.209340
     57          6           0       10.186490    1.342290   -1.853686
     58          6           0       10.648542    2.580184   -1.100070
     59          6           0       12.077154    2.375647   -0.488268
     60          6           0       13.145160    2.174510   -1.589899
     61          6           0       12.215960    1.297076    0.595379
     62          6           0       13.208133    1.721609    1.718058
     63          6           0       13.632838    0.496424    2.651199
     64          6           0       13.697352    0.984965    4.128233
     65          6           0       14.828909    0.186117    4.872193
     66          6           0       12.294972    0.615897    4.749607
     67          1           0       -1.112590    2.271574    0.201781
     68          1           0       -6.995712    4.955091    0.397619
     69          1           0       -9.588028   -0.925103    0.427492
     70          1           0       -1.423254   -2.497014    0.754478
     71          1           0       -0.406380   -0.139951   -0.674619
     72          1           0        0.101485   -1.172939    2.169571
     73          1           0       -0.447918    0.486580    2.075427
     74          1           0        0.948660    0.022717    1.270310
     75          1           0       -1.068746   -1.704262   -2.163527
     76          1           0       -2.144810   -2.893773   -1.876996
     77          1           0        0.432597   -3.538090   -2.338902
     78          1           0       -0.417117   -4.525890   -1.137572
     79          1           0       -0.704643    4.365374    0.058903
     80          1           0       -1.364228    5.533225    1.154178
     81          1           0       -1.408865    5.688499   -0.690039
     82          1           0       -4.109155    8.483890   -0.066976
     83          1           0       -2.783658    7.447798   -0.672513
     84          1           0       -2.982806    7.532385    1.021898
     85          1           0       -9.275298    3.730692   -0.486930
     86          1           0      -10.383022    1.445899    1.047220
     87          1           0      -10.073415    4.801686    1.555833
     88          1           0       -8.579343    4.256953    2.282311
     89          1           0       -9.956987    3.149654    2.321998
     90          1           0      -10.125876    0.638142   -1.683947
     91          1           0      -10.265330    2.332810   -1.836638
     92          1           0      -12.358999    1.934018   -0.188402
     93          1           0      -12.235768    0.335315   -0.930389
     94          1           0      -12.383434    1.702330   -2.028276
     95          1           0       -8.657464   -4.857169    0.257461
     96          1           0       -9.672084   -3.437572    0.020678
     97          1           0       -9.022776   -3.987876    1.642479
     98          1           0       -3.723602   -4.286424   -1.067255
     99          1           0       -1.433860   -6.686728    2.051382
    100          1           0       -0.479970   -5.176882    1.749523
    101          1           0       -0.359557   -6.572620    0.723135
    102          1           0        3.431196   -3.223289    0.506550
    103          1           0        3.366486   -1.432451    0.598070
    104          1           0        3.535881   -1.459534   -1.988635
    105          1           0        5.892476   -4.643171   -1.499353
    106          1           0        5.382783   -3.885496    0.095259
    107          1           0        6.943410   -3.416148   -0.664573
    108          1           0        5.067479   -1.877850   -3.590612
    109          1           0        6.103410   -3.305498   -3.497004
    110          1           0        7.929399   -2.086451   -3.691897
    111          1           0        7.696209   -1.780316   -2.057713
    112          1           0        6.500320    0.455702   -2.513539
    113          1           0        6.416893   -0.047733   -4.166262
    114          1           0        9.036596    0.232788   -3.876113
    115          1           0        6.829155    2.072541   -4.642838
    116          1           0        8.176488    1.433775   -5.428332
    117          1           0        8.260600    2.912186   -4.255569
    118          1           0        8.196341    0.947810   -1.426919
    119          1           0        8.377464    2.515840   -2.165799
    120          1           0       10.744457    1.076304   -2.751006
    121          1           0       10.211727    0.453653   -1.223781
    122          1           0        9.855127    2.958375   -0.455330
    123          1           0       10.852958    3.312754   -1.881555
    124          1           0       12.247057    3.320269    0.028615
    125          1           0       13.163031    2.974971   -2.328940
    126          1           0       12.918473    1.260945   -2.141091
    127          1           0       14.164900    2.193718   -1.206551
    128          1           0       12.529555    0.438134    0.001761
    129          1           0       11.236090    1.064234    1.012819
    130          1           0       12.609601    2.467573    2.241022
    131          1           0       14.023681    2.194288    1.169355
    132          1           0       14.589328    0.178066    2.237894
    133          1           0       12.974534   -0.344429    2.430940
    134          1           0       13.755390    2.053879    4.329986
    135          1           0       15.519947   -0.329189    4.205326
    136          1           0       14.400575   -0.629765    5.454876
    137          1           0       15.369990    0.915748    5.474308
    138          1           0       11.969866    1.606354    5.066535
    139          1           0       12.364956   -0.025027    5.629022
    140          1           0       11.653599    0.023263    4.098019
 ---------------------------------------------------------------------

 SCF Done:  E(RPBE1PBE) =  -3005.38420076     A.U. after   15 cycles

 Excitation energies and oscillator strengths:

 Excited State   1:      Singlet-A      1.8908 eV  655.74 nm  f=0.3642  <S**2>=0.000
     245 -> 248       -0.18084
     246 -> 247        0.68946
     246 <- 247       -0.10387
 This state for optimization and/or second-order correction.
 Total Energy, E(TD-HF/TD-DFT) =  -3005.31471638
 Copying the excited state density for this state as the 1-particle RhoCI density.

 Excited State   2:      Singlet-A      2.2567 eV  549.41 nm  f=0.0943  <S**2>=0.000
     245 -> 247        0.64072
     246 -> 248        0.28437

 Excited State   3:      Singlet-A      3.0895 eV  401.31 nm  f=0.0006  <S**2>=0.000
     240 -> 247       -0.13449
     243 -> 247        0.49926
     243 -> 249       -0.11352
     244 -> 247       -0.44655

 Excited State   4:      Singlet-A      3.1244 eV  396.82 nm  f=0.0091  <S**2>=0.000
     241 -> 247       -0.27884
     243 -> 247        0.38326
     244 -> 247        0.44671
     246 -> 248       -0.19628

 Excited State   5:      Singlet-A      3.1550 eV  392.97 nm  f=0.0016  <S**2>=0.000
     241 -> 247        0.59846
     241 -> 249        0.15148
     243 -> 247        0.13148
     244 -> 247        0.24224

 The electronic state is 1-A.
 Alpha  occ. eigenvalues --  -46.92277 -19.26034 -19.25865 -19.21825 -19.19145
 Alpha  occ. eigenvalues --  -19.19018 -19.18560 -14.41302 -14.41254 -14.39177
 Alpha  occ. eigenvalues --  -14.38877 -10.38033 -10.36052 -10.32048 -10.31902
 Alpha  occ. eigenvalues --  -10.30049 -10.28726 -10.28322 -10.28321 -10.28207
 Alpha  occ. eigenvalues --  -10.27817 -10.27768 -10.27680 -10.27669 -10.26815
 Alpha  occ. eigenvalues --  -10.26339 -10.26266 -10.26042 -10.26033 -10.25946
 Alpha  occ. eigenvalues --  -10.25785 -10.25605 -10.25482 -10.25367 -10.25235
 Alpha  occ. eigenvalues --  -10.25217 -10.24905 -10.24773 -10.24607 -10.24110
 Alpha  occ. eigenvalues --  -10.24027 -10.23906 -10.23804 -10.23688 -10.23685
 Alpha  occ. eigenvalues --  -10.23655 -10.23581 -10.23442 -10.23339 -10.23317
 Alpha  occ. eigenvalues --  -10.23020 -10.22996 -10.22964 -10.22790 -10.22785
 Alpha  occ. eigenvalues --  -10.22647 -10.22630 -10.22532 -10.22481 -10.22075
 Alpha  occ. eigenvalues --  -10.21820 -10.21761 -10.21740 -10.21707 -10.21691
 Alpha  occ. eigenvalues --  -10.21302  -3.14284  -1.87146  -1.86642  -1.86513
 Alpha  occ. eigenvalues --   -1.10561  -1.10484  -1.05579  -1.03594  -1.02293
 Alpha  occ. eigenvalues --   -1.01335  -0.99779  -0.98706  -0.98039  -0.95593
 Alpha  occ. eigenvalues --   -0.86802  -0.85163  -0.84472  -0.84134  -0.83010
 Alpha  occ. eigenvalues --   -0.82560  -0.82009  -0.81479  -0.81471  -0.81100
 Alpha  occ. eigenvalues --   -0.80460  -0.79862  -0.78496  -0.77891  -0.77669
 Alpha  occ. eigenvalues --   -0.76906  -0.76132  -0.75605  -0.74948  -0.74731
 Alpha  occ. eigenvalues --   -0.74164  -0.72880  -0.72450  -0.71359  -0.70659
 Alpha  occ. eigenvalues --   -0.70242  -0.69265  -0.69139  -0.68891  -0.68343
 Alpha  occ. eigenvalues --   -0.67891  -0.67050  -0.66188  -0.65843  -0.62835
 Alpha  occ. eigenvalues --   -0.62716  -0.62621  -0.61449  -0.61077  -0.60539
 Alpha  occ. eigenvalues --   -0.60454  -0.59838  -0.59432  -0.58874  -0.58437
 Alpha  occ. eigenvalues --   -0.58040  -0.57618  -0.56783  -0.55510  -0.54657
 Alpha  occ. eigenvalues --   -0.54200  -0.53880  -0.53643  -0.53139  -0.52943
 Alpha  occ. eigenvalues --   -0.51910  -0.51426  -0.50602  -0.50162  -0.50087
 Alpha  occ. eigenvalues --   -0.49804  -0.49284  -0.48961  -0.48784  -0.48629
 Alpha  occ. eigenvalues --   -0.48334  -0.47912  -0.47847  -0.47598  -0.47329
 Alpha  occ. eigenvalues --   -0.47015  -0.46930  -0.46650  -0.46458  -0.46216
 Alpha  occ. eigenvalues --   -0.46110  -0.45954  -0.45717  -0.45686  -0.45160
 Alpha  occ. eigenvalues --   -0.45146  -0.44848  -0.44739  -0.44524  -0.44437
 Alpha  occ. eigenvalues --   -0.44005  -0.43662  -0.43580  -0.43298  -0.43260
 Alpha  occ. eigenvalues --   -0.43149  -0.43065  -0.42805  -0.42535  -0.42258
 Alpha  occ. eigenvalues --   -0.42025  -0.42022  -0.41749  -0.41651  -0.41456
 Alpha  occ. eigenvalues --   -0.41008  -0.40925  -0.40632  -0.40519  -0.40297
 Alpha  occ. eigenvalues --   -0.40228  -0.40018  -0.39833  -0.39738  -0.39645
 Alpha  occ. eigenvalues --   -0.39260  -0.39162  -0.39126  -0.38965  -0.38662
 Alpha  occ. eigenvalues --   -0.38515  -0.38404  -0.38311  -0.38256  -0.38028
 Alpha  occ. eigenvalues --   -0.37892  -0.37701  -0.37501  -0.37339  -0.37153
 Alpha  occ. eigenvalues --   -0.36378  -0.36090  -0.35872  -0.35839  -0.35816
 Alpha  occ. eigenvalues --   -0.35695  -0.35453  -0.35276  -0.35189  -0.35111
 Alpha  occ. eigenvalues --   -0.34724  -0.34659  -0.34518  -0.34363  -0.34059
 Alpha  occ. eigenvalues --   -0.33404  -0.33096  -0.32732  -0.32482  -0.32425
 Alpha  occ. eigenvalues --   -0.31784  -0.31666  -0.31448  -0.31272  -0.31062
 Alpha  occ. eigenvalues --   -0.31023  -0.30297  -0.29861  -0.29837  -0.29259
 Alpha  occ. eigenvalues --   -0.28831  -0.28824  -0.28088  -0.26672  -0.25735
 Alpha  occ. eigenvalues --   -0.25666  -0.25605  -0.25447  -0.25115  -0.20802
 Alpha  occ. eigenvalues --   -0.18492
 Alpha virt. eigenvalues --   -0.10763  -0.05227  -0.03655  -0.02021  -0.01754
 Alpha virt. eigenvalues --    0.00155   0.00433   0.01050   0.02058   0.03174
 Alpha virt. eigenvalues --    0.04154   0.05055   0.05491   0.05703   0.05971

 Mulliken charges:
               1
     1  Mg   0.961089
     2  C   -0.022078
     3  C   -0.074444
     4  C   -0.032780
     5  C   -0.061513
     6  N   -0.354507
     7  C    0.031809
     8  C   -0.136326
     9  C   -0.060777
    10  C    0.011387
    11  C    0.006593
    12  C    0.035543
    13  C    0.020257
    14  C    0.230012
    15  O   -0.283949
    16  O   -0.392949
    17  N   -0.492196
    18  C    0.203341
    19  C   -0.177891
    20  C   -0.069087
    21  C    0.130561
    22  C    0.049701
    23  C    0.041126
    24  O   -0.268008
    25  C    0.003027
    26  N   -0.367750
    27  C    0.071785
    28  C   -0.114309
    29  C   -0.125918
    30  C    0.054689
    31  C    0.019605
    32  C   -0.024662
    33  C   -0.071829
    34  N   -0.489157
    35  C    0.137333
    36  C   -0.169360
    37  C   -0.059698
    38  C    0.164028
    39  C    0.068107
    40  C    0.117678
    41  O   -0.192395
    42  C   -0.079592
    43  C    0.306604
    44  O   -0.282586
    45  O   -0.363638
    46  C    0.122297
    47  C    0.226158
    48  C   -0.166406
    49  C   -0.197361
    50  C    0.049807
    51  C    0.039865
    52  C   -0.038649
    53  C   -0.033209
    54  C   -0.216786
    55  C   -0.003968
    56  C    0.000507
    57  C   -0.044264
    58  C   -0.016605
    59  C   -0.190615
    60  C   -0.029179
    61  C   -0.035183
    62  C   -0.056208
    63  C    0.013151
    64  C   -0.265914
    65  C   -0.003033
    66  C   -0.021723
    67  H   -0.013921
    68  H    0.032237
    69  H    0.003401
    70  H    0.081236
    71  H    0.048360
    72  H    0.061249
    73  H    0.036594
    74  H    0.030115
    75  H    0.030355
    76  H    0.038749
    77  H    0.069903
    78  H    0.073454
    79  H    0.029421
    80  H    0.068448
    81  H    0.056960
    82  H    0.064122
    83  H    0.047269
    84  H    0.058087
    85  H    0.051128
    86  H    0.049713
    87  H    0.052846
    88  H    0.052953
    89  H    0.036585
    90  H    0.040359
    91  H    0.033679
    92  H    0.047622
    93  H    0.039267
    94  H    0.046557
    95  H    0.053421
    96  H    0.051720
    97  H    0.062532
    98  H    0.071893
    99  H    0.058714
   100  H    0.077503
   101  H    0.046946
   102  H    0.071445
   103  H    0.065939
   104  H    0.029646
   105  H    0.060137
   106  H    0.033389
   107  H    0.049632
   108  H    0.029669
   109  H    0.029106
   110  H    0.028538
   111  H    0.022031
   112  H    0.022198
   113  H    0.016668
   114  H    0.014235
   115  H    0.020071
   116  H    0.034793
   117  H    0.042090
   118  H    0.012237
   119  H    0.019857
   120  H    0.031022
   121  H    0.023008
   122  H    0.037534
   123  H    0.025722
   124  H    0.017671
   125  H    0.028611
   126  H    0.043972
   127  H    0.035082
   128  H    0.019576
   129  H    0.024106
   130  H    0.034970
   131  H    0.038158
   132  H    0.026595
   133  H    0.037915
   134  H    0.048611
   135  H    0.029254
   136  H    0.030754
   137  H    0.040675
   138  H    0.037687
   139  H    0.027341
   140  H    0.041017
 Sum of Mulliken charges =  -0.00000

 Dipole moment (field-independent basis, Debye):
    X=              4.1311    Y=              2.3537    Z=             -3.2167  Tot=              5.7405
 Quadrupole moment (field-independent basis, Debye-Ang):
   XX=           -373.5948   YY=           -430.7698   ZZ=           -404.8776
   XY=             -8.6883   XZ=              6.6418   YZ=             12.9222

 Normal termination of Gaussian 16 at Fri Apr 29 06:37:33 2022.
