 Gaussian 16, Revision A.03,
 Gaussian 16:  ES64L-G16RevA.03 25-Dec-2016

 --------------------------------
 #p wB97XD/Def2SVP td=(nstates=5)
 --------------------------------

 -------------------------------------------------
 step_1_chromophore_3 TDDFT with wB97XD functional
 -------------------------------------------------
 Symbolic Z-matrix:
 Charge =  0 Multiplicity = 1

                         Standard orientation:
 ---------------------------------------------------------------------
 Center     Atomic      Atomic             Coordinates (Angstroms)
 Number     Number       Type             X           Y           Z
 ---------------------------------------------------------------------
      1         12           0       -5.354145    0.712393    0.087725
      2          6           0       -4.085157   -2.473661   -0.004536
      3          6           0       -2.146047    1.919766    0.175955
      4          6           0       -6.618796    3.935070    0.295471
      5          6           0       -8.555727   -0.569645    0.443553
      6          7           0       -3.292203   -0.171247    0.138138
      7          6           0       -3.073232   -1.512027   -0.002521
      8          6           0       -1.652443   -1.805551   -0.057089
      9          6           0       -0.953856   -0.480661    0.204951
     10          6           0       -2.185207    0.527042    0.213889
     11          6           0       -0.057050   -0.340488    1.483242
     12          6           0       -1.250655   -2.475606   -1.415074
     13          6           0       -0.079990   -3.517740   -1.376748
     14          6           0        0.988376   -3.336835   -0.280617
     15          8           0        1.262449   -4.020939    0.725735
     16          8           0        1.831097   -2.277107   -0.654700
     17          7           0       -4.464831    2.658645    0.101743
     18          6           0       -3.104709    2.916095    0.116096
     19          6           0       -2.896020    4.377895    0.148837
     20          6           0       -4.220351    4.995205    0.178332
     21          6           0       -5.172506    3.871002    0.168798
     22          6           0       -1.536611    5.056668    0.188740
     23          6           0       -4.553192    6.466588    0.094327
     24          8           0       -5.746466    6.814037    0.051682
     25          6           0       -3.552507    7.560976    0.092911
     26          7           0       -7.298338    1.577917    0.412527
     27          6           0       -7.532430    2.893249    0.396556
     28          6           0       -9.043233    3.178636    0.423921
     29          6           0       -9.735727    1.723408    0.215369
     30          6           0       -8.431794    0.852737    0.282134
     31          6           0       -9.458234    3.919278    1.732429
     32          6           0      -10.466201    1.518536   -1.140082
     33          6           0      -11.994737    1.389942   -1.059910
     34          7           0       -6.205634   -1.143798    0.271564
     35          6           0       -7.538253   -1.532009    0.427931
     36          6           0       -7.636532   -3.007690    0.477395
     37          6           0       -6.278969   -3.376161    0.325491
     38          6           0       -5.460051   -2.220617    0.215347
     39          6           0       -8.824662   -3.830415    0.582163
     40          6           0       -5.390430   -4.541717    0.138071
     41          8           0       -5.622672   -5.718674    0.056969
     42          6           0       -3.931425   -3.988850   -0.038900
     43          6           0       -3.061956   -4.646594    0.949617
     44          8           0       -3.154583   -4.360473    2.154227
     45          8           0       -2.098407   -5.450060    0.421241
     46          6           0       -1.066085   -5.981489    1.305578
     47          6           0        3.182141   -2.306679   -0.026181
     48          6           0        4.011992   -2.174257   -1.317104
     49          6           0        5.219470   -2.701509   -1.638293
     50          6           0        5.928937   -3.775038   -0.841232
     51          6           0        5.802518   -2.397504   -2.975348
     52          6           0        7.180186   -1.680298   -3.012137
     53          6           0        7.038174   -0.111686   -3.272575
     54          6           0        8.206982    0.814200   -3.473730
     55          6           0        7.896297    1.911181   -4.490000
     56          6           0        8.732522    1.485405   -2.209340
     57          6           0       10.186490    1.342290   -1.853686
     58          6           0       10.648542    2.580184   -1.100070
     59          6           0       12.077154    2.375647   -0.488268
     60          6           0       13.145160    2.174510   -1.589899
     61          6           0       12.215960    1.297076    0.595379
     62          6           0       13.208133    1.721609    1.718058
     63          6           0       13.632838    0.496424    2.651199
     64          6           0       13.697352    0.984965    4.128233
     65          6           0       14.828909    0.186117    4.872193
     66          6           0       12.294972    0.615897    4.749607
     67          1           0       -1.112590    2.271574    0.201781
     68          1           0       -6.995712    4.955091    0.397619
     69          1           0       -9.588028   -0.925103    0.427492
     70          1           0       -1.423254   -2.497014    0.754478
     71          1           0       -0.406380   -0.139951   -0.674619
     72          1           0        0.101485   -1.172939    2.169571
     73          1           0       -0.447918    0.486580    2.075427
     74          1           0        0.948660    0.022717    1.270310
     75          1           0       -1.068746   -1.704262   -2.163527
     76          1           0       -2.144810   -2.893773   -1.876996
     77          1           0        0.432597   -3.538090   -2.338902
     78          1           0       -0.417117   -4.525890   -1.137572
     79          1           0       -0.704643    4.365374    0.058903
     80          1           0       -1.364228    5.533225    1.154178
     81          1           0       -1.408865    5.688499   -0.690039
     82          1           0       -4.109155    8.483890   -0.066976
     83          1           0       -2.783658    7.447798   -0.672513
     84          1           0       -2.982806    7.532385    1.021898
     85          1           0       -9.275298    3.730692   -0.486930
     86          1           0      -10.383022    1.445899    1.047220
     87          1           0      -10.073415    4.801686    1.555833
     88          1           0       -8.579343    4.256953    2.282311
     89          1           0       -9.956987    3.149654    2.321998
     90          1           0      -10.125876    0.638142   -1.683947
     91          1           0      -10.265330    2.332810   -1.836638
     92          1           0      -12.358999    1.934018   -0.188402
     93          1           0      -12.235768    0.335315   -0.930389
     94          1           0      -12.383434    1.702330   -2.028276
     95          1           0       -8.657464   -4.857169    0.257461
     96          1           0       -9.672084   -3.437572    0.020678
     97          1           0       -9.022776   -3.987876    1.642479
     98          1           0       -3.723602   -4.286424   -1.067255
     99          1           0       -1.433860   -6.686728    2.051382
    100          1           0       -0.479970   -5.176882    1.749523
    101          1           0       -0.359557   -6.572620    0.723135
    102          1           0        3.431196   -3.223289    0.506550
    103          1           0        3.366486   -1.432451    0.598070
    104          1           0        3.535881   -1.459534   -1.988635
    105          1           0        5.892476   -4.643171   -1.499353
    106          1           0        5.382783   -3.885496    0.095259
    107          1           0        6.943410   -3.416148   -0.664573
    108          1           0        5.067479   -1.877850   -3.590612
    109          1           0        6.103410   -3.305498   -3.497004
    110          1           0        7.929399   -2.086451   -3.691897
    111          1           0        7.696209   -1.780316   -2.057713
    112          1           0        6.500320    0.455702   -2.513539
    113          1           0        6.416893   -0.047733   -4.166262
    114          1           0        9.036596    0.232788   -3.876113
    115          1           0        6.829155    2.072541   -4.642838
    116          1           0        8.176488    1.433775   -5.428332
    117          1           0        8.260600    2.912186   -4.255569
    118          1           0        8.196341    0.947810   -1.426919
    119          1           0        8.377464    2.515840   -2.165799
    120          1           0       10.744457    1.076304   -2.751006
    121          1           0       10.211727    0.453653   -1.223781
    122          1           0        9.855127    2.958375   -0.455330
    123          1           0       10.852958    3.312754   -1.881555
    124          1           0       12.247057    3.320269    0.028615
    125          1           0       13.163031    2.974971   -2.328940
    126          1           0       12.918473    1.260945   -2.141091
    127          1           0       14.164900    2.193718   -1.206551
    128          1           0       12.529555    0.438134    0.001761
    129          1           0       11.236090    1.064234    1.012819
    130          1           0       12.609601    2.467573    2.241022
    131          1           0       14.023681    2.194288    1.169355
    132          1           0       14.589328    0.178066    2.237894
    133          1           0       12.974534   -0.344429    2.430940
    134          1           0       13.755390    2.053879    4.329986
    135          1           0       15.519947   -0.329189    4.205326
    136          1           0       14.400575   -0.629765    5.454876
    137          1           0       15.369990    0.915748    5.474308
    138          1           0       11.969866    1.606354    5.066535
    139          1           0       12.364956   -0.025027    5.629022
    140          1           0       11.653599    0.023263    4.098019
 ---------------------------------------------------------------------

 SCF Done:  E(RwB97XD) =  -3007.89341638     A.U. after   19 cycles

 Excitation energies and oscillator strengths:

 Excited State   1:      Singlet-A      1.6712 eV  741.89 nm  f=0.3778  <S**2>=0.000
     245 -> 248        0.19511
     246 -> 247        0.68012
     245 <- 248        0.11863
 This state for optimization and/or second-order correction.
 Total Energy, E(TD-HF/TD-DFT) =  -3007.83200111
 Copying the excited state density for this state as the 1-particle RhoCI density.

 Excited State   2:      Singlet-A      2.1966 eV  564.44 nm  f=0.0868  <S**2>=0.000
     245 -> 247        0.62353
     246 -> 248       -0.31919

 Excited State   3:      Singlet-A      3.4227 eV  362.24 nm  f=0.2275  <S**2>=0.000
     244 -> 247        0.51988
     245 -> 247        0.17008
     246 -> 248        0.42182

 Excited State   4:      Singlet-A      3.5519 eV  349.07 nm  f=0.4191  <S**2>=0.000
     243 -> 247       -0.28873
     244 -> 247        0.42660
     245 -> 247       -0.21463
     246 -> 248       -0.39591

 Excited State   5:      Singlet-A      3.6545 eV  339.26 nm  f=0.0058  <S**2>=0.000
     239 -> 247        0.15656
     239 -> 249        0.10912
     240 -> 247        0.46408
     240 -> 248        0.16667
     240 -> 249        0.33967
     240 -> 250        0.19641
     241 -> 247        0.12118

 The electronic state is 1-A.
 Alpha  occ. eigenvalues --  -46.95223 -19.30544 -19.30467 -19.26473 -19.23971
 Alpha  occ. eigenvalues --  -19.23751 -19.23410 -14.46395 -14.46331 -14.44121
 Alpha  occ. eigenvalues --  -14.43812 -10.44808 -10.42919 -10.38936 -10.38751
 Alpha  occ. eigenvalues --  -10.36526 -10.34909 -10.34694 -10.34668 -10.34509
 Alpha  occ. eigenvalues --  -10.34306 -10.34116 -10.34072 -10.33927 -10.33348
 Alpha  occ. eigenvalues --  -10.32702 -10.32641 -10.32471 -10.32317 -10.32304
 Alpha  occ. eigenvalues --  -10.31952 -10.31909 -10.31895 -10.31659 -10.31641
 Alpha  occ. eigenvalues --  -10.31421 -10.31333 -10.31237 -10.31015 -10.30524
 Alpha  occ. eigenvalues --  -10.30398 -10.30252 -10.30161 -10.30090 -10.30064
 Alpha  occ. eigenvalues --  -10.29974 -10.29945 -10.29921 -10.29870 -10.29727
 Alpha  occ. eigenvalues --  -10.29347 -10.29300 -10.29264 -10.29147 -10.29147
 Alpha  occ. eigenvalues --  -10.29026 -10.28921 -10.28906 -10.28857 -10.28520
 Alpha  occ. eigenvalues --  -10.28224 -10.28163 -10.28139 -10.28109 -10.28105
 Alpha  occ. eigenvalues --  -10.27671  -3.21093  -1.94702  -1.94198  -1.94069
 Alpha  occ. eigenvalues --   -1.17956  -1.17883  -1.13056  -1.11136  -1.09631
 Alpha  occ. eigenvalues --   -1.08738  -1.07161  -1.06047  -1.05379  -1.03007
 Alpha  occ. eigenvalues --   -0.94422  -0.92827  -0.92125  -0.91773  -0.90677
 Alpha  occ. eigenvalues --   -0.90152  -0.89589  -0.89139  -0.89098  -0.88689
 Alpha  occ. eigenvalues --   -0.88215  -0.87510  -0.86162  -0.85510  -0.85291
 Alpha  occ. eigenvalues --   -0.84564  -0.83852  -0.83312  -0.82586  -0.82345
 Alpha  occ. eigenvalues --   -0.81834  -0.80512  -0.80124  -0.78964  -0.78272
 Alpha  occ. eigenvalues --   -0.77913  -0.76846  -0.76839  -0.76571  -0.76015
 Alpha  occ. eigenvalues --   -0.75513  -0.74585  -0.73816  -0.73359  -0.70437
 Alpha  occ. eigenvalues --   -0.70317  -0.70157  -0.68980  -0.68699  -0.68161
 Alpha  occ. eigenvalues --   -0.68038  -0.67322  -0.66872  -0.66324  -0.65917
 Alpha  occ. eigenvalues --   -0.65697  -0.65292  -0.64198  -0.63118  -0.62130
 Alpha  occ. eigenvalues --   -0.61648  -0.61375  -0.61068  -0.60481  -0.60453
 Alpha  occ. eigenvalues --   -0.59335  -0.58856  -0.57975  -0.57612  -0.57533
 Alpha  occ. eigenvalues --   -0.57248  -0.56702  -0.56415  -0.56248  -0.56038
 Alpha  occ. eigenvalues --   -0.55820  -0.55314  -0.55197  -0.54857  -0.54737
 Alpha  occ. eigenvalues --   -0.54407  -0.54330  -0.54209  -0.53827  -0.53543
 Alpha  occ. eigenvalues --   -0.53456  -0.53296  -0.53083  -0.53017  -0.52512
 Alpha  occ. eigenvalues --   -0.52477  -0.52106  -0.52061  -0.51898  -0.51862
 Alpha  occ. eigenvalues --   -0.51320  -0.51045  -0.50860  -0.50645  -0.50583
 Alpha  occ. eigenvalues --   -0.50468  -0.50369  -0.50108  -0.49834  -0.49518
 Alpha  occ. eigenvalues --   -0.49300  -0.49293  -0.49067  -0.48911  -0.48766
 Alpha  occ. eigenvalues --   -0.48259  -0.48167  -0.47780  -0.47703  -0.47492
 Alpha  occ. eigenvalues --   -0.47414  -0.47194  -0.47037  -0.46917  -0.46799
 Alpha  occ. eigenvalues --   -0.46428  -0.46347  -0.46244  -0.46153  -0.45811
 Alpha  occ. eigenvalues --   -0.45661  -0.45547  -0.45396  -0.45363  -0.45137
 Alpha  occ. eigenvalues --   -0.45059  -0.44819  -0.44643  -0.44398  -0.44225
 Alpha  occ. eigenvalues --   -0.43403  -0.43179  -0.43079  -0.42983  -0.42905
 Alpha  occ. eigenvalues --   -0.42810  -0.42586  -0.42263  -0.42247  -0.42187
 Alpha  occ. eigenvalues --   -0.41752  -0.41739  -0.41413  -0.41368  -0.41114
 Alpha  occ. eigenvalues --   -0.40457  -0.40025  -0.39751  -0.39510  -0.39333
 Alpha  occ. eigenvalues --   -0.38879  -0.38695  -0.38480  -0.38323  -0.38033
 Alpha  occ. eigenvalues --   -0.37959  -0.37246  -0.36917  -0.36835  -0.36024
 Alpha  occ. eigenvalues --   -0.35640  -0.35594  -0.35193  -0.33273  -0.32892
 Alpha  occ. eigenvalues --   -0.32589  -0.32294  -0.32184  -0.31698  -0.25792
 Alpha  occ. eigenvalues --   -0.22606
 Alpha virt. eigenvalues --   -0.06637   0.00163   0.02591   0.04681   0.04840
 Alpha virt. eigenvalues --    0.06150   0.07025   0.07749   0.08770   0.09405
 Alpha virt. eigenvalues --    0.10787   0.11929   0.12281   0.12448   0.12803

 Mulliken charges:
               1
     1  Mg   0.952668
     2  C   -0.033393
     3  C   -0.087376
     4  C   -0.053781
     5  C   -0.078890
     6  N   -0.317156
     7  C    0.007237
     8  C   -0.102072
     9  C   -0.039033
    10  C   -0.006299
    11  C    0.015999
    12  C    0.042772
    13  C    0.042913
    14  C    0.213475
    15  O   -0.278746
    16  O   -0.392434
    17  N   -0.461413
    18  C    0.197135
    19  C   -0.169542
    20  C   -0.061119
    21  C    0.119985
    22  C    0.061330
    23  C    0.038512
    24  O   -0.262775
    25  C    0.013357
    26  N   -0.333072
    27  C    0.064307
    28  C   -0.091936
    29  C   -0.098951
    30  C    0.041463
    31  C    0.031100
    32  C   -0.015251
    33  C   -0.053805
    34  N   -0.449142
    35  C    0.129998
    36  C   -0.162374
    37  C   -0.054297
    38  C    0.143002
    39  C    0.075936
    40  C    0.096623
    41  O   -0.182885
    42  C   -0.038213
    43  C    0.280107
    44  O   -0.276174
    45  O   -0.358530
    46  C    0.134775
    47  C    0.241432
    48  C   -0.173858
    49  C   -0.186355
    50  C    0.066139
    51  C    0.058610
    52  C   -0.021057
    53  C   -0.015225
    54  C   -0.187812
    55  C    0.007313
    56  C    0.016632
    57  C   -0.028322
    58  C    0.001597
    59  C   -0.156887
    60  C   -0.017970
    61  C   -0.024048
    62  C   -0.037126
    63  C    0.028461
    64  C   -0.236783
    65  C    0.009408
    66  C   -0.011985
    67  H   -0.023468
    68  H    0.028188
    69  H   -0.002281
    70  H    0.060835
    71  H    0.038538
    72  H    0.058075
    73  H    0.030009
    74  H    0.024185
    75  H    0.024148
    76  H    0.028994
    77  H    0.066001
    78  H    0.062153
    79  H    0.025640
    80  H    0.064280
    81  H    0.051251
    82  H    0.063673
    83  H    0.041513
    84  H    0.053157
    85  H    0.040475
    86  H    0.038501
    87  H    0.048199
    88  H    0.046140
    89  H    0.029863
    90  H    0.031722
    91  H    0.025629
    92  H    0.040633
    93  H    0.032265
    94  H    0.041467
    95  H    0.049992
    96  H    0.047227
    97  H    0.057821
    98  H    0.064068
    99  H    0.056072
   100  H    0.072399
   101  H    0.044585
   102  H    0.064860
   103  H    0.062227
   104  H    0.025444
   105  H    0.054331
   106  H    0.026584
   107  H    0.043256
   108  H    0.022435
   109  H    0.021545
   110  H    0.022587
   111  H    0.009582
   112  H    0.010137
   113  H    0.005154
   114  H    0.000561
   115  H    0.013289
   116  H    0.028999
   117  H    0.036887
   118  H    0.000709
   119  H    0.009287
   120  H    0.020951
   121  H    0.012798
   122  H    0.031047
   123  H    0.014264
   124  H    0.005630
   125  H    0.022779
   126  H    0.035885
   127  H    0.029447
   128  H    0.008275
   129  H    0.014671
   130  H    0.024319
   131  H    0.027524
   132  H    0.018155
   133  H    0.028756
   134  H    0.039444
   135  H    0.022851
   136  H    0.023950
   137  H    0.035611
   138  H    0.032290
   139  H    0.020977
   140  H    0.034351
 Sum of Mulliken charges =  -0.00000

 Dipole moment (field-independent basis, Debye):
    X=              4.2778    Y=              2.5018    Z=             -3.2438  Tot=              5.9229
 Quadrupole moment (field-independent basis, Debye-Ang):
   XX=           -375.1844   YY=           -428.7990   ZZ=           -404.5468
   XY=             -8.8195   XZ=              6.9360   YZ=             12.9871

 Normal termination of Gaussian 16 at Fri Apr 29 07:07:02 2022.
