 Gaussian 16, Revision A.03,
 Gaussian 16:  ES64L-G16RevA.03 25-Dec-2016

 --------------------
 #p ZINDO=(nstates=5)
 --------------------

 --------------------------
 step_1_chromophore_3 ZINDO
 --------------------------
 Symbolic Z-matrix:
 Charge =  0 Multiplicity = 1

                         Standard orientation:
 ---------------------------------------------------------------------
 Center     Atomic      Atomic             Coordinates (Angstroms)
 Number     Number       Type             X           Y           Z
 ---------------------------------------------------------------------
      1         12           0       -5.354145    0.712393    0.087725
      2          6           0       -4.085157   -2.473661   -0.004536
      3          6           0       -2.146047    1.919766    0.175955
      4          6           0       -6.618796    3.935070    0.295471
      5          6           0       -8.555727   -0.569645    0.443553
      6          7           0       -3.292203   -0.171247    0.138138
      7          6           0       -3.073232   -1.512027   -0.002521
      8          6           0       -1.652443   -1.805551   -0.057089
      9          6           0       -0.953856   -0.480661    0.204951
     10          6           0       -2.185207    0.527042    0.213889
     11          6           0       -0.057050   -0.340488    1.483242
     12          6           0       -1.250655   -2.475606   -1.415074
     13          6           0       -0.079990   -3.517740   -1.376748
     14          6           0        0.988376   -3.336835   -0.280617
     15          8           0        1.262449   -4.020939    0.725735
     16          8           0        1.831097   -2.277107   -0.654700
     17          7           0       -4.464831    2.658645    0.101743
     18          6           0       -3.104709    2.916095    0.116096
     19          6           0       -2.896020    4.377895    0.148837
     20          6           0       -4.220351    4.995205    0.178332
     21          6           0       -5.172506    3.871002    0.168798
     22          6           0       -1.536611    5.056668    0.188740
     23          6           0       -4.553192    6.466588    0.094327
     24          8           0       -5.746466    6.814037    0.051682
     25          6           0       -3.552507    7.560976    0.092911
     26          7           0       -7.298338    1.577917    0.412527
     27          6           0       -7.532430    2.893249    0.396556
     28          6           0       -9.043233    3.178636    0.423921
     29          6           0       -9.735727    1.723408    0.215369
     30          6           0       -8.431794    0.852737    0.282134
     31          6           0       -9.458234    3.919278    1.732429
     32          6           0      -10.466201    1.518536   -1.140082
     33          6           0      -11.994737    1.389942   -1.059910
     34          7           0       -6.205634   -1.143798    0.271564
     35          6           0       -7.538253   -1.532009    0.427931
     36          6           0       -7.636532   -3.007690    0.477395
     37          6           0       -6.278969   -3.376161    0.325491
     38          6           0       -5.460051   -2.220617    0.215347
     39          6           0       -8.824662   -3.830415    0.582163
     40          6           0       -5.390430   -4.541717    0.138071
     41          8           0       -5.622672   -5.718674    0.056969
     42          6           0       -3.931425   -3.988850   -0.038900
     43          6           0       -3.061956   -4.646594    0.949617
     44          8           0       -3.154583   -4.360473    2.154227
     45          8           0       -2.098407   -5.450060    0.421241
     46          6           0       -1.066085   -5.981489    1.305578
     47          6           0        3.182141   -2.306679   -0.026181
     48          6           0        4.011992   -2.174257   -1.317104
     49          6           0        5.219470   -2.701509   -1.638293
     50          6           0        5.928937   -3.775038   -0.841232
     51          6           0        5.802518   -2.397504   -2.975348
     52          6           0        7.180186   -1.680298   -3.012137
     53          6           0        7.038174   -0.111686   -3.272575
     54          6           0        8.206982    0.814200   -3.473730
     55          6           0        7.896297    1.911181   -4.490000
     56          6           0        8.732522    1.485405   -2.209340
     57          6           0       10.186490    1.342290   -1.853686
     58          6           0       10.648542    2.580184   -1.100070
     59          6           0       12.077154    2.375647   -0.488268
     60          6           0       13.145160    2.174510   -1.589899
     61          6           0       12.215960    1.297076    0.595379
     62          6           0       13.208133    1.721609    1.718058
     63          6           0       13.632838    0.496424    2.651199
     64          6           0       13.697352    0.984965    4.128233
     65          6           0       14.828909    0.186117    4.872193
     66          6           0       12.294972    0.615897    4.749607
     67          1           0       -1.112590    2.271574    0.201781
     68          1           0       -6.995712    4.955091    0.397619
     69          1           0       -9.588028   -0.925103    0.427492
     70          1           0       -1.423254   -2.497014    0.754478
     71          1           0       -0.406380   -0.139951   -0.674619
     72          1           0        0.101485   -1.172939    2.169571
     73          1           0       -0.447918    0.486580    2.075427
     74          1           0        0.948660    0.022717    1.270310
     75          1           0       -1.068746   -1.704262   -2.163527
     76          1           0       -2.144810   -2.893773   -1.876996
     77          1           0        0.432597   -3.538090   -2.338902
     78          1           0       -0.417117   -4.525890   -1.137572
     79          1           0       -0.704643    4.365374    0.058903
     80          1           0       -1.364228    5.533225    1.154178
     81          1           0       -1.408865    5.688499   -0.690039
     82          1           0       -4.109155    8.483890   -0.066976
     83          1           0       -2.783658    7.447798   -0.672513
     84          1           0       -2.982806    7.532385    1.021898
     85          1           0       -9.275298    3.730692   -0.486930
     86          1           0      -10.383022    1.445899    1.047220
     87          1           0      -10.073415    4.801686    1.555833
     88          1           0       -8.579343    4.256953    2.282311
     89          1           0       -9.956987    3.149654    2.321998
     90          1           0      -10.125876    0.638142   -1.683947
     91          1           0      -10.265330    2.332810   -1.836638
     92          1           0      -12.358999    1.934018   -0.188402
     93          1           0      -12.235768    0.335315   -0.930389
     94          1           0      -12.383434    1.702330   -2.028276
     95          1           0       -8.657464   -4.857169    0.257461
     96          1           0       -9.672084   -3.437572    0.020678
     97          1           0       -9.022776   -3.987876    1.642479
     98          1           0       -3.723602   -4.286424   -1.067255
     99          1           0       -1.433860   -6.686728    2.051382
    100          1           0       -0.479970   -5.176882    1.749523
    101          1           0       -0.359557   -6.572620    0.723135
    102          1           0        3.431196   -3.223289    0.506550
    103          1           0        3.366486   -1.432451    0.598070
    104          1           0        3.535881   -1.459534   -1.988635
    105          1           0        5.892476   -4.643171   -1.499353
    106          1           0        5.382783   -3.885496    0.095259
    107          1           0        6.943410   -3.416148   -0.664573
    108          1           0        5.067479   -1.877850   -3.590612
    109          1           0        6.103410   -3.305498   -3.497004
    110          1           0        7.929399   -2.086451   -3.691897
    111          1           0        7.696209   -1.780316   -2.057713
    112          1           0        6.500320    0.455702   -2.513539
    113          1           0        6.416893   -0.047733   -4.166262
    114          1           0        9.036596    0.232788   -3.876113
    115          1           0        6.829155    2.072541   -4.642838
    116          1           0        8.176488    1.433775   -5.428332
    117          1           0        8.260600    2.912186   -4.255569
    118          1           0        8.196341    0.947810   -1.426919
    119          1           0        8.377464    2.515840   -2.165799
    120          1           0       10.744457    1.076304   -2.751006
    121          1           0       10.211727    0.453653   -1.223781
    122          1           0        9.855127    2.958375   -0.455330
    123          1           0       10.852958    3.312754   -1.881555
    124          1           0       12.247057    3.320269    0.028615
    125          1           0       13.163031    2.974971   -2.328940
    126          1           0       12.918473    1.260945   -2.141091
    127          1           0       14.164900    2.193718   -1.206551
    128          1           0       12.529555    0.438134    0.001761
    129          1           0       11.236090    1.064234    1.012819
    130          1           0       12.609601    2.467573    2.241022
    131          1           0       14.023681    2.194288    1.169355
    132          1           0       14.589328    0.178066    2.237894
    133          1           0       12.974534   -0.344429    2.430940
    134          1           0       13.755390    2.053879    4.329986
    135          1           0       15.519947   -0.329189    4.205326
    136          1           0       14.400575   -0.629765    5.454876
    137          1           0       15.369990    0.915748    5.474308
    138          1           0       11.969866    1.606354    5.066535
    139          1           0       12.364956   -0.025027    5.629022
    140          1           0       11.653599    0.023263    4.098019
 ---------------------------------------------------------------------

 SCF Done:  E(RZINDO/S) =  -474.253021448     A.U. after   20 cycles

 Excitation energies and oscillator strengths:

 Excited State   1:      Singlet-A      1.2635 eV  981.31 nm  f=0.6019  <S**2>=0.000
     175 ->178         0.20653
     176 ->177         0.65865
 This state for optimization and/or second-order correction.
 Total Energy, E(CIS/TDA) =  -474.206590352
 Copying the excited state density for this state as the 1-particle RhoCI density.

 Excited State   2:      Singlet-A      1.9274 eV  643.26 nm  f=0.0170  <S**2>=0.000
     175 ->177         0.51862
     176 ->178        -0.45990

 Excited State   3:      Singlet-A      2.9291 eV  423.29 nm  f=0.0017  <S**2>=0.000
     168 ->177         0.27974
     168 ->178         0.12290
     168 ->179        -0.37297
     168 ->181        -0.34110
     168 ->186        -0.18897
     168 ->187         0.16446

 Excited State   4:      Singlet-A      3.0116 eV  411.68 nm  f=0.3676  <S**2>=0.000
     170 ->177         0.14512
     170 ->179         0.15806
     170 ->181        -0.12475
     175 ->177         0.22151
     176 ->178         0.26628
     176 ->179         0.49223

 Excited State   5:      Singlet-A      3.0284 eV  409.40 nm  f=0.7249  <S**2>=0.000
     175 ->177        -0.31704
     176 ->178        -0.36575
     176 ->179         0.43319

 The electronic state is 1-A.
 Alpha  occ. eigenvalues --   -1.85329  -1.81027  -1.78071  -1.72293  -1.71282
 Alpha  occ. eigenvalues --   -1.69209  -1.66822  -1.60969  -1.59692  -1.58365
 Alpha  occ. eigenvalues --   -1.55363  -1.52642  -1.48726  -1.47438  -1.46205
 Alpha  occ. eigenvalues --   -1.44147  -1.42775  -1.39524  -1.38839  -1.37454
 Alpha  occ. eigenvalues --   -1.35046  -1.34414  -1.32786  -1.31399  -1.28199
 Alpha  occ. eigenvalues --   -1.27346  -1.24043  -1.21870  -1.20705  -1.18521
 Alpha  occ. eigenvalues --   -1.17506  -1.15119  -1.14591  -1.14273  -1.12587
 Alpha  occ. eigenvalues --   -1.12228  -1.11209  -1.10376  -1.05176  -1.04509
 Alpha  occ. eigenvalues --   -1.04210  -1.01751  -1.00293  -0.98258  -0.97321
 Alpha  occ. eigenvalues --   -0.95004  -0.94539  -0.94316  -0.92792  -0.92237
 Alpha  occ. eigenvalues --   -0.90782  -0.90323  -0.89704  -0.88909  -0.86334
 Alpha  occ. eigenvalues --   -0.85506  -0.83689  -0.83566  -0.82497  -0.79935
 Alpha  occ. eigenvalues --   -0.79524  -0.79352  -0.77470  -0.76816  -0.76389
 Alpha  occ. eigenvalues --   -0.76006  -0.75190  -0.75017  -0.74325  -0.73295
 Alpha  occ. eigenvalues --   -0.72473  -0.72335  -0.71516  -0.70573  -0.70420
 Alpha  occ. eigenvalues --   -0.69814  -0.68924  -0.68688  -0.68079  -0.67607
 Alpha  occ. eigenvalues --   -0.67146  -0.67036  -0.66361  -0.66260  -0.65600
 Alpha  occ. eigenvalues --   -0.65481  -0.65252  -0.64294  -0.64174  -0.63862
 Alpha  occ. eigenvalues --   -0.63572  -0.63508  -0.62627  -0.62001  -0.61755
 Alpha  occ. eigenvalues --   -0.61708  -0.61333  -0.60785  -0.60620  -0.60234
 Alpha  occ. eigenvalues --   -0.59837  -0.59652  -0.59192  -0.58603  -0.58384
 Alpha  occ. eigenvalues --   -0.57912  -0.57689  -0.56988  -0.56764  -0.56107
 Alpha  occ. eigenvalues --   -0.55578  -0.55512  -0.54906  -0.54780  -0.54651
 Alpha  occ. eigenvalues --   -0.54282  -0.53403  -0.52979  -0.52680  -0.52363
 Alpha  occ. eigenvalues --   -0.52287  -0.51949  -0.51729  -0.51530  -0.51364
 Alpha  occ. eigenvalues --   -0.51007  -0.50874  -0.50800  -0.50267  -0.50244
 Alpha  occ. eigenvalues --   -0.49962  -0.49481  -0.49402  -0.49177  -0.49005
 Alpha  occ. eigenvalues --   -0.48910  -0.48722  -0.48390  -0.48340  -0.47967
 Alpha  occ. eigenvalues --   -0.47858  -0.47017  -0.46958  -0.46607  -0.46475
 Alpha  occ. eigenvalues --   -0.46178  -0.46054  -0.45744  -0.45600  -0.45490
 Alpha  occ. eigenvalues --   -0.45298  -0.45092  -0.44079  -0.44073  -0.43869
 Alpha  occ. eigenvalues --   -0.43606  -0.43030  -0.42366  -0.42144  -0.41936
 Alpha  occ. eigenvalues --   -0.41809  -0.41531  -0.41128  -0.39141  -0.38738
 Alpha  occ. eigenvalues --   -0.37953  -0.36731  -0.34990  -0.34817  -0.34561
 Alpha  occ. eigenvalues --   -0.32889  -0.32476  -0.32426  -0.32069  -0.26421
 Alpha  occ. eigenvalues --   -0.21363
 Alpha virt. eigenvalues --   -0.08071  -0.02077  -0.00313   0.00700   0.01450
 Alpha virt. eigenvalues --    0.02573   0.02784   0.03203   0.04662   0.05112
 Alpha virt. eigenvalues --    0.06625   0.06885   0.07397   0.07662   0.07925

 Mulliken charges:
               1
     1  Mg   0.423337
     2  C   -0.056603
     3  C   -0.072164
     4  C   -0.065547
     5  C   -0.064407
     6  N   -0.276173
     7  C    0.130850
     8  C    0.020463
     9  C    0.010446
    10  C    0.132573
    11  C   -0.053620
    12  C   -0.021670
    13  C    0.010420
    14  C    0.461887
    15  O   -0.516647
    16  O   -0.280680
    17  N   -0.338811
    18  C    0.115347
    19  C   -0.001227
    20  C   -0.049467
    21  C    0.126384
    22  C   -0.041689
    23  C    0.329997
    24  O   -0.539628
    25  C   -0.025168
    26  N   -0.249185
    27  C    0.139953
    28  C   -0.002990
    29  C   -0.007407
    30  C    0.109446
    31  C   -0.050128
    32  C   -0.029679
    33  C   -0.059351
    34  N   -0.313872
    35  C    0.082533
    36  C    0.045674
    37  C   -0.064244
    38  C    0.128224
    39  C   -0.028287
    40  C    0.333962
    41  O   -0.514349
    42  C    0.056321
    43  C    0.497895
    44  O   -0.534444
    45  O   -0.264463
    46  C    0.075398
    47  C    0.099969
    48  C   -0.095598
    49  C   -0.009641
    50  C   -0.045355
    51  C   -0.016100
    52  C   -0.031568
    53  C   -0.040135
    54  C   -0.005242
    55  C   -0.062265
    56  C   -0.039503
    57  C   -0.030364
    58  C   -0.033136
    59  C   -0.014792
    60  C   -0.053666
    61  C   -0.039463
    62  C   -0.048150
    63  C   -0.031533
    64  C   -0.016546
    65  C   -0.062693
    66  C   -0.070330
    67  H    0.010518
    68  H    0.051358
    69  H    0.024317
    70  H    0.044181
    71  H    0.028865
    72  H    0.037669
    73  H    0.016823
    74  H    0.015184
    75  H    0.023403
    76  H    0.022974
    77  H    0.043649
    78  H    0.043980
    79  H    0.017010
    80  H    0.036591
    81  H    0.031244
    82  H    0.043100
    83  H    0.032075
    84  H    0.038376
    85  H    0.032938
    86  H    0.037897
    87  H    0.027092
    88  H    0.026864
    89  H    0.022393
    90  H    0.019711
    91  H    0.018394
    92  H    0.025134
    93  H    0.015761
    94  H    0.023296
    95  H    0.030167
    96  H    0.030570
    97  H    0.039361
    98  H    0.045524
    99  H    0.047066
   100  H    0.055903
   101  H    0.026665
   102  H    0.063309
   103  H    0.048286
   104  H    0.027161
   105  H    0.037242
   106  H    0.027917
   107  H    0.031874
   108  H    0.023464
   109  H    0.018921
   110  H    0.024732
   111  H    0.013635
   112  H    0.020530
   113  H    0.006794
   114  H    0.010808
   115  H    0.009592
   116  H    0.016359
   117  H    0.028613
   118  H    0.003830
   119  H    0.019120
   120  H    0.024071
   121  H    0.013874
   122  H    0.031165
   123  H    0.011110
   124  H    0.005835
   125  H    0.009699
   126  H    0.022896
   127  H    0.018228
   128  H    0.015919
   129  H    0.014392
   130  H    0.022476
   131  H    0.027619
   132  H    0.012694
   133  H    0.029964
   134  H    0.038058
   135  H    0.017464
   136  H    0.021892
   137  H    0.018944
   138  H    0.020916
   139  H    0.013977
   140  H    0.027466
 Sum of Mulliken charges =  -0.00000

 Dipole moment (field-independent basis, Debye):
    X=              5.1136    Y=              3.0949    Z=             -5.0662  Tot=              7.8354
 N-N= 4.297742812634D+03 E-N= 0.000000000000D+00  KE=-9.269998725696D+03
 Leave Link  601 at Fri Apr 29 07:19:38 2022, MaxMem=  6710886400 cpu:               0.7 elap:               0.1
 (Enter /sw/apps/gaussian-16.0/g16/l9999.exe)
 1\1\GINC-BP1-COMPUTE162\SP\RZINDO CIS\STO-3G\C55H74Mg1N4O6\OF15641\29-
 Apr-2022\0\\#p ZINDO=(nstates=5)\\step_1_chromophore_3 ZINDO\\0,1\Mg,0
 ,1.397,7.672,26.334\C,0,1.724,9.741,29.051\C,0,2.013,4.991,28.381\C,0,
 1.182,5.575,23.58\C,0,1.222,10.435,24.247\N,0,1.881,7.369,28.504\C,0,1
 .86,8.397,29.403\C,0,2.088,7.914,30.753\C,0,2.4,6.433,30.607\C,0,2.122
 ,6.205,29.057\C,0,3.813,5.913,31.044\C,0,0.869,8.215,31.69\C,0,1.184,8
 .506,33.198\C,0,2.448,7.854,33.792\O,0,3.525,8.347,34.183\O,0,2.178,6.

 Normal termination of Gaussian 16 at Fri Apr 29 07:19:38 2022.
