 Gaussian 16, Revision A.03,
 Gaussian 16:  ES64L-G16RevA.03 25-Dec-2016

 ------------------------------
 #p blyp/Def2SVP td=(nstates=5)
 ------------------------------

 -----------------------------------------------
 step_1_chromophore_7 TDDFT with blyp functional
 -----------------------------------------------
 Symbolic Z-matrix:
 Charge =  0 Multiplicity = 1

                         Standard orientation:
 ---------------------------------------------------------------------
 Center     Atomic      Atomic             Coordinates (Angstroms)
 Number     Number       Type             X           Y           Z
 ---------------------------------------------------------------------
      1         12           0        6.010789    0.606566    0.035209
      2          6           0        3.612700   -1.980575    0.351235
      3          6           0        3.607240    2.272213   -1.879777
      4          6           0        8.069776    3.146060   -0.266589
      5          6           0        8.457260   -1.549550    1.241802
      6          7           0        3.867214    0.168878   -0.623985
      7          6           0        3.052650   -0.860684   -0.261193
      8          6           0        1.625701   -0.825063   -0.834731
      9          6           0        1.755114    0.553447   -1.660402
     10          6           0        3.160631    0.988205   -1.367662
     11          6           0        1.556699    0.399025   -3.220193
     12          6           0        0.522627   -0.770972    0.272034
     13          6           0       -0.463063   -1.895282    0.565511
     14          6           0       -1.894729   -1.599963    0.992847
     15          8           0       -2.300907   -0.780076    1.780003
     16          8           0       -2.734187   -2.519335    0.470258
     17          7           0        5.861507    2.503437   -0.869580
     18          6           0        4.817613    2.981167   -1.674955
     19          6           0        5.235651    4.257453   -2.210587
     20          6           0        6.453094    4.610380   -1.633610
     21          6           0        6.822253    3.424452   -0.836342
     22          6           0        4.264900    5.035195   -3.032003
     23          6           0        7.342167    5.839716   -1.817910
     24          8           0        8.430264    6.009512   -1.259447
     25          6           0        6.786868    6.956635   -2.610750
     26          7           0        8.011984    0.779830    0.324192
     27          6           0        8.642360    1.993100    0.342956
     28          6           0       10.010448    1.905862    1.100671
     29          6           0       10.114003    0.426894    1.449939
     30          6           0        8.797635   -0.197896    0.909810
     31          6           0       11.210098    2.505685    0.296777
     32          6           0       10.294174    0.265832    2.967087
     33          6           0       11.304372   -0.705539    3.459594
     34          7           0        6.112299   -1.390345    0.584315
     35          6           0        7.156433   -2.128403    1.081666
     36          6           0        6.745604   -3.461171    1.408222
     37          6           0        5.274835   -3.485100    1.241146
     38          6           0        4.965933   -2.161182    0.735577
     39          6           0        7.666084   -4.593606    1.894689
     40          6           0        4.019794   -4.271213    1.346608
     41          8           0        3.812990   -5.388293    1.850326
     42          6           0        2.905848   -3.301779    0.773148
     43          6           0        2.389841   -4.140312   -0.354221
     44          8           0        2.808776   -4.215346   -1.502974
     45          8           0        1.287892   -4.749680   -0.011813
     46          6           0        0.693511   -5.760648   -0.919696
     47          6           0       -4.155719   -2.435912    0.801601
     48          6           0       -5.023966   -1.968852   -0.316402
     49          6           0       -5.820341   -2.708714   -1.144939
     50          6           0       -6.121815   -4.147897   -0.936714
     51          6           0       -6.702924   -2.001459   -2.068276
     52          6           0       -8.100715   -1.661648   -1.607535
     53          6           0       -9.059794   -1.862555   -2.820758
     54          6           0      -10.637980   -1.928487   -2.366864
     55          6           0      -11.564645   -2.847325   -3.118627
     56          6           0      -11.118891   -0.496096   -2.161203
     57          6           0      -12.572450   -0.351858   -1.596987
     58          6           0      -12.911872    1.020976   -0.975827
     59          6           0      -13.731176    0.993310    0.342723
     60          6           0      -14.908927    1.995613    0.194197
     61          6           0      -12.802599    1.370322    1.653056
     62          6           0      -12.488744    2.875497    1.743751
     63          6           0      -12.934886    3.451076    3.119127
     64          6           0      -11.828467    4.531101    3.495953
     65          6           0      -10.603599    4.013153    4.283120
     66          6           0      -12.473147    5.787819    4.238651
     67          1           0        2.721151    2.734722   -2.318787
     68          1           0        8.864530    3.891658   -0.331787
     69          1           0        9.223677   -2.188106    1.685173
     70          1           0        1.524066   -1.668902   -1.518306
     71          1           0        1.134167    1.397193   -1.357786
     72          1           0        1.616505   -0.608318   -3.631334
     73          1           0        2.316999    0.973762   -3.747921
     74          1           0        0.582002    0.810474   -3.483080
     75          1           0       -0.107966    0.085207    0.031878
     76          1           0        0.976738   -0.606740    1.248402
     77          1           0       -0.013497   -2.317504    1.464362
     78          1           0       -0.389089   -2.493130   -0.342954
     79          1           0        4.009283    5.986515   -2.567405
     80          1           0        3.338112    4.479270   -3.176063
     81          1           0        4.642382    5.285494   -4.022982
     82          1           0        5.784983    7.193479   -2.252428
     83          1           0        6.577681    6.672064   -3.642043
     84          1           0        7.354915    7.883827   -2.542034
     85          1           0        9.819497    2.541527    1.965137
     86          1           0       11.011400   -0.017307    1.019603
     87          1           0       10.919968    3.046962   -0.603628
     88          1           0       11.931793    1.761207   -0.037347
     89          1           0       11.836443    3.100886    0.961091
     90          1           0        9.301740   -0.049690    3.286455
     91          1           0       10.584245    1.176561    3.490465
     92          1           0       10.746324   -1.365911    4.122950
     93          1           0       12.150453   -0.178815    3.900859
     94          1           0       11.694415   -1.386433    2.702748
     95          1           0        8.028322   -5.150627    1.031409
     96          1           0        7.098329   -5.223191    2.579631
     97          1           0        8.555372   -4.213973    2.398301
     98          1           0        2.153909   -3.194829    1.554762
     99          1           0        0.406712   -5.367427   -1.894388
    100          1           0       -0.165821   -6.284749   -0.501865
    101          1           0        1.311010   -6.624145   -1.165119
    102          1           0       -4.404992   -1.702076    1.569130
    103          1           0       -4.422339   -3.395493    1.244934
    104          1           0       -5.168195   -0.893724   -0.418477
    105          1           0       -7.169003   -4.267167   -0.657994
    106          1           0       -5.484721   -4.589323   -0.170095
    107          1           0       -5.970505   -4.715895   -1.855474
    108          1           0       -6.738886   -2.627617   -2.960046
    109          1           0       -6.115382   -1.124456   -2.339761
    110          1           0       -8.049248   -0.634795   -1.246820
    111          1           0       -8.495415   -2.260281   -0.786073
    112          1           0       -8.902811   -2.767859   -3.407106
    113          1           0       -8.982165   -0.981484   -3.457528
    114          1           0      -10.636696   -2.354661   -1.364148
    115          1           0      -12.221503   -3.478878   -2.518941
    116          1           0      -11.046386   -3.445879   -3.867056
    117          1           0      -12.118442   -2.076419   -3.654770
    118          1           0      -11.253373   -0.103581   -3.168955
    119          1           0      -10.347184    0.078684   -1.648292
    120          1           0      -12.816070   -1.131158   -0.875648
    121          1           0      -13.257802   -0.564105   -2.417909
    122          1           0      -13.494294    1.527708   -1.745309
    123          1           0      -11.996356    1.588300   -0.807232
    124          1           0      -14.088463   -0.014277    0.552658
    125          1           0      -15.187171    2.314814    1.199095
    126          1           0      -15.812140    1.527729   -0.196762
    127          1           0      -14.725125    2.829447   -0.483853
    128          1           0      -11.840757    0.869354    1.542149
    129          1           0      -13.379084    0.976750    2.490190
    130          1           0      -12.992804    3.506146    1.011872
    131          1           0      -11.428778    3.054910    1.565023
    132          1           0      -13.016755    2.566404    3.750324
    133          1           0      -13.945998    3.844880    3.006415
    134          1           0      -11.430166    5.014833    2.602979
    135          1           0      -10.659225    3.000460    4.683152
    136          1           0      -10.388592    4.578179    5.189069
    137          1           0       -9.724053    4.031815    3.639073
    138          1           0      -13.553273    5.719523    4.114195
    139          1           0      -12.205588    6.715987    3.733436
    140          1           0      -12.090934    5.733850    5.258181
 ---------------------------------------------------------------------

 SCF Done:  E(RB-LYP) =  -3007.37370846     A.U. after   21 cycles

 Excitation energies and oscillator strengths:

 Excited State   1:      Singlet-A      1.7974 eV  689.79 nm  f=0.2879  <S**2>=0.000
     245 -> 248        0.20623
     246 -> 247        0.68463
     246 <- 247       -0.14146
 This state for optimization and/or second-order correction.
 Total Energy, E(TD-HF/TD-DFT) =  -3007.30765460
 Copying the excited state density for this state as the 1-particle RhoCI density.

 Excited State   2:      Singlet-A      1.9849 eV  624.63 nm  f=0.0826  <S**2>=0.000
     243 -> 247        0.13508
     245 -> 247        0.63899
     246 -> 248       -0.24234

 Excited State   3:      Singlet-A      2.0593 eV  602.06 nm  f=0.0026  <S**2>=0.000
     244 -> 247        0.70174

 Excited State   4:      Singlet-A      2.0825 eV  595.37 nm  f=0.0040  <S**2>=0.000
     243 -> 247        0.69169
     245 -> 247       -0.11857

 Excited State   5:      Singlet-A      2.4150 eV  513.39 nm  f=0.0001  <S**2>=0.000
     241 -> 247        0.70289

 The electronic state is 1-A.
 Alpha  occ. eigenvalues --  -46.27050 -18.82463 -18.81284 -18.76065 -18.76011
 Alpha  occ. eigenvalues --  -18.75894 -18.75309 -14.03567 -14.03213 -14.01178
 Alpha  occ. eigenvalues --  -14.00850 -10.03692 -10.03472 -10.00314 -10.00308
 Alpha  occ. eigenvalues --   -9.97942  -9.97136  -9.96807  -9.96762  -9.96593
 Alpha  occ. eigenvalues --   -9.96384  -9.96149  -9.95844  -9.95254  -9.95085
 Alpha  occ. eigenvalues --   -9.94881  -9.94622  -9.94425  -9.94162  -9.93958
 Alpha  occ. eigenvalues --   -9.93912  -9.93794  -9.93348  -9.93280  -9.93240
 Alpha  occ. eigenvalues --   -9.93229  -9.93145  -9.93050  -9.93035  -9.92805
 Alpha  occ. eigenvalues --   -9.92664  -9.92433  -9.92331  -9.92262  -9.92190
 Alpha  occ. eigenvalues --   -9.92177  -9.92124  -9.92109  -9.92015  -9.91988
 Alpha  occ. eigenvalues --   -9.91818  -9.91705  -9.91703  -9.91567  -9.91504
 Alpha  occ. eigenvalues --   -9.91388  -9.91350  -9.91188  -9.91172  -9.91069
 Alpha  occ. eigenvalues --   -9.91019  -9.90873  -9.90830  -9.90826  -9.90642
 Alpha  occ. eigenvalues --   -9.90435  -2.91738  -1.72163  -1.71615  -1.71454
 Alpha  occ. eigenvalues --   -0.99345  -0.98257  -0.91256  -0.90343  -0.89535
 Alpha  occ. eigenvalues --   -0.88699  -0.87617  -0.86043  -0.85237  -0.84260
 Alpha  occ. eigenvalues --   -0.74951  -0.74639  -0.72884  -0.72817  -0.72601
 Alpha  occ. eigenvalues --   -0.71919  -0.71685  -0.70961  -0.70301  -0.70080
 Alpha  occ. eigenvalues --   -0.69353  -0.68783  -0.68262  -0.67540  -0.67464
 Alpha  occ. eigenvalues --   -0.66510  -0.66261  -0.65604  -0.65067  -0.64608
 Alpha  occ. eigenvalues --   -0.64057  -0.62715  -0.62404  -0.61983  -0.61234
 Alpha  occ. eigenvalues --   -0.60914  -0.59900  -0.59719  -0.59471  -0.58768
 Alpha  occ. eigenvalues --   -0.58219  -0.57360  -0.56896  -0.55488  -0.54124
 Alpha  occ. eigenvalues --   -0.53784  -0.53513  -0.52847  -0.52638  -0.52054
 Alpha  occ. eigenvalues --   -0.51821  -0.51279  -0.50860  -0.50434  -0.49549
 Alpha  occ. eigenvalues --   -0.49442  -0.48863  -0.48754  -0.47566  -0.46949
 Alpha  occ. eigenvalues --   -0.46033  -0.45703  -0.45586  -0.45263  -0.44520
 Alpha  occ. eigenvalues --   -0.44431  -0.44202  -0.43169  -0.43049  -0.42403
 Alpha  occ. eigenvalues --   -0.42197  -0.41997  -0.41783  -0.41514  -0.41216
 Alpha  occ. eigenvalues --   -0.40979  -0.40662  -0.40551  -0.40262  -0.39978
 Alpha  occ. eigenvalues --   -0.39910  -0.39686  -0.39636  -0.39597  -0.39295
 Alpha  occ. eigenvalues --   -0.38926  -0.38810  -0.38401  -0.38184  -0.38026
 Alpha  occ. eigenvalues --   -0.37883  -0.37485  -0.37398  -0.37312  -0.37230
 Alpha  occ. eigenvalues --   -0.36968  -0.36918  -0.36721  -0.36687  -0.36262
 Alpha  occ. eigenvalues --   -0.36143  -0.35926  -0.35844  -0.35701  -0.35506
 Alpha  occ. eigenvalues --   -0.35415  -0.35337  -0.34865  -0.34688  -0.34361
 Alpha  occ. eigenvalues --   -0.34239  -0.34069  -0.34005  -0.33908  -0.33758
 Alpha  occ. eigenvalues --   -0.33633  -0.33531  -0.33336  -0.33232  -0.33077
 Alpha  occ. eigenvalues --   -0.32830  -0.32718  -0.32595  -0.32508  -0.32395
 Alpha  occ. eigenvalues --   -0.32154  -0.31869  -0.31689  -0.31618  -0.31348
 Alpha  occ. eigenvalues --   -0.31244  -0.31185  -0.31000  -0.30835  -0.30554
 Alpha  occ. eigenvalues --   -0.30377  -0.30249  -0.30206  -0.29995  -0.29658
 Alpha  occ. eigenvalues --   -0.29579  -0.29434  -0.29174  -0.29055  -0.28830
 Alpha  occ. eigenvalues --   -0.28699  -0.28597  -0.28401  -0.28047  -0.27831
 Alpha  occ. eigenvalues --   -0.27377  -0.27206  -0.27033  -0.27020  -0.26524
 Alpha  occ. eigenvalues --   -0.26391  -0.26217  -0.25905  -0.25670  -0.24945
 Alpha  occ. eigenvalues --   -0.24898  -0.24638  -0.23957  -0.23797  -0.23723
 Alpha  occ. eigenvalues --   -0.22825  -0.22217  -0.21838  -0.21116  -0.20874
 Alpha  occ. eigenvalues --   -0.20386  -0.19961  -0.19049  -0.18975  -0.17152
 Alpha  occ. eigenvalues --   -0.15855
 Alpha virt. eigenvalues --   -0.11512  -0.07035  -0.06639  -0.04808  -0.03223
 Alpha virt. eigenvalues --   -0.02458  -0.01973  -0.01374  -0.01151  -0.00064
 Alpha virt. eigenvalues --    0.01018   0.01632   0.02468   0.02682   0.02997

 Mulliken charges:
               1
     1  Mg   0.700716
     2  C    0.074781
     3  C   -0.067992
     4  C   -0.039661
     5  C   -0.074930
     6  N   -0.142743
     7  C   -0.111088
     8  C    0.069625
     9  C   -0.016415
    10  C   -0.053475
    11  C    0.104705
    12  C    0.084427
    13  C    0.131314
    14  C    0.039741
    15  O   -0.176552
    16  O   -0.248565
    17  N   -0.271746
    18  C    0.161481
    19  C   -0.115554
    20  C    0.025351
    21  C    0.116375
    22  C    0.159056
    23  C   -0.047860
    24  O   -0.163482
    25  C    0.140453
    26  N   -0.269913
    27  C   -0.038342
    28  C    0.047825
    29  C    0.041439
    30  C    0.073756
    31  C    0.119105
    32  C    0.055238
    33  C    0.074568
    34  N   -0.284693
    35  C    0.137838
    36  C   -0.185764
    37  C    0.066400
    38  C    0.066850
    39  C    0.166432
    40  C   -0.050193
    41  O   -0.150174
    42  C    0.022272
    43  C    0.085470
    44  O   -0.201340
    45  O   -0.218279
    46  C    0.230268
    47  C    0.347266
    48  C   -0.115317
    49  C   -0.164459
    50  C    0.153214
    51  C    0.150468
    52  C    0.099492
    53  C    0.077575
    54  C   -0.098867
    55  C    0.142806
    56  C    0.067067
    57  C    0.064343
    58  C    0.134556
    59  C   -0.084993
    60  C    0.102847
    61  C    0.087541
    62  C    0.025236
    63  C    0.112831
    64  C   -0.101803
    65  C    0.099185
    66  C    0.093495
    67  H   -0.052785
    68  H   -0.046275
    69  H   -0.066606
    70  H    0.004055
    71  H   -0.010304
    72  H    0.003135
    73  H   -0.008186
    74  H   -0.009994
    75  H   -0.017156
    76  H   -0.018577
    77  H    0.017238
    78  H   -0.002727
    79  H    0.005087
    80  H   -0.020108
    81  H   -0.004339
    82  H   -0.007943
    83  H   -0.000477
    84  H   -0.002554
    85  H   -0.007128
    86  H   -0.027683
    87  H    0.013280
    88  H   -0.023413
    89  H   -0.012803
    90  H   -0.018423
    91  H   -0.020294
    92  H   -0.009070
    93  H   -0.002257
    94  H   -0.017051
    95  H    0.009618
    96  H    0.015055
    97  H   -0.015531
    98  H    0.005551
    99  H    0.010742
   100  H    0.010059
   101  H    0.010796
   102  H   -0.010216
   103  H   -0.015721
   104  H   -0.038284
   105  H   -0.000046
   106  H   -0.018425
   107  H   -0.014633
   108  H   -0.038090
   109  H   -0.030325
   110  H   -0.018088
   111  H   -0.019046
   112  H   -0.027510
   113  H   -0.028298
   114  H   -0.050233
   115  H   -0.000350
   116  H   -0.024329
   117  H   -0.031393
   118  H   -0.037444
   119  H   -0.027157
   120  H   -0.039925
   121  H   -0.034538
   122  H   -0.039339
   123  H   -0.031428
   124  H   -0.036822
   125  H   -0.025723
   126  H   -0.022881
   127  H   -0.001661
   128  H   -0.028491
   129  H   -0.018688
   130  H   -0.025409
   131  H   -0.025184
   132  H   -0.027925
   133  H   -0.024646
   134  H   -0.026153
   135  H   -0.019122
   136  H   -0.020618
   137  H   -0.012432
   138  H   -0.024033
   139  H   -0.017338
   140  H   -0.010195
 Sum of Mulliken charges =  -0.00000

 Dipole moment (field-independent basis, Debye):
    X=             -2.8588    Y=              1.6279    Z=             -2.0599  Tot=              3.8815
 Quadrupole moment (field-independent basis, Debye-Ang):
   XX=           -378.7869   YY=           -419.0250   ZZ=           -405.1712
   XY=             11.5380   XZ=             21.0908   YZ=             -3.0441

 Normal termination of Gaussian 16 at Fri Apr 29 07:31:30 2022.
