 Gaussian 16, Revision A.03,
 Gaussian 16:  ES64L-G16RevA.03 25-Dec-2016

 -----------------------------------
 #p cam-b3lyp/Def2SVP td=(nstates=5)
 -----------------------------------

 ----------------------------------------------------
 step_1_chromophore_7 TDDFT with cam-b3lyp functional
 ----------------------------------------------------
 Symbolic Z-matrix:
 Charge =  0 Multiplicity = 1

                         Standard orientation:
 ---------------------------------------------------------------------
 Center     Atomic      Atomic             Coordinates (Angstroms)
 Number     Number       Type             X           Y           Z
 ---------------------------------------------------------------------
      1         12           0        6.010789    0.606566    0.035209
      2          6           0        3.612700   -1.980575    0.351235
      3          6           0        3.607240    2.272213   -1.879777
      4          6           0        8.069776    3.146060   -0.266589
      5          6           0        8.457260   -1.549550    1.241802
      6          7           0        3.867214    0.168878   -0.623985
      7          6           0        3.052650   -0.860684   -0.261193
      8          6           0        1.625701   -0.825063   -0.834731
      9          6           0        1.755114    0.553447   -1.660402
     10          6           0        3.160631    0.988205   -1.367662
     11          6           0        1.556699    0.399025   -3.220193
     12          6           0        0.522627   -0.770972    0.272034
     13          6           0       -0.463063   -1.895282    0.565511
     14          6           0       -1.894729   -1.599963    0.992847
     15          8           0       -2.300907   -0.780076    1.780003
     16          8           0       -2.734187   -2.519335    0.470258
     17          7           0        5.861507    2.503437   -0.869580
     18          6           0        4.817613    2.981167   -1.674955
     19          6           0        5.235651    4.257453   -2.210587
     20          6           0        6.453094    4.610380   -1.633610
     21          6           0        6.822253    3.424452   -0.836342
     22          6           0        4.264900    5.035195   -3.032003
     23          6           0        7.342167    5.839716   -1.817910
     24          8           0        8.430264    6.009512   -1.259447
     25          6           0        6.786868    6.956635   -2.610750
     26          7           0        8.011984    0.779830    0.324192
     27          6           0        8.642360    1.993100    0.342956
     28          6           0       10.010448    1.905862    1.100671
     29          6           0       10.114003    0.426894    1.449939
     30          6           0        8.797635   -0.197896    0.909810
     31          6           0       11.210098    2.505685    0.296777
     32          6           0       10.294174    0.265832    2.967087
     33          6           0       11.304372   -0.705539    3.459594
     34          7           0        6.112299   -1.390345    0.584315
     35          6           0        7.156433   -2.128403    1.081666
     36          6           0        6.745604   -3.461171    1.408222
     37          6           0        5.274835   -3.485100    1.241146
     38          6           0        4.965933   -2.161182    0.735577
     39          6           0        7.666084   -4.593606    1.894689
     40          6           0        4.019794   -4.271213    1.346608
     41          8           0        3.812990   -5.388293    1.850326
     42          6           0        2.905848   -3.301779    0.773148
     43          6           0        2.389841   -4.140312   -0.354221
     44          8           0        2.808776   -4.215346   -1.502974
     45          8           0        1.287892   -4.749680   -0.011813
     46          6           0        0.693511   -5.760648   -0.919696
     47          6           0       -4.155719   -2.435912    0.801601
     48          6           0       -5.023966   -1.968852   -0.316402
     49          6           0       -5.820341   -2.708714   -1.144939
     50          6           0       -6.121815   -4.147897   -0.936714
     51          6           0       -6.702924   -2.001459   -2.068276
     52          6           0       -8.100715   -1.661648   -1.607535
     53          6           0       -9.059794   -1.862555   -2.820758
     54          6           0      -10.637980   -1.928487   -2.366864
     55          6           0      -11.564645   -2.847325   -3.118627
     56          6           0      -11.118891   -0.496096   -2.161203
     57          6           0      -12.572450   -0.351858   -1.596987
     58          6           0      -12.911872    1.020976   -0.975827
     59          6           0      -13.731176    0.993310    0.342723
     60          6           0      -14.908927    1.995613    0.194197
     61          6           0      -12.802599    1.370322    1.653056
     62          6           0      -12.488744    2.875497    1.743751
     63          6           0      -12.934886    3.451076    3.119127
     64          6           0      -11.828467    4.531101    3.495953
     65          6           0      -10.603599    4.013153    4.283120
     66          6           0      -12.473147    5.787819    4.238651
     67          1           0        2.721151    2.734722   -2.318787
     68          1           0        8.864530    3.891658   -0.331787
     69          1           0        9.223677   -2.188106    1.685173
     70          1           0        1.524066   -1.668902   -1.518306
     71          1           0        1.134167    1.397193   -1.357786
     72          1           0        1.616505   -0.608318   -3.631334
     73          1           0        2.316999    0.973762   -3.747921
     74          1           0        0.582002    0.810474   -3.483080
     75          1           0       -0.107966    0.085207    0.031878
     76          1           0        0.976738   -0.606740    1.248402
     77          1           0       -0.013497   -2.317504    1.464362
     78          1           0       -0.389089   -2.493130   -0.342954
     79          1           0        4.009283    5.986515   -2.567405
     80          1           0        3.338112    4.479270   -3.176063
     81          1           0        4.642382    5.285494   -4.022982
     82          1           0        5.784983    7.193479   -2.252428
     83          1           0        6.577681    6.672064   -3.642043
     84          1           0        7.354915    7.883827   -2.542034
     85          1           0        9.819497    2.541527    1.965137
     86          1           0       11.011400   -0.017307    1.019603
     87          1           0       10.919968    3.046962   -0.603628
     88          1           0       11.931793    1.761207   -0.037347
     89          1           0       11.836443    3.100886    0.961091
     90          1           0        9.301740   -0.049690    3.286455
     91          1           0       10.584245    1.176561    3.490465
     92          1           0       10.746324   -1.365911    4.122950
     93          1           0       12.150453   -0.178815    3.900859
     94          1           0       11.694415   -1.386433    2.702748
     95          1           0        8.028322   -5.150627    1.031409
     96          1           0        7.098329   -5.223191    2.579631
     97          1           0        8.555372   -4.213973    2.398301
     98          1           0        2.153909   -3.194829    1.554762
     99          1           0        0.406712   -5.367427   -1.894388
    100          1           0       -0.165821   -6.284749   -0.501865
    101          1           0        1.311010   -6.624145   -1.165119
    102          1           0       -4.404992   -1.702076    1.569130
    103          1           0       -4.422339   -3.395493    1.244934
    104          1           0       -5.168195   -0.893724   -0.418477
    105          1           0       -7.169003   -4.267167   -0.657994
    106          1           0       -5.484721   -4.589323   -0.170095
    107          1           0       -5.970505   -4.715895   -1.855474
    108          1           0       -6.738886   -2.627617   -2.960046
    109          1           0       -6.115382   -1.124456   -2.339761
    110          1           0       -8.049248   -0.634795   -1.246820
    111          1           0       -8.495415   -2.260281   -0.786073
    112          1           0       -8.902811   -2.767859   -3.407106
    113          1           0       -8.982165   -0.981484   -3.457528
    114          1           0      -10.636696   -2.354661   -1.364148
    115          1           0      -12.221503   -3.478878   -2.518941
    116          1           0      -11.046386   -3.445879   -3.867056
    117          1           0      -12.118442   -2.076419   -3.654770
    118          1           0      -11.253373   -0.103581   -3.168955
    119          1           0      -10.347184    0.078684   -1.648292
    120          1           0      -12.816070   -1.131158   -0.875648
    121          1           0      -13.257802   -0.564105   -2.417909
    122          1           0      -13.494294    1.527708   -1.745309
    123          1           0      -11.996356    1.588300   -0.807232
    124          1           0      -14.088463   -0.014277    0.552658
    125          1           0      -15.187171    2.314814    1.199095
    126          1           0      -15.812140    1.527729   -0.196762
    127          1           0      -14.725125    2.829447   -0.483853
    128          1           0      -11.840757    0.869354    1.542149
    129          1           0      -13.379084    0.976750    2.490190
    130          1           0      -12.992804    3.506146    1.011872
    131          1           0      -11.428778    3.054910    1.565023
    132          1           0      -13.016755    2.566404    3.750324
    133          1           0      -13.945998    3.844880    3.006415
    134          1           0      -11.430166    5.014833    2.602979
    135          1           0      -10.659225    3.000460    4.683152
    136          1           0      -10.388592    4.578179    5.189069
    137          1           0       -9.724053    4.031815    3.639073
    138          1           0      -13.553273    5.719523    4.114195
    139          1           0      -12.205588    6.715987    3.733436
    140          1           0      -12.090934    5.733850    5.258181
 ---------------------------------------------------------------------

 SCF Done:  E(RCAM-B3LYP) =  -3007.16461292     A.U. after   16 cycles

 Excitation energies and oscillator strengths:

 Excited State   1:      Singlet-A      1.7592 eV  704.79 nm  f=0.3743  <S**2>=0.000
     245 -> 248        0.18351
     246 -> 247        0.68371
     245 <- 248        0.10466
 This state for optimization and/or second-order correction.
 Total Energy, E(TD-HF/TD-DFT) =  -3007.09996455
 Copying the excited state density for this state as the 1-particle RhoCI density.

 Excited State   2:      Singlet-A      2.2203 eV  558.41 nm  f=0.1111  <S**2>=0.000
     245 -> 247        0.63623
     246 -> 248       -0.29387

 Excited State   3:      Singlet-A      3.4002 eV  364.64 nm  f=0.0248  <S**2>=0.000
     242 -> 247       -0.21251
     244 -> 247        0.65665

 Excited State   4:      Singlet-A      3.4726 eV  357.03 nm  f=0.5231  <S**2>=0.000
     239 -> 247       -0.11851
     242 -> 247        0.19239
     244 -> 247        0.13445
     245 -> 247        0.24949
     246 -> 248        0.59458
     245 <- 247       -0.10215

 Excited State   5:      Singlet-A      3.6378 eV  340.82 nm  f=0.0006  <S**2>=0.000
     241 -> 247        0.50397
     241 -> 248        0.11458
     241 -> 249       -0.33828
     241 -> 250       -0.23920
     242 -> 247        0.15752

 The electronic state is 1-A.
 Alpha  occ. eigenvalues --  -46.88514 -19.25350 -19.24097 -19.19560 -19.18998
 Alpha  occ. eigenvalues --  -19.18884 -19.18226 -14.42586 -14.41888 -14.39807
 Alpha  occ. eigenvalues --  -14.38979 -10.38909 -10.38688 -10.35952 -10.35460
 Alpha  occ. eigenvalues --  -10.31918 -10.31626 -10.31414 -10.31189 -10.31104
 Alpha  occ. eigenvalues --  -10.30897 -10.30733 -10.30541 -10.29413 -10.29178
 Alpha  occ. eigenvalues --  -10.28847 -10.28784 -10.28766 -10.28688 -10.28056
 Alpha  occ. eigenvalues --  -10.28015 -10.27931 -10.27868 -10.27698 -10.27487
 Alpha  occ. eigenvalues --  -10.27204 -10.27043 -10.26961 -10.26930 -10.26908
 Alpha  occ. eigenvalues --  -10.26539 -10.26375 -10.26089 -10.26048 -10.26011
 Alpha  occ. eigenvalues --  -10.25900 -10.25835 -10.25810 -10.25805 -10.25687
 Alpha  occ. eigenvalues --  -10.25627 -10.25471 -10.25456 -10.25194 -10.25142
 Alpha  occ. eigenvalues --  -10.25097 -10.24883 -10.24883 -10.24833 -10.24780
 Alpha  occ. eigenvalues --  -10.24604 -10.24508 -10.24486 -10.24419 -10.24315
 Alpha  occ. eigenvalues --  -10.24063  -3.17110  -1.92011  -1.91567  -1.91414
 Alpha  occ. eigenvalues --   -1.17837  -1.16732  -1.10061  -1.08401  -1.07365
 Alpha  occ. eigenvalues --   -1.06525  -1.05487  -1.03996  -1.02764  -1.01353
 Alpha  occ. eigenvalues --   -0.91885  -0.91573  -0.89660  -0.89517  -0.89388
 Alpha  occ. eigenvalues --   -0.88947  -0.88397  -0.87846  -0.86855  -0.86612
 Alpha  occ. eigenvalues --   -0.85788  -0.84939  -0.84468  -0.83631  -0.83473
 Alpha  occ. eigenvalues --   -0.82711  -0.82545  -0.81544  -0.80828  -0.80530
 Alpha  occ. eigenvalues --   -0.79873  -0.78784  -0.77944  -0.77450  -0.76642
 Alpha  occ. eigenvalues --   -0.76196  -0.75185  -0.75053  -0.74743  -0.74002
 Alpha  occ. eigenvalues --   -0.73261  -0.72199  -0.71820  -0.70313  -0.68813
 Alpha  occ. eigenvalues --   -0.68200  -0.67942  -0.67305  -0.67131  -0.66316
 Alpha  occ. eigenvalues --   -0.66160  -0.65276  -0.64873  -0.64364  -0.63452
 Alpha  occ. eigenvalues --   -0.63329  -0.62661  -0.62412  -0.61346  -0.60931
 Alpha  occ. eigenvalues --   -0.59631  -0.59137  -0.58980  -0.58564  -0.58038
 Alpha  occ. eigenvalues --   -0.57803  -0.57625  -0.56652  -0.56199  -0.55521
 Alpha  occ. eigenvalues --   -0.55132  -0.55040  -0.54589  -0.54325  -0.54216
 Alpha  occ. eigenvalues --   -0.54026  -0.53460  -0.53389  -0.53253  -0.53030
 Alpha  occ. eigenvalues --   -0.52783  -0.52608  -0.52282  -0.52186  -0.51788
 Alpha  occ. eigenvalues --   -0.51707  -0.51459  -0.50767  -0.50541  -0.50436
 Alpha  occ. eigenvalues --   -0.50205  -0.50017  -0.49925  -0.49756  -0.49488
 Alpha  occ. eigenvalues --   -0.49396  -0.49233  -0.49083  -0.48950  -0.48702
 Alpha  occ. eigenvalues --   -0.48533  -0.48409  -0.48038  -0.47810  -0.47762
 Alpha  occ. eigenvalues --   -0.47660  -0.47420  -0.46781  -0.46659  -0.46313
 Alpha  occ. eigenvalues --   -0.46100  -0.45842  -0.45821  -0.45680  -0.45514
 Alpha  occ. eigenvalues --   -0.45280  -0.45175  -0.45035  -0.44854  -0.44707
 Alpha  occ. eigenvalues --   -0.44580  -0.44351  -0.44253  -0.44168  -0.44037
 Alpha  occ. eigenvalues --   -0.43964  -0.43322  -0.43174  -0.43071  -0.42965
 Alpha  occ. eigenvalues --   -0.42830  -0.42642  -0.42420  -0.42165  -0.41906
 Alpha  occ. eigenvalues --   -0.41874  -0.41632  -0.41531  -0.41380  -0.41242
 Alpha  occ. eigenvalues --   -0.40896  -0.40808  -0.40398  -0.40166  -0.39969
 Alpha  occ. eigenvalues --   -0.39868  -0.39727  -0.39543  -0.39257  -0.38816
 Alpha  occ. eigenvalues --   -0.38184  -0.38095  -0.38051  -0.37849  -0.37728
 Alpha  occ. eigenvalues --   -0.37164  -0.36743  -0.36625  -0.36513  -0.36369
 Alpha  occ. eigenvalues --   -0.35946  -0.35484  -0.34555  -0.34375  -0.33871
 Alpha  occ. eigenvalues --   -0.33462  -0.33093  -0.33080  -0.31906  -0.31762
 Alpha  occ. eigenvalues --   -0.30623  -0.30323  -0.29979  -0.28709  -0.23911
 Alpha  occ. eigenvalues --   -0.21179
 Alpha virt. eigenvalues --   -0.08510  -0.01863  -0.00183   0.02086   0.02758
 Alpha virt. eigenvalues --    0.04206   0.05361   0.05989   0.06480   0.06673
 Alpha virt. eigenvalues --    0.07882   0.08582   0.08662   0.09127   0.09242

 Mulliken charges:
               1
     1  Mg   0.833226
     2  C    0.051420
     3  C   -0.082161
     4  C   -0.070338
     5  C   -0.080509
     6  N   -0.209517
     7  C   -0.070703
     8  C    0.010650
     9  C   -0.072573
    10  C   -0.023591
    11  C    0.047138
    12  C    0.040876
    13  C    0.058017
    14  C    0.128590
    15  O   -0.219950
    16  O   -0.313481
    17  N   -0.362313
    18  C    0.170681
    19  C   -0.116384
    20  C   -0.037828
    21  C    0.148488
    22  C    0.098541
    23  C    0.036739
    24  O   -0.200811
    25  C    0.053886
    26  N   -0.348603
    27  C   -0.000770
    28  C   -0.010990
    29  C   -0.014599
    30  C    0.090665
    31  C    0.058919
    32  C    0.000350
    33  C    0.009576
    34  N   -0.370101
    35  C    0.134199
    36  C   -0.185190
    37  C   -0.008201
    38  C    0.094599
    39  C    0.119423
    40  C    0.045364
    41  O   -0.191020
    42  C   -0.051690
    43  C    0.168811
    44  O   -0.239129
    45  O   -0.280409
    46  C    0.190420
    47  C    0.304522
    48  C   -0.134340
    49  C   -0.178996
    50  C    0.091162
    51  C    0.084915
    52  C    0.046276
    53  C    0.023783
    54  C   -0.149083
    55  C    0.078681
    56  C    0.016208
    57  C    0.014977
    58  C    0.078583
    59  C   -0.134305
    60  C    0.038388
    61  C    0.036624
    62  C   -0.031324
    63  C    0.063765
    64  C   -0.165705
    65  C    0.039991
    66  C    0.039936
    67  H   -0.019536
    68  H   -0.008562
    69  H   -0.032201
    70  H    0.036522
    71  H    0.023843
    72  H    0.030199
    73  H    0.017639
    74  H    0.015406
    75  H    0.012391
    76  H    0.013064
    77  H    0.045834
    78  H    0.029020
    79  H    0.032916
    80  H    0.010950
    81  H    0.024792
    82  H    0.019770
    83  H    0.028159
    84  H    0.034512
    85  H    0.027943
    86  H    0.006876
    87  H    0.037010
    88  H    0.003306
    89  H    0.012798
    90  H    0.013265
    91  H    0.007328
    92  H    0.015298
    93  H    0.020904
    94  H    0.005494
    95  H    0.033268
    96  H    0.038456
    97  H    0.005224
    98  H    0.046911
    99  H    0.034153
   100  H    0.034465
   101  H    0.034859
   102  H    0.025337
   103  H    0.013960
   104  H   -0.006453
   105  H    0.023166
   106  H    0.007081
   107  H    0.011111
   108  H   -0.008061
   109  H    0.001217
   110  H    0.008743
   111  H    0.008007
   112  H    0.000421
   113  H   -0.000223
   114  H   -0.019133
   115  H    0.023858
   116  H    0.001880
   117  H   -0.008284
   118  H   -0.009788
   119  H   -0.001005
   120  H   -0.013273
   121  H   -0.006795
   122  H   -0.008843
   123  H   -0.004595
   124  H   -0.004234
   125  H   -0.002227
   126  H    0.003783
   127  H    0.020873
   128  H   -0.000057
   129  H    0.008488
   130  H    0.002698
   131  H    0.002204
   132  H   -0.000427
   133  H    0.001946
   134  H    0.005661
   135  H    0.005054
   136  H    0.003892
   137  H    0.010414
   138  H   -0.000353
   139  H    0.006219
   140  H    0.011694
 Sum of Mulliken charges =  -0.00000

 Dipole moment (field-independent basis, Debye):
    X=             -3.1335    Y=              3.0038    Z=             -2.7667  Tot=              5.1474
 Quadrupole moment (field-independent basis, Debye-Ang):
   XX=           -379.8117   YY=           -413.7671   ZZ=           -404.0077
   XY=             20.1397   XZ=             18.5301   YZ=             -5.5453

 Normal termination of Gaussian 16 at Fri Apr 29 06:29:41 2022.
