 Gaussian 16, Revision A.03,
 Gaussian 16:  ES64L-G16RevA.03 25-Dec-2016

 ---------------------------------
 #p PBE1PBE/Def2SVP td=(nstates=5)
 ---------------------------------

 --------------------------------------------------
 step_1_chromophore_7 TDDFT with PBE1PBE functional
 --------------------------------------------------
 Symbolic Z-matrix:
 Charge =  0 Multiplicity = 1

                         Standard orientation:
 ---------------------------------------------------------------------
 Center     Atomic      Atomic             Coordinates (Angstroms)
 Number     Number       Type             X           Y           Z
 ---------------------------------------------------------------------
      1         12           0        6.010789    0.606566    0.035209
      2          6           0        3.612700   -1.980575    0.351235
      3          6           0        3.607240    2.272213   -1.879777
      4          6           0        8.069776    3.146060   -0.266589
      5          6           0        8.457260   -1.549550    1.241802
      6          7           0        3.867214    0.168878   -0.623985
      7          6           0        3.052650   -0.860684   -0.261193
      8          6           0        1.625701   -0.825063   -0.834731
      9          6           0        1.755114    0.553447   -1.660402
     10          6           0        3.160631    0.988205   -1.367662
     11          6           0        1.556699    0.399025   -3.220193
     12          6           0        0.522627   -0.770972    0.272034
     13          6           0       -0.463063   -1.895282    0.565511
     14          6           0       -1.894729   -1.599963    0.992847
     15          8           0       -2.300907   -0.780076    1.780003
     16          8           0       -2.734187   -2.519335    0.470258
     17          7           0        5.861507    2.503437   -0.869580
     18          6           0        4.817613    2.981167   -1.674955
     19          6           0        5.235651    4.257453   -2.210587
     20          6           0        6.453094    4.610380   -1.633610
     21          6           0        6.822253    3.424452   -0.836342
     22          6           0        4.264900    5.035195   -3.032003
     23          6           0        7.342167    5.839716   -1.817910
     24          8           0        8.430264    6.009512   -1.259447
     25          6           0        6.786868    6.956635   -2.610750
     26          7           0        8.011984    0.779830    0.324192
     27          6           0        8.642360    1.993100    0.342956
     28          6           0       10.010448    1.905862    1.100671
     29          6           0       10.114003    0.426894    1.449939
     30          6           0        8.797635   -0.197896    0.909810
     31          6           0       11.210098    2.505685    0.296777
     32          6           0       10.294174    0.265832    2.967087
     33          6           0       11.304372   -0.705539    3.459594
     34          7           0        6.112299   -1.390345    0.584315
     35          6           0        7.156433   -2.128403    1.081666
     36          6           0        6.745604   -3.461171    1.408222
     37          6           0        5.274835   -3.485100    1.241146
     38          6           0        4.965933   -2.161182    0.735577
     39          6           0        7.666084   -4.593606    1.894689
     40          6           0        4.019794   -4.271213    1.346608
     41          8           0        3.812990   -5.388293    1.850326
     42          6           0        2.905848   -3.301779    0.773148
     43          6           0        2.389841   -4.140312   -0.354221
     44          8           0        2.808776   -4.215346   -1.502974
     45          8           0        1.287892   -4.749680   -0.011813
     46          6           0        0.693511   -5.760648   -0.919696
     47          6           0       -4.155719   -2.435912    0.801601
     48          6           0       -5.023966   -1.968852   -0.316402
     49          6           0       -5.820341   -2.708714   -1.144939
     50          6           0       -6.121815   -4.147897   -0.936714
     51          6           0       -6.702924   -2.001459   -2.068276
     52          6           0       -8.100715   -1.661648   -1.607535
     53          6           0       -9.059794   -1.862555   -2.820758
     54          6           0      -10.637980   -1.928487   -2.366864
     55          6           0      -11.564645   -2.847325   -3.118627
     56          6           0      -11.118891   -0.496096   -2.161203
     57          6           0      -12.572450   -0.351858   -1.596987
     58          6           0      -12.911872    1.020976   -0.975827
     59          6           0      -13.731176    0.993310    0.342723
     60          6           0      -14.908927    1.995613    0.194197
     61          6           0      -12.802599    1.370322    1.653056
     62          6           0      -12.488744    2.875497    1.743751
     63          6           0      -12.934886    3.451076    3.119127
     64          6           0      -11.828467    4.531101    3.495953
     65          6           0      -10.603599    4.013153    4.283120
     66          6           0      -12.473147    5.787819    4.238651
     67          1           0        2.721151    2.734722   -2.318787
     68          1           0        8.864530    3.891658   -0.331787
     69          1           0        9.223677   -2.188106    1.685173
     70          1           0        1.524066   -1.668902   -1.518306
     71          1           0        1.134167    1.397193   -1.357786
     72          1           0        1.616505   -0.608318   -3.631334
     73          1           0        2.316999    0.973762   -3.747921
     74          1           0        0.582002    0.810474   -3.483080
     75          1           0       -0.107966    0.085207    0.031878
     76          1           0        0.976738   -0.606740    1.248402
     77          1           0       -0.013497   -2.317504    1.464362
     78          1           0       -0.389089   -2.493130   -0.342954
     79          1           0        4.009283    5.986515   -2.567405
     80          1           0        3.338112    4.479270   -3.176063
     81          1           0        4.642382    5.285494   -4.022982
     82          1           0        5.784983    7.193479   -2.252428
     83          1           0        6.577681    6.672064   -3.642043
     84          1           0        7.354915    7.883827   -2.542034
     85          1           0        9.819497    2.541527    1.965137
     86          1           0       11.011400   -0.017307    1.019603
     87          1           0       10.919968    3.046962   -0.603628
     88          1           0       11.931793    1.761207   -0.037347
     89          1           0       11.836443    3.100886    0.961091
     90          1           0        9.301740   -0.049690    3.286455
     91          1           0       10.584245    1.176561    3.490465
     92          1           0       10.746324   -1.365911    4.122950
     93          1           0       12.150453   -0.178815    3.900859
     94          1           0       11.694415   -1.386433    2.702748
     95          1           0        8.028322   -5.150627    1.031409
     96          1           0        7.098329   -5.223191    2.579631
     97          1           0        8.555372   -4.213973    2.398301
     98          1           0        2.153909   -3.194829    1.554762
     99          1           0        0.406712   -5.367427   -1.894388
    100          1           0       -0.165821   -6.284749   -0.501865
    101          1           0        1.311010   -6.624145   -1.165119
    102          1           0       -4.404992   -1.702076    1.569130
    103          1           0       -4.422339   -3.395493    1.244934
    104          1           0       -5.168195   -0.893724   -0.418477
    105          1           0       -7.169003   -4.267167   -0.657994
    106          1           0       -5.484721   -4.589323   -0.170095
    107          1           0       -5.970505   -4.715895   -1.855474
    108          1           0       -6.738886   -2.627617   -2.960046
    109          1           0       -6.115382   -1.124456   -2.339761
    110          1           0       -8.049248   -0.634795   -1.246820
    111          1           0       -8.495415   -2.260281   -0.786073
    112          1           0       -8.902811   -2.767859   -3.407106
    113          1           0       -8.982165   -0.981484   -3.457528
    114          1           0      -10.636696   -2.354661   -1.364148
    115          1           0      -12.221503   -3.478878   -2.518941
    116          1           0      -11.046386   -3.445879   -3.867056
    117          1           0      -12.118442   -2.076419   -3.654770
    118          1           0      -11.253373   -0.103581   -3.168955
    119          1           0      -10.347184    0.078684   -1.648292
    120          1           0      -12.816070   -1.131158   -0.875648
    121          1           0      -13.257802   -0.564105   -2.417909
    122          1           0      -13.494294    1.527708   -1.745309
    123          1           0      -11.996356    1.588300   -0.807232
    124          1           0      -14.088463   -0.014277    0.552658
    125          1           0      -15.187171    2.314814    1.199095
    126          1           0      -15.812140    1.527729   -0.196762
    127          1           0      -14.725125    2.829447   -0.483853
    128          1           0      -11.840757    0.869354    1.542149
    129          1           0      -13.379084    0.976750    2.490190
    130          1           0      -12.992804    3.506146    1.011872
    131          1           0      -11.428778    3.054910    1.565023
    132          1           0      -13.016755    2.566404    3.750324
    133          1           0      -13.945998    3.844880    3.006415
    134          1           0      -11.430166    5.014833    2.602979
    135          1           0      -10.659225    3.000460    4.683152
    136          1           0      -10.388592    4.578179    5.189069
    137          1           0       -9.724053    4.031815    3.639073
    138          1           0      -13.553273    5.719523    4.114195
    139          1           0      -12.205588    6.715987    3.733436
    140          1           0      -12.090934    5.733850    5.258181
 ---------------------------------------------------------------------

 SCF Done:  E(RPBE1PBE) =  -3005.35357579     A.U. after   15 cycles

 Excitation energies and oscillator strengths:

 Excited State   1:      Singlet-A      1.8648 eV  664.85 nm  f=0.3601  <S**2>=0.000
     245 -> 248        0.18321
     246 -> 247        0.68971
 This state for optimization and/or second-order correction.
 Total Energy, E(TD-HF/TD-DFT) =  -3005.28504426
 Copying the excited state density for this state as the 1-particle RhoCI density.

 Excited State   2:      Singlet-A      2.2121 eV  560.49 nm  f=0.1121  <S**2>=0.000
     245 -> 247        0.65048
     246 -> 248       -0.26763

 Excited State   3:      Singlet-A      2.9933 eV  414.20 nm  f=0.0065  <S**2>=0.000
     244 -> 247        0.69242

 Excited State   4:      Singlet-A      3.1252 eV  396.72 nm  f=0.0004  <S**2>=0.000
     241 -> 247       -0.14410
     242 -> 247        0.64762
     242 -> 249       -0.19004

 Excited State   5:      Singlet-A      3.1890 eV  388.79 nm  f=0.0025  <S**2>=0.000
     240 -> 247        0.58032
     240 -> 249        0.16315
     240 -> 250        0.11417
     241 -> 247        0.30525

 The electronic state is 1-A.
 Alpha  occ. eigenvalues --  -46.91956 -19.26006 -19.24820 -19.19495 -19.19390
 Alpha  occ. eigenvalues --  -19.19302 -19.18535 -14.41963 -14.41551 -14.39347
 Alpha  occ. eigenvalues --  -14.38859 -10.35943 -10.35758 -10.32881 -10.32794
 Alpha  occ. eigenvalues --  -10.29185 -10.29146 -10.28936 -10.28867 -10.28606
 Alpha  occ. eigenvalues --  -10.28509 -10.28409 -10.28037 -10.27044 -10.26989
 Alpha  occ. eigenvalues --  -10.26847 -10.26604 -10.26533 -10.26464 -10.25919
 Alpha  occ. eigenvalues --  -10.25903 -10.25718 -10.25344 -10.25333 -10.24927
 Alpha  occ. eigenvalues --  -10.24879 -10.24724 -10.24628 -10.24562 -10.24562
 Alpha  occ. eigenvalues --  -10.23952 -10.23862 -10.23761 -10.23739 -10.23661
 Alpha  occ. eigenvalues --  -10.23524 -10.23523 -10.23428 -10.23357 -10.23291
 Alpha  occ. eigenvalues --  -10.23189 -10.23182 -10.23039 -10.22914 -10.22696
 Alpha  occ. eigenvalues --  -10.22691 -10.22467 -10.22445 -10.22337 -10.22320
 Alpha  occ. eigenvalues --  -10.22058 -10.21997 -10.21902 -10.21863 -10.21805
 Alpha  occ. eigenvalues --  -10.21473  -3.14130  -1.86972  -1.86507  -1.86357
 Alpha  occ. eigenvalues --   -1.12690  -1.11587  -1.04510  -1.03376  -1.02268
 Alpha  occ. eigenvalues --   -1.01392  -1.00058  -0.98440  -0.97432  -0.96295
 Alpha  occ. eigenvalues --   -0.86357  -0.85738  -0.83884  -0.83787  -0.83490
 Alpha  occ. eigenvalues --   -0.83057  -0.82476  -0.81993  -0.81150  -0.80721
 Alpha  occ. eigenvalues --   -0.80023  -0.79423  -0.78739  -0.77910  -0.77886
 Alpha  occ. eigenvalues --   -0.76804  -0.76661  -0.75780  -0.75153  -0.74866
 Alpha  occ. eigenvalues --   -0.74022  -0.72866  -0.72280  -0.71817  -0.70813
 Alpha  occ. eigenvalues --   -0.70621  -0.69539  -0.69139  -0.68907  -0.68166
 Alpha  occ. eigenvalues --   -0.67602  -0.66745  -0.66233  -0.64628  -0.63147
 Alpha  occ. eigenvalues --   -0.62619  -0.62410  -0.61674  -0.61367  -0.60730
 Alpha  occ. eigenvalues --   -0.60294  -0.59734  -0.59403  -0.58966  -0.57839
 Alpha  occ. eigenvalues --   -0.57628  -0.57105  -0.56861  -0.55610  -0.55255
 Alpha  occ. eigenvalues --   -0.54120  -0.53651  -0.53489  -0.53185  -0.52475
 Alpha  occ. eigenvalues --   -0.52440  -0.52193  -0.51107  -0.50574  -0.50087
 Alpha  occ. eigenvalues --   -0.49723  -0.49586  -0.49024  -0.48873  -0.48806
 Alpha  occ. eigenvalues --   -0.48657  -0.47968  -0.47883  -0.47661  -0.47428
 Alpha  occ. eigenvalues --   -0.47394  -0.46985  -0.46851  -0.46634  -0.46325
 Alpha  occ. eigenvalues --   -0.46155  -0.46115  -0.45340  -0.45292  -0.44963
 Alpha  occ. eigenvalues --   -0.44750  -0.44635  -0.44468  -0.44131  -0.44077
 Alpha  occ. eigenvalues --   -0.43948  -0.43732  -0.43645  -0.43545  -0.43457
 Alpha  occ. eigenvalues --   -0.43153  -0.43076  -0.42615  -0.42444  -0.42385
 Alpha  occ. eigenvalues --   -0.42259  -0.42179  -0.41426  -0.41294  -0.40985
 Alpha  occ. eigenvalues --   -0.40839  -0.40648  -0.40571  -0.40377  -0.40334
 Alpha  occ. eigenvalues --   -0.40034  -0.39895  -0.39823  -0.39551  -0.39485
 Alpha  occ. eigenvalues --   -0.39359  -0.39060  -0.38947  -0.38861  -0.38779
 Alpha  occ. eigenvalues --   -0.38743  -0.38119  -0.37926  -0.37833  -0.37743
 Alpha  occ. eigenvalues --   -0.37701  -0.37481  -0.37380  -0.36909  -0.36712
 Alpha  occ. eigenvalues --   -0.36630  -0.36407  -0.36316  -0.36270  -0.36118
 Alpha  occ. eigenvalues --   -0.35723  -0.35618  -0.35337  -0.34931  -0.34840
 Alpha  occ. eigenvalues --   -0.34758  -0.34622  -0.34376  -0.34190  -0.33678
 Alpha  occ. eigenvalues --   -0.33081  -0.33003  -0.32870  -0.32783  -0.32632
 Alpha  occ. eigenvalues --   -0.31945  -0.31841  -0.31566  -0.31469  -0.31350
 Alpha  occ. eigenvalues --   -0.30931  -0.30276  -0.29801  -0.29416  -0.28869
 Alpha  occ. eigenvalues --   -0.28686  -0.28121  -0.28099  -0.27264  -0.26316
 Alpha  occ. eigenvalues --   -0.25959  -0.25730  -0.25367  -0.24693  -0.20820
 Alpha  occ. eigenvalues --   -0.18787
 Alpha virt. eigenvalues --   -0.11062  -0.05397  -0.04390  -0.02282  -0.00302
 Alpha virt. eigenvalues --   -0.00083   0.01084   0.01594   0.01854   0.02919
 Alpha virt. eigenvalues --    0.04060   0.04363   0.05416   0.05651   0.05894

 Mulliken charges:
               1
     1  Mg   0.985908
     2  C    0.035889
     3  C   -0.075890
     4  C   -0.066105
     5  C   -0.076054
     6  N   -0.318843
     7  C    0.003801
     8  C   -0.071394
     9  C   -0.147793
    10  C    0.021115
    11  C   -0.006882
    12  C    0.004986
    13  C   -0.029121
    14  C    0.205400
    15  O   -0.256255
    16  O   -0.345052
    17  N   -0.475729
    18  C    0.191585
    19  C   -0.149477
    20  C   -0.084705
    21  C    0.178939
    22  C    0.039716
    23  C    0.086967
    24  O   -0.241912
    25  C   -0.018525
    26  N   -0.452716
    27  C    0.037203
    28  C   -0.090331
    29  C   -0.091022
    30  C    0.128403
    31  C    0.003057
    32  C   -0.057789
    33  C   -0.061372
    34  N   -0.490235
    35  C    0.155379
    36  C   -0.196299
    37  C   -0.043314
    38  C    0.141779
    39  C    0.064929
    40  C    0.127406
    41  O   -0.232757
    42  C   -0.156283
    43  C    0.263557
    44  O   -0.275366
    45  O   -0.315101
    46  C    0.133696
    47  C    0.255701
    48  C   -0.144963
    49  C   -0.213564
    50  C    0.028958
    51  C    0.014857
    52  C   -0.013210
    53  C   -0.036140
    54  C   -0.226560
    55  C    0.014773
    56  C   -0.046007
    57  C   -0.043338
    58  C    0.025899
    59  C   -0.214434
    60  C   -0.027826
    61  C   -0.022408
    62  C   -0.092019
    63  C    0.011007
    64  C   -0.261512
    65  C   -0.015216
    66  C   -0.020791
    67  H    0.010662
    68  H    0.025534
    69  H    0.002937
    70  H    0.073600
    71  H    0.058406
    72  H    0.055724
    73  H    0.045859
    74  H    0.042808
    75  H    0.045740
    76  H    0.044683
    77  H    0.079754
    78  H    0.062714
    79  H    0.058783
    80  H    0.038090
    81  H    0.051333
    82  H    0.047190
    83  H    0.055027
    84  H    0.060421
    85  H    0.064607
    86  H    0.044243
    87  H    0.062866
    88  H    0.030118
    89  H    0.040094
    90  H    0.047651
    91  H    0.040406
    92  H    0.042639
    93  H    0.048782
    94  H    0.031829
    95  H    0.063164
    96  H    0.066878
    97  H    0.033423
    98  H    0.085197
    99  H    0.055796
   100  H    0.056250
   101  H    0.056474
   102  H    0.053297
   103  H    0.040504
   104  H    0.022947
   105  H    0.050846
   106  H    0.034637
   107  H    0.039283
   108  H    0.025757
   109  H    0.033936
   110  H    0.040244
   111  H    0.039413
   112  H    0.031984
   113  H    0.033741
   114  H    0.020810
   115  H    0.050276
   116  H    0.029781
   117  H    0.020602
   118  H    0.025621
   119  H    0.031414
   120  H    0.018922
   121  H    0.025337
   122  H    0.024589
   123  H    0.028242
   124  H    0.032160
   125  H    0.028396
   126  H    0.033538
   127  H    0.046394
   128  H    0.034124
   129  H    0.039565
   130  H    0.035767
   131  H    0.034530
   132  H    0.031645
   133  H    0.032859
   134  H    0.043882
   135  H    0.031919
   136  H    0.030059
   137  H    0.037048
   138  H    0.027403
   139  H    0.033719
   140  H    0.038525
 Sum of Mulliken charges =  -0.00000

 Dipole moment (field-independent basis, Debye):
    X=             -3.0542    Y=              2.2828    Z=             -2.4215  Tot=              4.5170
 Quadrupole moment (field-independent basis, Debye-Ang):
   XX=           -372.3979   YY=           -411.8799   ZZ=           -401.5633
   XY=             15.5531   XZ=             21.9278   YZ=             -5.2241

 Normal termination of Gaussian 16 at Fri Apr 29 06:46:44 2022.
