 Gaussian 16, Revision A.03,
 Gaussian 16:  ES64L-G16RevA.03 25-Dec-2016

 --------------------------------
 #p wB97XD/Def2SVP td=(nstates=5)
 --------------------------------

 -------------------------------------------------
 step_1_chromophore_7 TDDFT with wB97XD functional
 -------------------------------------------------
 Symbolic Z-matrix:
 Charge =  0 Multiplicity = 1

                         Standard orientation:
 ---------------------------------------------------------------------
 Center     Atomic      Atomic             Coordinates (Angstroms)
 Number     Number       Type             X           Y           Z
 ---------------------------------------------------------------------
      1         12           0        6.010789    0.606566    0.035209
      2          6           0        3.612700   -1.980575    0.351235
      3          6           0        3.607240    2.272213   -1.879777
      4          6           0        8.069776    3.146060   -0.266589
      5          6           0        8.457260   -1.549550    1.241802
      6          7           0        3.867214    0.168878   -0.623985
      7          6           0        3.052650   -0.860684   -0.261193
      8          6           0        1.625701   -0.825063   -0.834731
      9          6           0        1.755114    0.553447   -1.660402
     10          6           0        3.160631    0.988205   -1.367662
     11          6           0        1.556699    0.399025   -3.220193
     12          6           0        0.522627   -0.770972    0.272034
     13          6           0       -0.463063   -1.895282    0.565511
     14          6           0       -1.894729   -1.599963    0.992847
     15          8           0       -2.300907   -0.780076    1.780003
     16          8           0       -2.734187   -2.519335    0.470258
     17          7           0        5.861507    2.503437   -0.869580
     18          6           0        4.817613    2.981167   -1.674955
     19          6           0        5.235651    4.257453   -2.210587
     20          6           0        6.453094    4.610380   -1.633610
     21          6           0        6.822253    3.424452   -0.836342
     22          6           0        4.264900    5.035195   -3.032003
     23          6           0        7.342167    5.839716   -1.817910
     24          8           0        8.430264    6.009512   -1.259447
     25          6           0        6.786868    6.956635   -2.610750
     26          7           0        8.011984    0.779830    0.324192
     27          6           0        8.642360    1.993100    0.342956
     28          6           0       10.010448    1.905862    1.100671
     29          6           0       10.114003    0.426894    1.449939
     30          6           0        8.797635   -0.197896    0.909810
     31          6           0       11.210098    2.505685    0.296777
     32          6           0       10.294174    0.265832    2.967087
     33          6           0       11.304372   -0.705539    3.459594
     34          7           0        6.112299   -1.390345    0.584315
     35          6           0        7.156433   -2.128403    1.081666
     36          6           0        6.745604   -3.461171    1.408222
     37          6           0        5.274835   -3.485100    1.241146
     38          6           0        4.965933   -2.161182    0.735577
     39          6           0        7.666084   -4.593606    1.894689
     40          6           0        4.019794   -4.271213    1.346608
     41          8           0        3.812990   -5.388293    1.850326
     42          6           0        2.905848   -3.301779    0.773148
     43          6           0        2.389841   -4.140312   -0.354221
     44          8           0        2.808776   -4.215346   -1.502974
     45          8           0        1.287892   -4.749680   -0.011813
     46          6           0        0.693511   -5.760648   -0.919696
     47          6           0       -4.155719   -2.435912    0.801601
     48          6           0       -5.023966   -1.968852   -0.316402
     49          6           0       -5.820341   -2.708714   -1.144939
     50          6           0       -6.121815   -4.147897   -0.936714
     51          6           0       -6.702924   -2.001459   -2.068276
     52          6           0       -8.100715   -1.661648   -1.607535
     53          6           0       -9.059794   -1.862555   -2.820758
     54          6           0      -10.637980   -1.928487   -2.366864
     55          6           0      -11.564645   -2.847325   -3.118627
     56          6           0      -11.118891   -0.496096   -2.161203
     57          6           0      -12.572450   -0.351858   -1.596987
     58          6           0      -12.911872    1.020976   -0.975827
     59          6           0      -13.731176    0.993310    0.342723
     60          6           0      -14.908927    1.995613    0.194197
     61          6           0      -12.802599    1.370322    1.653056
     62          6           0      -12.488744    2.875497    1.743751
     63          6           0      -12.934886    3.451076    3.119127
     64          6           0      -11.828467    4.531101    3.495953
     65          6           0      -10.603599    4.013153    4.283120
     66          6           0      -12.473147    5.787819    4.238651
     67          1           0        2.721151    2.734722   -2.318787
     68          1           0        8.864530    3.891658   -0.331787
     69          1           0        9.223677   -2.188106    1.685173
     70          1           0        1.524066   -1.668902   -1.518306
     71          1           0        1.134167    1.397193   -1.357786
     72          1           0        1.616505   -0.608318   -3.631334
     73          1           0        2.316999    0.973762   -3.747921
     74          1           0        0.582002    0.810474   -3.483080
     75          1           0       -0.107966    0.085207    0.031878
     76          1           0        0.976738   -0.606740    1.248402
     77          1           0       -0.013497   -2.317504    1.464362
     78          1           0       -0.389089   -2.493130   -0.342954
     79          1           0        4.009283    5.986515   -2.567405
     80          1           0        3.338112    4.479270   -3.176063
     81          1           0        4.642382    5.285494   -4.022982
     82          1           0        5.784983    7.193479   -2.252428
     83          1           0        6.577681    6.672064   -3.642043
     84          1           0        7.354915    7.883827   -2.542034
     85          1           0        9.819497    2.541527    1.965137
     86          1           0       11.011400   -0.017307    1.019603
     87          1           0       10.919968    3.046962   -0.603628
     88          1           0       11.931793    1.761207   -0.037347
     89          1           0       11.836443    3.100886    0.961091
     90          1           0        9.301740   -0.049690    3.286455
     91          1           0       10.584245    1.176561    3.490465
     92          1           0       10.746324   -1.365911    4.122950
     93          1           0       12.150453   -0.178815    3.900859
     94          1           0       11.694415   -1.386433    2.702748
     95          1           0        8.028322   -5.150627    1.031409
     96          1           0        7.098329   -5.223191    2.579631
     97          1           0        8.555372   -4.213973    2.398301
     98          1           0        2.153909   -3.194829    1.554762
     99          1           0        0.406712   -5.367427   -1.894388
    100          1           0       -0.165821   -6.284749   -0.501865
    101          1           0        1.311010   -6.624145   -1.165119
    102          1           0       -4.404992   -1.702076    1.569130
    103          1           0       -4.422339   -3.395493    1.244934
    104          1           0       -5.168195   -0.893724   -0.418477
    105          1           0       -7.169003   -4.267167   -0.657994
    106          1           0       -5.484721   -4.589323   -0.170095
    107          1           0       -5.970505   -4.715895   -1.855474
    108          1           0       -6.738886   -2.627617   -2.960046
    109          1           0       -6.115382   -1.124456   -2.339761
    110          1           0       -8.049248   -0.634795   -1.246820
    111          1           0       -8.495415   -2.260281   -0.786073
    112          1           0       -8.902811   -2.767859   -3.407106
    113          1           0       -8.982165   -0.981484   -3.457528
    114          1           0      -10.636696   -2.354661   -1.364148
    115          1           0      -12.221503   -3.478878   -2.518941
    116          1           0      -11.046386   -3.445879   -3.867056
    117          1           0      -12.118442   -2.076419   -3.654770
    118          1           0      -11.253373   -0.103581   -3.168955
    119          1           0      -10.347184    0.078684   -1.648292
    120          1           0      -12.816070   -1.131158   -0.875648
    121          1           0      -13.257802   -0.564105   -2.417909
    122          1           0      -13.494294    1.527708   -1.745309
    123          1           0      -11.996356    1.588300   -0.807232
    124          1           0      -14.088463   -0.014277    0.552658
    125          1           0      -15.187171    2.314814    1.199095
    126          1           0      -15.812140    1.527729   -0.196762
    127          1           0      -14.725125    2.829447   -0.483853
    128          1           0      -11.840757    0.869354    1.542149
    129          1           0      -13.379084    0.976750    2.490190
    130          1           0      -12.992804    3.506146    1.011872
    131          1           0      -11.428778    3.054910    1.565023
    132          1           0      -13.016755    2.566404    3.750324
    133          1           0      -13.945998    3.844880    3.006415
    134          1           0      -11.430166    5.014833    2.602979
    135          1           0      -10.659225    3.000460    4.683152
    136          1           0      -10.388592    4.578179    5.189069
    137          1           0       -9.724053    4.031815    3.639073
    138          1           0      -13.553273    5.719523    4.114195
    139          1           0      -12.205588    6.715987    3.733436
    140          1           0      -12.090934    5.733850    5.258181
 ---------------------------------------------------------------------

 SCF Done:  E(RwB97XD) =  -3007.86038612     A.U. after   17 cycles

 Excitation energies and oscillator strengths:

 Excited State   1:      Singlet-A      1.7263 eV  718.21 nm  f=0.3736  <S**2>=0.000
     245 -> 248        0.18638
     246 -> 247        0.68173
     245 <- 248        0.11184
 This state for optimization and/or second-order correction.
 Total Energy, E(TD-HF/TD-DFT) =  -3007.79694590
 Copying the excited state density for this state as the 1-particle RhoCI density.

 Excited State   2:      Singlet-A      2.1687 eV  571.70 nm  f=0.1080  <S**2>=0.000
     245 -> 247        0.63391
     246 -> 248       -0.29503

 Excited State   3:      Singlet-A      3.4495 eV  359.43 nm  f=0.1230  <S**2>=0.000
     239 -> 247       -0.11209
     241 -> 247        0.24458
     242 -> 247       -0.20063
     244 -> 247        0.55370
     245 -> 247       -0.11196
     246 -> 248       -0.21598

 Excited State   4:      Singlet-A      3.4843 eV  355.83 nm  f=0.4038  <S**2>=0.000
     239 -> 247        0.12340
     241 -> 247       -0.10058
     244 -> 247        0.33710
     245 -> 247        0.21677
     246 -> 248        0.54698

 Excited State   5:      Singlet-A      3.6677 eV  338.05 nm  f=0.0029  <S**2>=0.000
     240 -> 247        0.51768
     240 -> 248        0.10447
     240 -> 249        0.34082
     240 -> 250       -0.23255

 The electronic state is 1-A.
 Alpha  occ. eigenvalues --  -46.94861 -19.30512 -19.29364 -19.24663 -19.23957
 Alpha  occ. eigenvalues --  -19.23893 -19.23147 -14.47181 -14.46478 -14.44453
 Alpha  occ. eigenvalues --  -14.43546 -10.42720 -10.42496 -10.39989 -10.39458
 Alpha  occ. eigenvalues --  -10.35749 -10.35649 -10.35486 -10.35282 -10.35099
 Alpha  occ. eigenvalues --  -10.34883 -10.34865 -10.34518 -10.33655 -10.33269
 Alpha  occ. eigenvalues --  -10.32871 -10.32769 -10.32722 -10.32715 -10.32209
 Alpha  occ. eigenvalues --  -10.32169 -10.32018 -10.31993 -10.31743 -10.31501
 Alpha  occ. eigenvalues --  -10.31122 -10.31051 -10.30980 -10.30911 -10.30874
 Alpha  occ. eigenvalues --  -10.30447 -10.30293 -10.30037 -10.30026 -10.30009
 Alpha  occ. eigenvalues --  -10.29892 -10.29873 -10.29715 -10.29705 -10.29634
 Alpha  occ. eigenvalues --  -10.29459 -10.29438 -10.29399 -10.29091 -10.29071
 Alpha  occ. eigenvalues --  -10.29039 -10.28822 -10.28820 -10.28711 -10.28620
 Alpha  occ. eigenvalues --  -10.28434 -10.28430 -10.28336 -10.28234 -10.28228
 Alpha  occ. eigenvalues --  -10.27886  -3.20890  -1.94482  -1.94016  -1.93866
 Alpha  occ. eigenvalues --   -1.19992  -1.18934  -1.12343  -1.10590  -1.09585
 Alpha  occ. eigenvalues --   -1.08674  -1.07510  -1.06109  -1.04769  -1.03328
 Alpha  occ. eigenvalues --   -0.93813  -0.93393  -0.91539  -0.91393  -0.91164
 Alpha  occ. eigenvalues --   -0.90899  -0.90156  -0.89829  -0.88785  -0.88393
 Alpha  occ. eigenvalues --   -0.87698  -0.86843  -0.86322  -0.85528  -0.85357
 Alpha  occ. eigenvalues --   -0.84670  -0.84373  -0.83443  -0.82745  -0.82510
 Alpha  occ. eigenvalues --   -0.81692  -0.80806  -0.79847  -0.79363  -0.78483
 Alpha  occ. eigenvalues --   -0.78092  -0.77152  -0.76842  -0.76579  -0.75842
 Alpha  occ. eigenvalues --   -0.75190  -0.74164  -0.73805  -0.72260  -0.70789
 Alpha  occ. eigenvalues --   -0.70108  -0.69880  -0.69280  -0.69040  -0.68281
 Alpha  occ. eigenvalues --   -0.67987  -0.67192  -0.66883  -0.66358  -0.65304
 Alpha  occ. eigenvalues --   -0.65266  -0.64506  -0.64375  -0.63217  -0.63000
 Alpha  occ. eigenvalues --   -0.61598  -0.61049  -0.60930  -0.60531  -0.59944
 Alpha  occ. eigenvalues --   -0.59734  -0.59624  -0.58680  -0.58074  -0.57421
 Alpha  occ. eigenvalues --   -0.57051  -0.56998  -0.56450  -0.56260  -0.56144
 Alpha  occ. eigenvalues --   -0.55944  -0.55431  -0.55330  -0.55132  -0.54983
 Alpha  occ. eigenvalues --   -0.54736  -0.54553  -0.54227  -0.54047  -0.53681
 Alpha  occ. eigenvalues --   -0.53550  -0.53395  -0.52662  -0.52506  -0.52404
 Alpha  occ. eigenvalues --   -0.52087  -0.51958  -0.51868  -0.51726  -0.51379
 Alpha  occ. eigenvalues --   -0.51299  -0.51200  -0.50966  -0.50892  -0.50589
 Alpha  occ. eigenvalues --   -0.50475  -0.50324  -0.50027  -0.49722  -0.49668
 Alpha  occ. eigenvalues --   -0.49575  -0.49322  -0.48681  -0.48542  -0.48255
 Alpha  occ. eigenvalues --   -0.48021  -0.47794  -0.47754  -0.47566  -0.47461
 Alpha  occ. eigenvalues --   -0.47136  -0.47057  -0.46980  -0.46719  -0.46606
 Alpha  occ. eigenvalues --   -0.46488  -0.46280  -0.46157  -0.46059  -0.45935
 Alpha  occ. eigenvalues --   -0.45863  -0.45237  -0.45087  -0.44956  -0.44866
 Alpha  occ. eigenvalues --   -0.44760  -0.44555  -0.44282  -0.44040  -0.43940
 Alpha  occ. eigenvalues --   -0.43784  -0.43613  -0.43416  -0.43274  -0.43160
 Alpha  occ. eigenvalues --   -0.42761  -0.42678  -0.42299  -0.42030  -0.41849
 Alpha  occ. eigenvalues --   -0.41753  -0.41628  -0.41405  -0.41158  -0.40698
 Alpha  occ. eigenvalues --   -0.40037  -0.40035  -0.39910  -0.39695  -0.39655
 Alpha  occ. eigenvalues --   -0.39009  -0.38943  -0.38497  -0.38445  -0.38328
 Alpha  occ. eigenvalues --   -0.37950  -0.37323  -0.36518  -0.36246  -0.35802
 Alpha  occ. eigenvalues --   -0.35518  -0.35173  -0.34928  -0.34120  -0.33802
 Alpha  occ. eigenvalues --   -0.32625  -0.32503  -0.32019  -0.30820  -0.25860
 Alpha  occ. eigenvalues --   -0.23013
 Alpha virt. eigenvalues --   -0.06850   0.00056   0.01862   0.04175   0.05853
 Alpha virt. eigenvalues --    0.06365   0.07832   0.08328   0.08749   0.09370
 Alpha virt. eigenvalues --    0.10455   0.11224   0.12167   0.12404   0.12690

 Mulliken charges:
               1
     1  Mg   0.973877
     2  C    0.038000
     3  C   -0.095106
     4  C   -0.084702
     5  C   -0.088959
     6  N   -0.280088
     7  C   -0.032428
     8  C   -0.040869
     9  C   -0.125377
    10  C    0.010767
    11  C    0.002317
    12  C    0.010076
    13  C   -0.007179
    14  C    0.192773
    15  O   -0.252971
    16  O   -0.344061
    17  N   -0.445691
    18  C    0.189646
    19  C   -0.135124
    20  C   -0.077940
    21  C    0.174561
    22  C    0.050375
    23  C    0.084300
    24  O   -0.232400
    25  C   -0.006874
    26  N   -0.424791
    27  C    0.030799
    28  C   -0.065457
    29  C   -0.064865
    30  C    0.113882
    31  C    0.012604
    32  C   -0.040796
    33  C   -0.047854
    34  N   -0.454717
    35  C    0.145654
    36  C   -0.198884
    37  C   -0.045777
    38  C    0.123872
    39  C    0.077679
    40  C    0.114008
    41  O   -0.226370
    42  C   -0.116624
    43  C    0.234003
    44  O   -0.267841
    45  O   -0.311680
    46  C    0.149024
    47  C    0.270643
    48  C   -0.154821
    49  C   -0.202125
    50  C    0.042011
    51  C    0.039210
    52  C   -0.002242
    53  C   -0.016069
    54  C   -0.201333
    55  C    0.029093
    56  C   -0.022513
    57  C   -0.027207
    58  C    0.038110
    59  C   -0.187959
    60  C   -0.012875
    61  C   -0.005145
    62  C   -0.075915
    63  C    0.024816
    64  C   -0.229922
    65  C   -0.006382
    66  C   -0.005260
    67  H    0.002560
    68  H    0.016170
    69  H   -0.006092
    70  H    0.060799
    71  H    0.049238
    72  H    0.052805
    73  H    0.037955
    74  H    0.038281
    75  H    0.036649
    76  H    0.037886
    77  H    0.071781
    78  H    0.054666
    79  H    0.055186
    80  H    0.035630
    81  H    0.048326
    82  H    0.039920
    83  H    0.049735
    84  H    0.061338
    85  H    0.054253
    86  H    0.031637
    87  H    0.057265
    88  H    0.025240
    89  H    0.035263
    90  H    0.036789
    91  H    0.031392
    92  H    0.037364
    93  H    0.043623
    94  H    0.025356
    95  H    0.056254
    96  H    0.061461
    97  H    0.025451
    98  H    0.076258
    99  H    0.051645
   100  H    0.053078
   101  H    0.052600
   102  H    0.049012
   103  H    0.036799
   104  H    0.019234
   105  H    0.044463
   106  H    0.028344
   107  H    0.034068
   108  H    0.014994
   109  H    0.026373
   110  H    0.033430
   111  H    0.029201
   112  H    0.022409
   113  H    0.023739
   114  H    0.005789
   115  H    0.046248
   116  H    0.024766
   117  H    0.010113
   118  H    0.013196
   119  H    0.020632
   120  H    0.007980
   121  H    0.016702
   122  H    0.016040
   123  H    0.017695
   124  H    0.022374
   125  H    0.019063
   126  H    0.028227
   127  H    0.039920
   128  H    0.025422
   129  H    0.030885
   130  H    0.024390
   131  H    0.024794
   132  H    0.021527
   133  H    0.024205
   134  H    0.031603
   135  H    0.026070
   136  H    0.023894
   137  H    0.031617
   138  H    0.020566
   139  H    0.028302
   140  H    0.031245
 Sum of Mulliken charges =  -0.00000

 Dipole moment (field-independent basis, Debye):
    X=             -3.2113    Y=              3.2374    Z=             -2.8816  Tot=              5.3941
 Quadrupole moment (field-independent basis, Debye-Ang):
   XX=           -375.0178   YY=           -409.1221   ZZ=           -400.7495
   XY=             21.6625   XZ=             18.9241   YZ=             -6.2164

 Normal termination of Gaussian 16 at Fri Apr 29 07:20:08 2022.
