 Gaussian 16, Revision A.03,
 Gaussian 16:  ES64L-G16RevA.03 25-Dec-2016

 --------------------
 #p ZINDO=(nstates=5)
 --------------------

 --------------------------
 step_1_chromophore_7 ZINDO
 --------------------------
 Symbolic Z-matrix:
 Charge =  0 Multiplicity = 1

                         Standard orientation:
 ---------------------------------------------------------------------
 Center     Atomic      Atomic             Coordinates (Angstroms)
 Number     Number       Type             X           Y           Z
 ---------------------------------------------------------------------
      1         12           0        6.010789    0.606566    0.035209
      2          6           0        3.612700   -1.980575    0.351235
      3          6           0        3.607240    2.272213   -1.879777
      4          6           0        8.069776    3.146060   -0.266589
      5          6           0        8.457260   -1.549550    1.241802
      6          7           0        3.867214    0.168878   -0.623985
      7          6           0        3.052650   -0.860684   -0.261193
      8          6           0        1.625701   -0.825063   -0.834731
      9          6           0        1.755114    0.553447   -1.660402
     10          6           0        3.160631    0.988205   -1.367662
     11          6           0        1.556699    0.399025   -3.220193
     12          6           0        0.522627   -0.770972    0.272034
     13          6           0       -0.463063   -1.895282    0.565511
     14          6           0       -1.894729   -1.599963    0.992847
     15          8           0       -2.300907   -0.780076    1.780003
     16          8           0       -2.734187   -2.519335    0.470258
     17          7           0        5.861507    2.503437   -0.869580
     18          6           0        4.817613    2.981167   -1.674955
     19          6           0        5.235651    4.257453   -2.210587
     20          6           0        6.453094    4.610380   -1.633610
     21          6           0        6.822253    3.424452   -0.836342
     22          6           0        4.264900    5.035195   -3.032003
     23          6           0        7.342167    5.839716   -1.817910
     24          8           0        8.430264    6.009512   -1.259447
     25          6           0        6.786868    6.956635   -2.610750
     26          7           0        8.011984    0.779830    0.324192
     27          6           0        8.642360    1.993100    0.342956
     28          6           0       10.010448    1.905862    1.100671
     29          6           0       10.114003    0.426894    1.449939
     30          6           0        8.797635   -0.197896    0.909810
     31          6           0       11.210098    2.505685    0.296777
     32          6           0       10.294174    0.265832    2.967087
     33          6           0       11.304372   -0.705539    3.459594
     34          7           0        6.112299   -1.390345    0.584315
     35          6           0        7.156433   -2.128403    1.081666
     36          6           0        6.745604   -3.461171    1.408222
     37          6           0        5.274835   -3.485100    1.241146
     38          6           0        4.965933   -2.161182    0.735577
     39          6           0        7.666084   -4.593606    1.894689
     40          6           0        4.019794   -4.271213    1.346608
     41          8           0        3.812990   -5.388293    1.850326
     42          6           0        2.905848   -3.301779    0.773148
     43          6           0        2.389841   -4.140312   -0.354221
     44          8           0        2.808776   -4.215346   -1.502974
     45          8           0        1.287892   -4.749680   -0.011813
     46          6           0        0.693511   -5.760648   -0.919696
     47          6           0       -4.155719   -2.435912    0.801601
     48          6           0       -5.023966   -1.968852   -0.316402
     49          6           0       -5.820341   -2.708714   -1.144939
     50          6           0       -6.121815   -4.147897   -0.936714
     51          6           0       -6.702924   -2.001459   -2.068276
     52          6           0       -8.100715   -1.661648   -1.607535
     53          6           0       -9.059794   -1.862555   -2.820758
     54          6           0      -10.637980   -1.928487   -2.366864
     55          6           0      -11.564645   -2.847325   -3.118627
     56          6           0      -11.118891   -0.496096   -2.161203
     57          6           0      -12.572450   -0.351858   -1.596987
     58          6           0      -12.911872    1.020976   -0.975827
     59          6           0      -13.731176    0.993310    0.342723
     60          6           0      -14.908927    1.995613    0.194197
     61          6           0      -12.802599    1.370322    1.653056
     62          6           0      -12.488744    2.875497    1.743751
     63          6           0      -12.934886    3.451076    3.119127
     64          6           0      -11.828467    4.531101    3.495953
     65          6           0      -10.603599    4.013153    4.283120
     66          6           0      -12.473147    5.787819    4.238651
     67          1           0        2.721151    2.734722   -2.318787
     68          1           0        8.864530    3.891658   -0.331787
     69          1           0        9.223677   -2.188106    1.685173
     70          1           0        1.524066   -1.668902   -1.518306
     71          1           0        1.134167    1.397193   -1.357786
     72          1           0        1.616505   -0.608318   -3.631334
     73          1           0        2.316999    0.973762   -3.747921
     74          1           0        0.582002    0.810474   -3.483080
     75          1           0       -0.107966    0.085207    0.031878
     76          1           0        0.976738   -0.606740    1.248402
     77          1           0       -0.013497   -2.317504    1.464362
     78          1           0       -0.389089   -2.493130   -0.342954
     79          1           0        4.009283    5.986515   -2.567405
     80          1           0        3.338112    4.479270   -3.176063
     81          1           0        4.642382    5.285494   -4.022982
     82          1           0        5.784983    7.193479   -2.252428
     83          1           0        6.577681    6.672064   -3.642043
     84          1           0        7.354915    7.883827   -2.542034
     85          1           0        9.819497    2.541527    1.965137
     86          1           0       11.011400   -0.017307    1.019603
     87          1           0       10.919968    3.046962   -0.603628
     88          1           0       11.931793    1.761207   -0.037347
     89          1           0       11.836443    3.100886    0.961091
     90          1           0        9.301740   -0.049690    3.286455
     91          1           0       10.584245    1.176561    3.490465
     92          1           0       10.746324   -1.365911    4.122950
     93          1           0       12.150453   -0.178815    3.900859
     94          1           0       11.694415   -1.386433    2.702748
     95          1           0        8.028322   -5.150627    1.031409
     96          1           0        7.098329   -5.223191    2.579631
     97          1           0        8.555372   -4.213973    2.398301
     98          1           0        2.153909   -3.194829    1.554762
     99          1           0        0.406712   -5.367427   -1.894388
    100          1           0       -0.165821   -6.284749   -0.501865
    101          1           0        1.311010   -6.624145   -1.165119
    102          1           0       -4.404992   -1.702076    1.569130
    103          1           0       -4.422339   -3.395493    1.244934
    104          1           0       -5.168195   -0.893724   -0.418477
    105          1           0       -7.169003   -4.267167   -0.657994
    106          1           0       -5.484721   -4.589323   -0.170095
    107          1           0       -5.970505   -4.715895   -1.855474
    108          1           0       -6.738886   -2.627617   -2.960046
    109          1           0       -6.115382   -1.124456   -2.339761
    110          1           0       -8.049248   -0.634795   -1.246820
    111          1           0       -8.495415   -2.260281   -0.786073
    112          1           0       -8.902811   -2.767859   -3.407106
    113          1           0       -8.982165   -0.981484   -3.457528
    114          1           0      -10.636696   -2.354661   -1.364148
    115          1           0      -12.221503   -3.478878   -2.518941
    116          1           0      -11.046386   -3.445879   -3.867056
    117          1           0      -12.118442   -2.076419   -3.654770
    118          1           0      -11.253373   -0.103581   -3.168955
    119          1           0      -10.347184    0.078684   -1.648292
    120          1           0      -12.816070   -1.131158   -0.875648
    121          1           0      -13.257802   -0.564105   -2.417909
    122          1           0      -13.494294    1.527708   -1.745309
    123          1           0      -11.996356    1.588300   -0.807232
    124          1           0      -14.088463   -0.014277    0.552658
    125          1           0      -15.187171    2.314814    1.199095
    126          1           0      -15.812140    1.527729   -0.196762
    127          1           0      -14.725125    2.829447   -0.483853
    128          1           0      -11.840757    0.869354    1.542149
    129          1           0      -13.379084    0.976750    2.490190
    130          1           0      -12.992804    3.506146    1.011872
    131          1           0      -11.428778    3.054910    1.565023
    132          1           0      -13.016755    2.566404    3.750324
    133          1           0      -13.945998    3.844880    3.006415
    134          1           0      -11.430166    5.014833    2.602979
    135          1           0      -10.659225    3.000460    4.683152
    136          1           0      -10.388592    4.578179    5.189069
    137          1           0       -9.724053    4.031815    3.639073
    138          1           0      -13.553273    5.719523    4.114195
    139          1           0      -12.205588    6.715987    3.733436
    140          1           0      -12.090934    5.733850    5.258181
 ---------------------------------------------------------------------

 SCF Done:  E(RZINDO/S) =  -474.241138764     A.U. after   17 cycles

 Excitation energies and oscillator strengths:

 Excited State   1:      Singlet-A      1.3716 eV  903.97 nm  f=0.5192  <S**2>=0.000
     175 ->178         0.16160
     176 ->177         0.67134
 This state for optimization and/or second-order correction.
 Total Energy, E(CIS/TDA) =  -474.190735122
 Copying the excited state density for this state as the 1-particle RhoCI density.

 Excited State   2:      Singlet-A      1.9156 eV  647.23 nm  f=0.0348  <S**2>=0.000
     175 ->177         0.53019
     176 ->178        -0.43101

 Excited State   3:      Singlet-A      2.8724 eV  431.63 nm  f=0.5308  <S**2>=0.000
     175 ->177         0.30301
     176 ->178         0.43241
     176 ->179        -0.34235
     176 ->180        -0.23846

 Excited State   4:      Singlet-A      2.9543 eV  419.67 nm  f=0.0026  <S**2>=0.000
     167 ->177         0.12840
     167 ->179        -0.18328
     167 ->180         0.11637
     168 ->177         0.31071
     168 ->179        -0.40545
     168 ->180         0.25369
     168 ->184        -0.14985
     168 ->186         0.15863

 Excited State   5:      Singlet-A      3.0416 eV  407.62 nm  f=0.7467  <S**2>=0.000
     172 ->177         0.10618
     175 ->177         0.26835
     176 ->178         0.29374
     176 ->179         0.50349
     176 ->180         0.16015

 The electronic state is 1-A.
 Alpha  occ. eigenvalues --   -1.82707  -1.81181  -1.79370  -1.74655  -1.74348
 Alpha  occ. eigenvalues --   -1.70047  -1.64418  -1.60981  -1.59402  -1.56246
 Alpha  occ. eigenvalues --   -1.55830  -1.50813  -1.49789  -1.48866  -1.46417
 Alpha  occ. eigenvalues --   -1.43805  -1.42658  -1.41048  -1.38809  -1.37942
 Alpha  occ. eigenvalues --   -1.36559  -1.33287  -1.32428  -1.30678  -1.28526
 Alpha  occ. eigenvalues --   -1.26167  -1.24438  -1.23394  -1.21527  -1.17831
 Alpha  occ. eigenvalues --   -1.17806  -1.16876  -1.15640  -1.14992  -1.12531
 Alpha  occ. eigenvalues --   -1.12389  -1.11668  -1.10192  -1.05098  -1.04001
 Alpha  occ. eigenvalues --   -1.03085  -1.00704  -0.99312  -0.97810  -0.97032
 Alpha  occ. eigenvalues --   -0.95393  -0.94892  -0.94027  -0.92700  -0.91810
 Alpha  occ. eigenvalues --   -0.90448  -0.90401  -0.89110  -0.88031  -0.86385
 Alpha  occ. eigenvalues --   -0.84355  -0.84186  -0.83333  -0.82091  -0.80970
 Alpha  occ. eigenvalues --   -0.79555  -0.78748  -0.77557  -0.77050  -0.76711
 Alpha  occ. eigenvalues --   -0.75927  -0.75600  -0.74911  -0.74324  -0.73916
 Alpha  occ. eigenvalues --   -0.73000  -0.72751  -0.72300  -0.71666  -0.71436
 Alpha  occ. eigenvalues --   -0.70496  -0.69665  -0.69438  -0.68990  -0.67932
 Alpha  occ. eigenvalues --   -0.67671  -0.66937  -0.66698  -0.66458  -0.66442
 Alpha  occ. eigenvalues --   -0.65262  -0.64911  -0.63936  -0.63907  -0.63618
 Alpha  occ. eigenvalues --   -0.63312  -0.62986  -0.62666  -0.61447  -0.61345
 Alpha  occ. eigenvalues --   -0.61067  -0.60915  -0.60722  -0.60561  -0.60226
 Alpha  occ. eigenvalues --   -0.59392  -0.59195  -0.58806  -0.58524  -0.57754
 Alpha  occ. eigenvalues --   -0.57433  -0.57106  -0.56785  -0.56195  -0.55621
 Alpha  occ. eigenvalues --   -0.55524  -0.55070  -0.54938  -0.54655  -0.54582
 Alpha  occ. eigenvalues --   -0.54254  -0.53965  -0.53477  -0.52945  -0.52381
 Alpha  occ. eigenvalues --   -0.52324  -0.52270  -0.52112  -0.51737  -0.51322
 Alpha  occ. eigenvalues --   -0.51220  -0.50820  -0.50410  -0.50297  -0.50089
 Alpha  occ. eigenvalues --   -0.49980  -0.49591  -0.49458  -0.49264  -0.49101
 Alpha  occ. eigenvalues --   -0.48974  -0.48363  -0.48237  -0.47804  -0.47684
 Alpha  occ. eigenvalues --   -0.47288  -0.47234  -0.47029  -0.46705  -0.46488
 Alpha  occ. eigenvalues --   -0.46399  -0.46007  -0.45791  -0.45689  -0.45391
 Alpha  occ. eigenvalues --   -0.45045  -0.45036  -0.44616  -0.44327  -0.44065
 Alpha  occ. eigenvalues --   -0.43542  -0.42800  -0.42466  -0.42260  -0.42011
 Alpha  occ. eigenvalues --   -0.41339  -0.41243  -0.40680  -0.38769  -0.38662
 Alpha  occ. eigenvalues --   -0.37679  -0.37347  -0.36604  -0.35098  -0.34628
 Alpha  occ. eigenvalues --   -0.34547  -0.32107  -0.31956  -0.30844  -0.26660
 Alpha  occ. eigenvalues --   -0.21985
 Alpha virt. eigenvalues --   -0.08169  -0.02321  -0.01140   0.00773   0.02403
 Alpha virt. eigenvalues --    0.02530   0.02933   0.03463   0.04159   0.04662
 Alpha virt. eigenvalues --    0.05870   0.06207   0.07221   0.07357   0.07657

 Mulliken charges:
               1
     1  Mg   0.431267
     2  C   -0.022543
     3  C   -0.098535
     4  C   -0.090642
     5  C   -0.065921
     6  N   -0.256431
     7  C    0.082127
     8  C    0.005689
     9  C    0.001259
    10  C    0.184500
    11  C   -0.052542
    12  C   -0.028868
    13  C    0.002061
    14  C    0.476914
    15  O   -0.520844
    16  O   -0.266777
    17  N   -0.340245
    18  C    0.125545
    19  C    0.044433
    20  C   -0.031966
    21  C    0.176626
    22  C   -0.042208
    23  C    0.338529
    24  O   -0.512611
    25  C   -0.027230
    26  N   -0.268909
    27  C    0.171435
    28  C    0.014307
    29  C    0.006586
    30  C    0.078662
    31  C   -0.054231
    32  C   -0.032499
    33  C   -0.057122
    34  N   -0.321966
    35  C    0.080038
    36  C   -0.008380
    37  C   -0.077988
    38  C    0.081230
    39  C   -0.039754
    40  C    0.335369
    41  O   -0.532652
    42  C    0.053637
    43  C    0.501222
    44  O   -0.553380
    45  O   -0.252630
    46  C    0.074072
    47  C    0.108702
    48  C   -0.098757
    49  C    0.000500
    50  C   -0.039462
    51  C   -0.015575
    52  C   -0.019931
    53  C   -0.043229
    54  C   -0.024264
    55  C   -0.057407
    56  C   -0.032464
    57  C   -0.040377
    58  C   -0.034501
    59  C   -0.021311
    60  C   -0.055828
    61  C   -0.041305
    62  C   -0.040294
    63  C   -0.038448
    64  C   -0.016026
    65  C   -0.055020
    66  C   -0.072451
    67  H    0.026830
    68  H    0.034849
    69  H    0.034757
    70  H    0.050604
    71  H    0.041196
    72  H    0.032335
    73  H    0.021768
    74  H    0.016665
    75  H    0.020185
    76  H    0.024939
    77  H    0.052435
    78  H    0.042677
    79  H    0.031478
    80  H    0.025337
    81  H    0.030500
    82  H    0.029849
    83  H    0.037442
    84  H    0.041436
    85  H    0.039396
    86  H    0.031631
    87  H    0.032947
    88  H    0.017043
    89  H    0.019799
    90  H    0.021093
    91  H    0.016998
    92  H    0.019883
    93  H    0.022540
    94  H    0.014649
    95  H    0.032720
    96  H    0.032867
    97  H    0.019434
    98  H    0.057036
    99  H    0.040869
   100  H    0.031213
   101  H    0.044942
   102  H    0.048498
   103  H    0.036744
   104  H    0.030623
   105  H    0.030741
   106  H    0.020240
   107  H    0.022643
   108  H    0.015296
   109  H    0.018161
   110  H    0.025030
   111  H    0.026388
   112  H    0.026860
   113  H    0.020046
   114  H    0.004328
   115  H    0.028316
   116  H    0.017555
   117  H    0.018860
   118  H    0.011324
   119  H    0.025322
   120  H    0.015211
   121  H    0.015947
   122  H    0.015615
   123  H    0.020878
   124  H    0.022486
   125  H    0.013708
   126  H    0.010159
   127  H    0.026625
   128  H    0.018821
   129  H    0.025011
   130  H    0.019528
   131  H    0.018852
   132  H    0.026797
   133  H    0.023532
   134  H    0.021231
   135  H    0.016547
   136  H    0.018805
   137  H    0.015827
   138  H    0.019276
   139  H    0.017878
   140  H    0.028762
 Sum of Mulliken charges =  -0.00000

 Dipole moment (field-independent basis, Debye):
    X=             -4.3381    Y=              7.5557    Z=             -4.5063  Tot=              9.8089
 N-N= 4.197395479267D+03 E-N= 0.000000000000D+00  KE=-9.069183392832D+03
 Leave Link  601 at Fri Apr 29 07:31:37 2022, MaxMem=  6710886400 cpu:               2.1 elap:               0.1
 (Enter /sw/apps/gaussian-16.0/g16/l9999.exe)
 1\1\GINC-BP1-COMPUTE156\SP\RZINDO CIS\STO-3G\C55H74Mg1N4O6\OF15641\29-
 Apr-2022\0\\#p ZINDO=(nstates=5)\\step_1_chromophore_7 ZINDO\\0,1\Mg,0
 ,26.07,0.323,29.175\C,0,27.93,0.003,32.172\C,0,23.237,0.373,31.222\C,0
 ,24.2,0.735,26.508\C,0,28.899,-0.559,27.356\N,0,25.688,0.233,31.426\C,
 0,26.587,0.253,32.449\C,0,25.993,0.251,33.868\C,0,24.435,0.248,33.454\
 C,0,24.487,0.27,31.955\C,0,23.634,-1.023,33.943\C,0,26.399,1.509,34.70
 3\C,0,27.306,1.478,35.927\C,0,27.075,2.414,37.106\O,0,26.799,3.589,37.

 Normal termination of Gaussian 16 at Fri Apr 29 07:31:37 2022.
