 Gaussian 16, Revision A.03,
 Gaussian 16:  ES64L-G16RevA.03 25-Dec-2016

 ------------------------------
 #p blyp/Def2SVP td=(nstates=5)
 ------------------------------

 ---------------------------------------------------
 step_1201_chromophore_15 TDDFT with blyp functional
 ---------------------------------------------------
 Symbolic Z-matrix:
 Charge =  0 Multiplicity = 1

                         Standard orientation:
 ---------------------------------------------------------------------
 Center     Atomic      Atomic             Coordinates (Angstroms)
 Number     Number       Type             X           Y           Z
 ---------------------------------------------------------------------
      1         12           0       -4.564864    1.048272    0.317342
      2          6           0       -4.353478   -2.524789    0.515650
      3          6           0       -1.245684    1.199676   -0.059631
      4          6           0       -5.002950    4.283157   -0.097702
      5          6           0       -8.060638    0.616455    0.745670
      6          7           0       -2.956189   -0.562983    0.295596
      7          6           0       -3.096417   -1.909990    0.238975
      8          6           0       -1.752242   -2.531954   -0.123546
      9          6           0       -0.748714   -1.363640    0.212671
     10          6           0       -1.671030   -0.098455    0.171974
     11          6           0       -0.120630   -1.403209    1.647276
     12          6           0       -1.689175   -2.877897   -1.631569
     13          6           0       -0.665228   -3.896158   -2.147477
     14          6           0        0.545391   -4.269723   -1.352505
     15          8           0        0.479224   -4.787189   -0.230494
     16          8           0        1.643339   -3.612095   -1.898168
     17          7           0       -3.205341    2.609450    0.147888
     18          6           0       -1.891689    2.481343   -0.162744
     19          6           0       -1.369902    3.770059   -0.599340
     20          6           0       -2.482179    4.649765   -0.562541
     21          6           0       -3.648458    3.880243   -0.136094
     22          6           0        0.053197    3.884851   -1.163103
     23          6           0       -2.516517    6.163052   -0.895668
     24          8           0       -3.508386    6.925782   -0.887964
     25          6           0       -1.160225    6.806375   -1.309078
     26          7           0       -6.282108    2.248816    0.513020
     27          6           0       -6.137340    3.608905    0.228439
     28          6           0       -7.582563    4.294694    0.152029
     29          6           0       -8.487381    3.150565    0.778779
     30          6           0       -7.597864    1.928495    0.612282
     31          6           0       -7.694212    5.669011    0.944127
     32          6           0       -9.864361    3.009231    0.126972
     33          6           0      -11.028515    2.799111    1.086398
     34          7           0       -5.911907   -0.605249    0.537818
     35          6           0       -7.291469   -0.565818    0.669625
     36          6           0       -7.771162   -1.957477    0.799934
     37          6           0       -6.572070   -2.706395    0.895327
     38          6           0       -5.560612   -1.834526    0.685066
     39          6           0       -9.113976   -2.420320    0.874914
     40          6           0       -6.080532   -4.025291    1.192552
     41          8           0       -6.707812   -4.973814    1.541005
     42          6           0       -4.519832   -4.018301    1.009548
     43          6           0       -4.065371   -5.087766    0.129705
     44          8           0       -4.595622   -5.358521   -0.923943
     45          8           0       -2.893119   -5.662756    0.610065
     46          6           0       -2.443950   -6.825621   -0.072897
     47          6           0        2.856295   -3.646239   -1.075313
     48          6           0        3.854640   -2.923345   -1.891038
     49          6           0        5.163995   -3.221459   -1.882475
     50          6           0        5.795076   -4.112930   -0.783638
     51          6           0        6.113655   -2.308224   -2.732066
     52          6           0        6.407777   -0.864962   -2.385831
     53          6           0        7.662739   -0.294141   -3.119561
     54          6           0        7.542661    1.278345   -3.385686
     55          6           0        7.561527    1.551770   -4.918086
     56          6           0        8.785963    2.011903   -2.802745
     57          6           0        8.866271    2.292973   -1.270868
     58          6           0        9.752258    1.304142   -0.407811
     59          6           0       11.032877    2.177912    0.155329
     60          6           0       11.972618    2.598361   -0.942351
     61          6           0       11.935811    1.376077    1.201173
     62          6           0       11.645850    1.639908    2.725255
     63          6           0       11.001117    0.426106    3.448184
     64          6           0       11.349636    0.568447    4.983255
     65          6           0       12.465026   -0.314424    5.467326
     66          6           0       10.096256    0.451861    5.908081
     67          1           0       -0.153847    1.227450   -0.089426
     68          1           0       -5.149358    5.288699   -0.496889
     69          1           0       -9.109238    0.393731    0.952278
     70          1           0       -1.387295   -3.339497    0.510206
     71          1           0       -0.006669   -1.437048   -0.582105
     72          1           0        0.930627   -1.691124    1.626479
     73          1           0       -0.645829   -2.089381    2.311745
     74          1           0       -0.193629   -0.424727    2.122108
     75          1           0       -1.596863   -1.919515   -2.143475
     76          1           0       -2.666275   -3.278981   -1.899157
     77          1           0       -0.488254   -3.424351   -3.114304
     78          1           0       -1.199127   -4.842485   -2.229973
     79          1           0        0.730375    3.031630   -1.202980
     80          1           0        0.436438    4.574340   -0.410356
     81          1           0        0.020286    4.384346   -2.131747
     82          1           0       -0.387037    6.524841   -0.594587
     83          1           0       -1.280628    7.889185   -1.308387
     84          1           0       -0.934225    6.408845   -2.298717
     85          1           0       -7.863466    4.439516   -0.891132
     86          1           0       -8.587707    3.362140    1.843289
     87          1           0       -8.256847    5.586901    1.875020
     88          1           0       -8.269149    6.327916    0.292251
     89          1           0       -6.768779    6.106169    1.318572
     90          1           0       -9.854425    2.317501   -0.714659
     91          1           0      -10.207236    3.967477   -0.264576
     92          1           0      -11.378082    3.768828    1.440055
     93          1           0      -10.632383    2.401647    2.021005
     94          1           0      -11.784376    2.180944    0.600861
     95          1           0       -8.990979   -3.385926    0.384480
     96          1           0       -9.651771   -1.716223    0.241042
     97          1           0       -9.450158   -2.527949    1.906024
     98          1           0       -4.046294   -4.151840    1.981734
     99          1           0       -3.061708   -7.170180   -0.902504
    100          1           0       -2.324336   -7.685962    0.584699
    101          1           0       -1.414112   -6.641488   -0.379549
    102          1           0        3.168731   -4.690215   -1.087974
    103          1           0        2.797530   -3.239336   -0.065736
    104          1           0        3.560240   -2.214667   -2.665453
    105          1           0        6.820265   -3.760054   -0.666882
    106          1           0        5.904816   -5.158599   -1.069468
    107          1           0        5.291640   -4.007744    0.177464
    108          1           0        5.542363   -2.325197   -3.660887
    109          1           0        6.989730   -2.920330   -2.948522
    110          1           0        6.712315   -0.898908   -1.339643
    111          1           0        5.494875   -0.292287   -2.550594
    112          1           0        7.644070   -0.838000   -4.064016
    113          1           0        8.434217   -0.597364   -2.411976
    114          1           0        6.700618    1.708059   -2.843372
    115          1           0        7.093699    2.472305   -5.267845
    116          1           0        7.285015    0.712391   -5.556983
    117          1           0        8.636215    1.632340   -5.083798
    118          1           0        8.864607    2.997432   -3.262726
    119          1           0        9.729273    1.543394   -3.083392
    120          1           0        7.824890    2.341829   -0.952248
    121          1           0        9.246677    3.310965   -1.186740
    122          1           0        9.930329    0.394806   -0.983037
    123          1           0        9.070327    0.923628    0.351916
    124          1           0       10.728377    3.078798    0.689214
    125          1           0       12.896031    2.023810   -1.010026
    126          1           0       12.075905    3.665493   -0.744245
    127          1           0       11.543668    2.456764   -1.934096
    128          1           0       13.009074    1.557528    1.141381
    129          1           0       11.834313    0.305844    1.024378
    130          1           0       10.801736    2.328118    2.773718
    131          1           0       12.446558    2.176425    3.232968
    132          1           0       11.324140   -0.532461    3.041038
    133          1           0        9.943097    0.521985    3.205963
    134          1           0       11.755634    1.555953    5.203257
    135          1           0       12.690463   -0.976973    4.631419
    136          1           0       12.156744   -1.136949    6.112426
    137          1           0       13.299675    0.213285    5.929570
    138          1           0       10.125671   -0.376987    6.614946
    139          1           0        9.160601    0.332178    5.362352
    140          1           0        9.968787    1.378100    6.467067
 ---------------------------------------------------------------------

 SCF Done:  E(RB-LYP) =  -3007.33698426     A.U. after   20 cycles

 Excitation energies and oscillator strengths:

 Excited State   1:      Singlet-A      1.8562 eV  667.96 nm  f=0.3046  <S**2>=0.000
     245 -> 248        0.19301
     246 -> 247        0.68605
     246 <- 247       -0.14395
 This state for optimization and/or second-order correction.
 Total Energy, E(TD-HF/TD-DFT) =  -3007.26877113
 Copying the excited state density for this state as the 1-particle RhoCI density.

 Excited State   2:      Singlet-A      1.9301 eV  642.36 nm  f=0.0179  <S**2>=0.000
     243 -> 247       -0.32126
     244 -> 247        0.51342
     245 -> 247        0.35027

 Excited State   3:      Singlet-A      1.9712 eV  628.98 nm  f=0.0086  <S**2>=0.000
     243 -> 247        0.49333
     244 -> 247        0.45882
     245 -> 247       -0.19934

 Excited State   4:      Singlet-A      2.0758 eV  597.28 nm  f=0.0665  <S**2>=0.000
     243 -> 247        0.38630
     244 -> 247       -0.15641
     245 -> 247        0.51656
     246 -> 248       -0.20883

 Excited State   5:      Singlet-A      2.5361 eV  488.88 nm  f=0.0000  <S**2>=0.000
     240 -> 247        0.56569
     241 -> 247        0.42276

 The electronic state is 1-A.
 Alpha  occ. eigenvalues --  -46.27498 -18.83362 -18.81945 -18.78545 -18.76671
 Alpha  occ. eigenvalues --  -18.75938 -18.75587 -14.03177 -14.02944 -14.01130
 Alpha  occ. eigenvalues --  -14.00405 -10.05220 -10.03635 -10.00352  -9.99138
 Alpha  occ. eigenvalues --   -9.98603  -9.96662  -9.96557  -9.96374  -9.96372
 Alpha  occ. eigenvalues --   -9.96192  -9.95696  -9.95646  -9.95455  -9.94371
 Alpha  occ. eigenvalues --   -9.94194  -9.94010  -9.93702  -9.93659  -9.93657
 Alpha  occ. eigenvalues --   -9.93648  -9.93627  -9.93586  -9.93502  -9.93268
 Alpha  occ. eigenvalues --   -9.93209  -9.93191  -9.93173  -9.93145  -9.93121
 Alpha  occ. eigenvalues --   -9.93095  -9.92944  -9.92711  -9.92440  -9.92219
 Alpha  occ. eigenvalues --   -9.92201  -9.92192  -9.92113  -9.92037  -9.91998
 Alpha  occ. eigenvalues --   -9.91866  -9.91853  -9.91845  -9.91801  -9.91798
 Alpha  occ. eigenvalues --   -9.91786  -9.91521  -9.91453  -9.91375  -9.91176
 Alpha  occ. eigenvalues --   -9.91051  -9.90921  -9.90772  -9.90427  -9.90393
 Alpha  occ. eigenvalues --   -9.89993  -2.91989  -1.72440  -1.71850  -1.71709
 Alpha  occ. eigenvalues --   -0.98222  -0.97810  -0.93021  -0.91001  -0.90431
 Alpha  occ. eigenvalues --   -0.90068  -0.87514  -0.85782  -0.85315  -0.84759
 Alpha  occ. eigenvalues --   -0.75248  -0.73990  -0.72915  -0.72471  -0.72429
 Alpha  occ. eigenvalues --   -0.71936  -0.71677  -0.71153  -0.70709  -0.70324
 Alpha  occ. eigenvalues --   -0.70145  -0.69361  -0.68421  -0.67590  -0.67039
 Alpha  occ. eigenvalues --   -0.66565  -0.66092  -0.65420  -0.64972  -0.64640
 Alpha  occ. eigenvalues --   -0.64031  -0.62849  -0.62409  -0.61795  -0.61134
 Alpha  occ. eigenvalues --   -0.60812  -0.59994  -0.59925  -0.59480  -0.58718
 Alpha  occ. eigenvalues --   -0.58287  -0.57487  -0.56476  -0.55699  -0.54130
 Alpha  occ. eigenvalues --   -0.53743  -0.53393  -0.52372  -0.52038  -0.51352
 Alpha  occ. eigenvalues --   -0.51096  -0.50937  -0.50800  -0.50570  -0.50340
 Alpha  occ. eigenvalues --   -0.50125  -0.49807  -0.49570  -0.48886  -0.46553
 Alpha  occ. eigenvalues --   -0.46244  -0.46079  -0.45530  -0.45217  -0.44856
 Alpha  occ. eigenvalues --   -0.44195  -0.43927  -0.43591  -0.43098  -0.42791
 Alpha  occ. eigenvalues --   -0.42337  -0.41759  -0.41541  -0.41364  -0.41039
 Alpha  occ. eigenvalues --   -0.40906  -0.40607  -0.40295  -0.40246  -0.39975
 Alpha  occ. eigenvalues --   -0.39774  -0.39680  -0.39568  -0.39318  -0.39173
 Alpha  occ. eigenvalues --   -0.39005  -0.38966  -0.38553  -0.38504  -0.38253
 Alpha  occ. eigenvalues --   -0.37977  -0.37898  -0.37759  -0.37592  -0.37345
 Alpha  occ. eigenvalues --   -0.37205  -0.37118  -0.36759  -0.36641  -0.36371
 Alpha  occ. eigenvalues --   -0.36096  -0.36002  -0.35881  -0.35743  -0.35596
 Alpha  occ. eigenvalues --   -0.35474  -0.35377  -0.35258  -0.35139  -0.35019
 Alpha  occ. eigenvalues --   -0.34863  -0.34665  -0.34320  -0.34254  -0.34073
 Alpha  occ. eigenvalues --   -0.34011  -0.33786  -0.33599  -0.33548  -0.33427
 Alpha  occ. eigenvalues --   -0.33306  -0.32699  -0.32653  -0.32439  -0.32161
 Alpha  occ. eigenvalues --   -0.32010  -0.31886  -0.31723  -0.31553  -0.31424
 Alpha  occ. eigenvalues --   -0.31141  -0.31082  -0.31030  -0.30639  -0.30541
 Alpha  occ. eigenvalues --   -0.30482  -0.30220  -0.29998  -0.29857  -0.29831
 Alpha  occ. eigenvalues --   -0.29730  -0.29654  -0.29320  -0.29149  -0.28952
 Alpha  occ. eigenvalues --   -0.28800  -0.28414  -0.28285  -0.27955  -0.27172
 Alpha  occ. eigenvalues --   -0.27106  -0.27071  -0.27014  -0.26876  -0.26734
 Alpha  occ. eigenvalues --   -0.26586  -0.26477  -0.26469  -0.25999  -0.25233
 Alpha  occ. eigenvalues --   -0.25065  -0.24832  -0.24309  -0.23845  -0.23330
 Alpha  occ. eigenvalues --   -0.23201  -0.22870  -0.22512  -0.21786  -0.20854
 Alpha  occ. eigenvalues --   -0.20826  -0.20418  -0.18731  -0.18632  -0.17146
 Alpha  occ. eigenvalues --   -0.15980
 Alpha virt. eigenvalues --   -0.11524  -0.06812  -0.05782  -0.05226  -0.04663
 Alpha virt. eigenvalues --   -0.03076  -0.02570  -0.01565  -0.01116   0.00235
 Alpha virt. eigenvalues --    0.00690   0.01363   0.01774   0.02615   0.02876

 Mulliken charges:
               1
     1  Mg   0.665159
     2  C   -0.075644
     3  C   -0.017332
     4  C   -0.027466
     5  C   -0.086973
     6  N   -0.196968
     7  C   -0.062741
     8  C    0.012326
     9  C   -0.038211
    10  C   -0.010216
    11  C    0.141392
    12  C    0.078883
    13  C    0.190935
    14  C    0.101823
    15  O   -0.205808
    16  O   -0.283571
    17  N   -0.295207
    18  C    0.108449
    19  C   -0.130752
    20  C    0.014575
    21  C    0.078672
    22  C    0.170938
    23  C   -0.058330
    24  O   -0.181017
    25  C    0.116757
    26  N   -0.242118
    27  C    0.057137
    28  C   -0.013382
    29  C    0.053947
    30  C    0.037781
    31  C    0.116479
    32  C    0.091971
    33  C    0.061191
    34  N   -0.181647
    35  C    0.094504
    36  C   -0.207859
    37  C    0.071880
    38  C    0.108464
    39  C    0.184697
    40  C   -0.087947
    41  O   -0.089379
    42  C    0.118178
    43  C    0.090973
    44  O   -0.163403
    45  O   -0.261377
    46  C    0.201799
    47  C    0.344588
    48  C   -0.121261
    49  C   -0.172503
    50  C    0.129715
    51  C    0.083440
    52  C    0.094292
    53  C    0.103390
    54  C   -0.025665
    55  C    0.110582
    56  C    0.021577
    57  C    0.071738
    58  C    0.102259
    59  C   -0.068980
    60  C    0.120809
    61  C    0.104523
    62  C    0.015698
    63  C    0.107189
    64  C   -0.089213
    65  C    0.122547
    66  C    0.095128
    67  H   -0.065159
    68  H   -0.038550
    69  H   -0.064064
    70  H   -0.011034
    71  H   -0.034590
    72  H   -0.008169
    73  H   -0.005331
    74  H   -0.010416
    75  H   -0.017439
    76  H   -0.001176
    77  H   -0.008833
    78  H   -0.000404
    79  H   -0.001661
    80  H    0.002897
    81  H    0.008367
    82  H   -0.003256
    83  H   -0.003320
    84  H    0.013637
    85  H   -0.012005
    86  H   -0.016210
    87  H   -0.026084
    88  H   -0.004722
    89  H    0.010147
    90  H   -0.020057
    91  H   -0.028086
    92  H   -0.011752
    93  H   -0.016081
    94  H    0.003682
    95  H    0.016275
    96  H   -0.004648
    97  H    0.021087
    98  H   -0.005877
    99  H    0.018007
   100  H   -0.002986
   101  H    0.010133
   102  H    0.002561
   103  H    0.026901
   104  H   -0.034813
   105  H   -0.017425
   106  H    0.006655
   107  H    0.002361
   108  H   -0.028851
   109  H   -0.039357
   110  H   -0.035277
   111  H   -0.024543
   112  H   -0.022651
   113  H   -0.018698
   114  H   -0.032989
   115  H   -0.006161
   116  H   -0.020600
   117  H   -0.023058
   118  H   -0.042129
   119  H   -0.022344
   120  H   -0.041188
   121  H   -0.029330
   122  H   -0.023243
   123  H   -0.035989
   124  H   -0.024500
   125  H   -0.008325
   126  H   -0.012177
   127  H   -0.029714
   128  H   -0.031806
   129  H   -0.038967
   130  H   -0.035717
   131  H   -0.019375
   132  H   -0.024786
   133  H   -0.028559
   134  H   -0.028929
   135  H   -0.038213
   136  H   -0.034767
   137  H    0.000694
   138  H   -0.019596
   139  H   -0.029239
   140  H   -0.019590
 Sum of Mulliken charges =  -0.00000

 Dipole moment (field-independent basis, Debye):
    X=              4.5343    Y=              1.7940    Z=             -1.1185  Tot=              5.0029
 Quadrupole moment (field-independent basis, Debye-Ang):
   XX=           -386.5536   YY=           -440.7170   ZZ=           -406.3918
   XY=            -26.5309   XZ=             -3.8246   YZ=              8.4072

 Normal termination of Gaussian 16 at Wed May  4 01:39:31 2022.
