 Gaussian 16, Revision A.03,
 Gaussian 16:  ES64L-G16RevA.03 25-Dec-2016

 -----------------------------------
 #p cam-b3lyp/Def2SVP td=(nstates=5)
 -----------------------------------

 --------------------------------------------------------
 step_1201_chromophore_15 TDDFT with cam-b3lyp functional
 --------------------------------------------------------
 Symbolic Z-matrix:
 Charge =  0 Multiplicity = 1

                         Standard orientation:
 ---------------------------------------------------------------------
 Center     Atomic      Atomic             Coordinates (Angstroms)
 Number     Number       Type             X           Y           Z
 ---------------------------------------------------------------------
      1         12           0       -4.564864    1.048272    0.317342
      2          6           0       -4.353478   -2.524789    0.515650
      3          6           0       -1.245684    1.199676   -0.059631
      4          6           0       -5.002950    4.283157   -0.097702
      5          6           0       -8.060638    0.616455    0.745670
      6          7           0       -2.956189   -0.562983    0.295596
      7          6           0       -3.096417   -1.909990    0.238975
      8          6           0       -1.752242   -2.531954   -0.123546
      9          6           0       -0.748714   -1.363640    0.212671
     10          6           0       -1.671030   -0.098455    0.171974
     11          6           0       -0.120630   -1.403209    1.647276
     12          6           0       -1.689175   -2.877897   -1.631569
     13          6           0       -0.665228   -3.896158   -2.147477
     14          6           0        0.545391   -4.269723   -1.352505
     15          8           0        0.479224   -4.787189   -0.230494
     16          8           0        1.643339   -3.612095   -1.898168
     17          7           0       -3.205341    2.609450    0.147888
     18          6           0       -1.891689    2.481343   -0.162744
     19          6           0       -1.369902    3.770059   -0.599340
     20          6           0       -2.482179    4.649765   -0.562541
     21          6           0       -3.648458    3.880243   -0.136094
     22          6           0        0.053197    3.884851   -1.163103
     23          6           0       -2.516517    6.163052   -0.895668
     24          8           0       -3.508386    6.925782   -0.887964
     25          6           0       -1.160225    6.806375   -1.309078
     26          7           0       -6.282108    2.248816    0.513020
     27          6           0       -6.137340    3.608905    0.228439
     28          6           0       -7.582563    4.294694    0.152029
     29          6           0       -8.487381    3.150565    0.778779
     30          6           0       -7.597864    1.928495    0.612282
     31          6           0       -7.694212    5.669011    0.944127
     32          6           0       -9.864361    3.009231    0.126972
     33          6           0      -11.028515    2.799111    1.086398
     34          7           0       -5.911907   -0.605249    0.537818
     35          6           0       -7.291469   -0.565818    0.669625
     36          6           0       -7.771162   -1.957477    0.799934
     37          6           0       -6.572070   -2.706395    0.895327
     38          6           0       -5.560612   -1.834526    0.685066
     39          6           0       -9.113976   -2.420320    0.874914
     40          6           0       -6.080532   -4.025291    1.192552
     41          8           0       -6.707812   -4.973814    1.541005
     42          6           0       -4.519832   -4.018301    1.009548
     43          6           0       -4.065371   -5.087766    0.129705
     44          8           0       -4.595622   -5.358521   -0.923943
     45          8           0       -2.893119   -5.662756    0.610065
     46          6           0       -2.443950   -6.825621   -0.072897
     47          6           0        2.856295   -3.646239   -1.075313
     48          6           0        3.854640   -2.923345   -1.891038
     49          6           0        5.163995   -3.221459   -1.882475
     50          6           0        5.795076   -4.112930   -0.783638
     51          6           0        6.113655   -2.308224   -2.732066
     52          6           0        6.407777   -0.864962   -2.385831
     53          6           0        7.662739   -0.294141   -3.119561
     54          6           0        7.542661    1.278345   -3.385686
     55          6           0        7.561527    1.551770   -4.918086
     56          6           0        8.785963    2.011903   -2.802745
     57          6           0        8.866271    2.292973   -1.270868
     58          6           0        9.752258    1.304142   -0.407811
     59          6           0       11.032877    2.177912    0.155329
     60          6           0       11.972618    2.598361   -0.942351
     61          6           0       11.935811    1.376077    1.201173
     62          6           0       11.645850    1.639908    2.725255
     63          6           0       11.001117    0.426106    3.448184
     64          6           0       11.349636    0.568447    4.983255
     65          6           0       12.465026   -0.314424    5.467326
     66          6           0       10.096256    0.451861    5.908081
     67          1           0       -0.153847    1.227450   -0.089426
     68          1           0       -5.149358    5.288699   -0.496889
     69          1           0       -9.109238    0.393731    0.952278
     70          1           0       -1.387295   -3.339497    0.510206
     71          1           0       -0.006669   -1.437048   -0.582105
     72          1           0        0.930627   -1.691124    1.626479
     73          1           0       -0.645829   -2.089381    2.311745
     74          1           0       -0.193629   -0.424727    2.122108
     75          1           0       -1.596863   -1.919515   -2.143475
     76          1           0       -2.666275   -3.278981   -1.899157
     77          1           0       -0.488254   -3.424351   -3.114304
     78          1           0       -1.199127   -4.842485   -2.229973
     79          1           0        0.730375    3.031630   -1.202980
     80          1           0        0.436438    4.574340   -0.410356
     81          1           0        0.020286    4.384346   -2.131747
     82          1           0       -0.387037    6.524841   -0.594587
     83          1           0       -1.280628    7.889185   -1.308387
     84          1           0       -0.934225    6.408845   -2.298717
     85          1           0       -7.863466    4.439516   -0.891132
     86          1           0       -8.587707    3.362140    1.843289
     87          1           0       -8.256847    5.586901    1.875020
     88          1           0       -8.269149    6.327916    0.292251
     89          1           0       -6.768779    6.106169    1.318572
     90          1           0       -9.854425    2.317501   -0.714659
     91          1           0      -10.207236    3.967477   -0.264576
     92          1           0      -11.378082    3.768828    1.440055
     93          1           0      -10.632383    2.401647    2.021005
     94          1           0      -11.784376    2.180944    0.600861
     95          1           0       -8.990979   -3.385926    0.384480
     96          1           0       -9.651771   -1.716223    0.241042
     97          1           0       -9.450158   -2.527949    1.906024
     98          1           0       -4.046294   -4.151840    1.981734
     99          1           0       -3.061708   -7.170180   -0.902504
    100          1           0       -2.324336   -7.685962    0.584699
    101          1           0       -1.414112   -6.641488   -0.379549
    102          1           0        3.168731   -4.690215   -1.087974
    103          1           0        2.797530   -3.239336   -0.065736
    104          1           0        3.560240   -2.214667   -2.665453
    105          1           0        6.820265   -3.760054   -0.666882
    106          1           0        5.904816   -5.158599   -1.069468
    107          1           0        5.291640   -4.007744    0.177464
    108          1           0        5.542363   -2.325197   -3.660887
    109          1           0        6.989730   -2.920330   -2.948522
    110          1           0        6.712315   -0.898908   -1.339643
    111          1           0        5.494875   -0.292287   -2.550594
    112          1           0        7.644070   -0.838000   -4.064016
    113          1           0        8.434217   -0.597364   -2.411976
    114          1           0        6.700618    1.708059   -2.843372
    115          1           0        7.093699    2.472305   -5.267845
    116          1           0        7.285015    0.712391   -5.556983
    117          1           0        8.636215    1.632340   -5.083798
    118          1           0        8.864607    2.997432   -3.262726
    119          1           0        9.729273    1.543394   -3.083392
    120          1           0        7.824890    2.341829   -0.952248
    121          1           0        9.246677    3.310965   -1.186740
    122          1           0        9.930329    0.394806   -0.983037
    123          1           0        9.070327    0.923628    0.351916
    124          1           0       10.728377    3.078798    0.689214
    125          1           0       12.896031    2.023810   -1.010026
    126          1           0       12.075905    3.665493   -0.744245
    127          1           0       11.543668    2.456764   -1.934096
    128          1           0       13.009074    1.557528    1.141381
    129          1           0       11.834313    0.305844    1.024378
    130          1           0       10.801736    2.328118    2.773718
    131          1           0       12.446558    2.176425    3.232968
    132          1           0       11.324140   -0.532461    3.041038
    133          1           0        9.943097    0.521985    3.205963
    134          1           0       11.755634    1.555953    5.203257
    135          1           0       12.690463   -0.976973    4.631419
    136          1           0       12.156744   -1.136949    6.112426
    137          1           0       13.299675    0.213285    5.929570
    138          1           0       10.125671   -0.376987    6.614946
    139          1           0        9.160601    0.332178    5.362352
    140          1           0        9.968787    1.378100    6.467067
 ---------------------------------------------------------------------

 SCF Done:  E(RCAM-B3LYP) =  -3007.12873424     A.U. after   19 cycles

 Excitation energies and oscillator strengths:

 Excited State   1:      Singlet-A      1.7571 eV  705.60 nm  f=0.3778  <S**2>=0.000
     245 -> 248        0.18016
     246 -> 247        0.68531
     245 <- 248        0.10604
 This state for optimization and/or second-order correction.
 Total Energy, E(TD-HF/TD-DFT) =  -3007.06416032
 Copying the excited state density for this state as the 1-particle RhoCI density.

 Excited State   2:      Singlet-A      2.2285 eV  556.35 nm  f=0.1409  <S**2>=0.000
     245 -> 247        0.64757
     246 -> 248       -0.27464

 Excited State   3:      Singlet-A      3.3843 eV  366.35 nm  f=0.0017  <S**2>=0.000
     240 -> 247        0.10412
     243 -> 247       -0.46528
     244 -> 247        0.49767

 Excited State   4:      Singlet-A      3.5264 eV  351.59 nm  f=0.0162  <S**2>=0.000
     239 -> 247        0.21810
     239 -> 249       -0.10562
     240 -> 247        0.53881
     240 -> 249       -0.22150
     240 -> 250        0.17012
     243 -> 247        0.16244

 Excited State   5:      Singlet-A      3.5940 eV  344.97 nm  f=0.2728  <S**2>=0.000
     243 -> 247        0.32722
     244 -> 247        0.33704
     245 -> 247        0.17408
     246 -> 248        0.48122

 The electronic state is 1-A.
 Alpha  occ. eigenvalues --  -46.89074 -19.26270 -19.25028 -19.21579 -19.20030
 Alpha  occ. eigenvalues --  -19.19105 -19.18876 -14.42026 -14.41836 -14.39435
 Alpha  occ. eigenvalues --  -14.38954 -10.40648 -10.39315 -10.35426 -10.34640
 Alpha  occ. eigenvalues --  -10.32650 -10.31447 -10.31278 -10.30562 -10.30412
 Alpha  occ. eigenvalues --  -10.30392 -10.30235 -10.29694 -10.29457 -10.28516
 Alpha  occ. eigenvalues --  -10.28454 -10.28230 -10.28218 -10.28161 -10.28094
 Alpha  occ. eigenvalues --  -10.27661 -10.27614 -10.27575 -10.27427 -10.27420
 Alpha  occ. eigenvalues --  -10.27231 -10.27231 -10.27155 -10.27141 -10.26966
 Alpha  occ. eigenvalues --  -10.26906 -10.26898 -10.26634 -10.26212 -10.25971
 Alpha  occ. eigenvalues --  -10.25951 -10.25945 -10.25796 -10.25773 -10.25768
 Alpha  occ. eigenvalues --  -10.25747 -10.25639 -10.25638 -10.25633 -10.25540
 Alpha  occ. eigenvalues --  -10.25498 -10.25224 -10.25067 -10.25054 -10.24866
 Alpha  occ. eigenvalues --  -10.24751 -10.24584 -10.24438 -10.24319 -10.23978
 Alpha  occ. eigenvalues --  -10.23971  -3.17465  -1.92395  -1.91900  -1.91774
 Alpha  occ. eigenvalues --   -1.16669  -1.16557  -1.11808  -1.08893  -1.08611
 Alpha  occ. eigenvalues --   -1.08150  -1.05531  -1.03280  -1.02937  -1.02192
 Alpha  occ. eigenvalues --   -0.92593  -0.90864  -0.89683  -0.89223  -0.89196
 Alpha  occ. eigenvalues --   -0.88614  -0.88510  -0.87767  -0.87244  -0.86817
 Alpha  occ. eigenvalues --   -0.86533  -0.85682  -0.84720  -0.83872  -0.83155
 Alpha  occ. eigenvalues --   -0.82633  -0.82158  -0.81251  -0.80869  -0.80451
 Alpha  occ. eigenvalues --   -0.79913  -0.78614  -0.77953  -0.77303  -0.76543
 Alpha  occ. eigenvalues --   -0.76315  -0.75341  -0.75163  -0.74736  -0.73931
 Alpha  occ. eigenvalues --   -0.73305  -0.72525  -0.71310  -0.70484  -0.68809
 Alpha  occ. eigenvalues --   -0.68450  -0.67897  -0.66711  -0.66363  -0.65521
 Alpha  occ. eigenvalues --   -0.65265  -0.64983  -0.64868  -0.64483  -0.64299
 Alpha  occ. eigenvalues --   -0.64142  -0.63797  -0.63523  -0.62791  -0.60338
 Alpha  occ. eigenvalues --   -0.59714  -0.59594  -0.59005  -0.58634  -0.58543
 Alpha  occ. eigenvalues --   -0.57644  -0.57348  -0.56715  -0.56177  -0.55920
 Alpha  occ. eigenvalues --   -0.55790  -0.54791  -0.54759  -0.54527  -0.54204
 Alpha  occ. eigenvalues --   -0.53488  -0.53385  -0.53220  -0.52950  -0.52793
 Alpha  occ. eigenvalues --   -0.52453  -0.52263  -0.52061  -0.51953  -0.51715
 Alpha  occ. eigenvalues --   -0.51596  -0.51384  -0.51138  -0.50940  -0.50779
 Alpha  occ. eigenvalues --   -0.50461  -0.50364  -0.50271  -0.50081  -0.49704
 Alpha  occ. eigenvalues --   -0.49361  -0.49166  -0.49068  -0.48847  -0.48753
 Alpha  occ. eigenvalues --   -0.48687  -0.48157  -0.48083  -0.48024  -0.47868
 Alpha  occ. eigenvalues --   -0.47661  -0.47526  -0.47161  -0.47088  -0.46922
 Alpha  occ. eigenvalues --   -0.46860  -0.46415  -0.46338  -0.46038  -0.45992
 Alpha  occ. eigenvalues --   -0.45778  -0.45667  -0.45419  -0.45362  -0.45106
 Alpha  occ. eigenvalues --   -0.45001  -0.44841  -0.44526  -0.44116  -0.43912
 Alpha  occ. eigenvalues --   -0.43737  -0.43572  -0.43183  -0.42944  -0.42845
 Alpha  occ. eigenvalues --   -0.42668  -0.42450  -0.42388  -0.42262  -0.42067
 Alpha  occ. eigenvalues --   -0.41727  -0.41689  -0.41453  -0.41314  -0.41173
 Alpha  occ. eigenvalues --   -0.41088  -0.40765  -0.40375  -0.40297  -0.40103
 Alpha  occ. eigenvalues --   -0.39938  -0.39395  -0.39131  -0.38829  -0.38245
 Alpha  occ. eigenvalues --   -0.38122  -0.37971  -0.37908  -0.37800  -0.37705
 Alpha  occ. eigenvalues --   -0.37529  -0.37288  -0.37214  -0.37156  -0.35915
 Alpha  occ. eigenvalues --   -0.35741  -0.35671  -0.35536  -0.35132  -0.34805
 Alpha  occ. eigenvalues --   -0.33812  -0.33661  -0.33053  -0.31541  -0.30872
 Alpha  occ. eigenvalues --   -0.30540  -0.30458  -0.30091  -0.29854  -0.23883
 Alpha  occ. eigenvalues --   -0.21369
 Alpha virt. eigenvalues --   -0.08665  -0.01517   0.00796   0.02300   0.02567
 Alpha virt. eigenvalues --    0.03554   0.04443   0.04954   0.05223   0.06664
 Alpha virt. eigenvalues --    0.07772   0.07820   0.08360   0.09010   0.09265

 Mulliken charges:
               1
     1  Mg   0.799171
     2  C   -0.090062
     3  C   -0.027111
     4  C   -0.048734
     5  C   -0.099249
     6  N   -0.264219
     7  C   -0.017793
     8  C   -0.047703
     9  C   -0.080231
    10  C   -0.004459
    11  C    0.085895
    12  C    0.030957
    13  C    0.123584
    14  C    0.177521
    15  O   -0.246012
    16  O   -0.347491
    17  N   -0.380337
    18  C    0.112166
    19  C   -0.136507
    20  C   -0.058029
    21  C    0.100914
    22  C    0.112501
    23  C    0.022808
    24  O   -0.224866
    25  C    0.039304
    26  N   -0.318716
    27  C    0.073233
    28  C   -0.063390
    29  C   -0.004124
    30  C    0.068823
    31  C    0.059158
    32  C    0.027838
    33  C    0.001810
    34  N   -0.274585
    35  C    0.104322
    36  C   -0.193874
    37  C   -0.008018
    38  C    0.143456
    39  C    0.123867
    40  C    0.016406
    41  O   -0.126214
    42  C    0.033302
    43  C    0.182372
    44  O   -0.199665
    45  O   -0.324503
    46  C    0.162193
    47  C    0.306678
    48  C   -0.135003
    49  C   -0.187957
    50  C    0.062554
    51  C    0.022831
    52  C    0.045434
    53  C    0.051965
    54  C   -0.081598
    55  C    0.049490
    56  C   -0.029093
    57  C    0.018353
    58  C    0.052955
    59  C   -0.123791
    60  C    0.060598
    61  C    0.051096
    62  C   -0.037256
    63  C    0.058906
    64  C   -0.153569
    65  C    0.060889
    66  C    0.038500
    67  H   -0.032126
    68  H    0.001860
    69  H   -0.027574
    70  H    0.027118
    71  H   -0.001226
    72  H    0.014109
    73  H    0.018232
    74  H    0.016313
    75  H    0.013051
    76  H    0.029183
    77  H    0.027178
    78  H    0.027603
    79  H    0.025810
    80  H    0.025740
    81  H    0.031417
    82  H    0.022705
    83  H    0.030324
    84  H    0.038504
    85  H    0.021353
    86  H    0.018984
    87  H   -0.002055
    88  H    0.018813
    89  H    0.036113
    90  H    0.010918
    91  H    0.002920
    92  H    0.012410
    93  H    0.005723
    94  H    0.028085
    95  H    0.044327
    96  H    0.020352
    97  H    0.050001
    98  H    0.039828
    99  H    0.044873
   100  H    0.020497
   101  H    0.030344
   102  H    0.032040
   103  H    0.051321
   104  H    0.001037
   105  H    0.008053
   106  H    0.031681
   107  H    0.025709
   108  H    0.000234
   109  H   -0.009004
   110  H   -0.009877
   111  H    0.001751
   112  H    0.005375
   113  H    0.005723
   114  H   -0.002336
   115  H    0.019019
   116  H    0.004422
   117  H    0.001175
   118  H   -0.010570
   119  H    0.001410
   120  H   -0.012607
   121  H   -0.000489
   122  H    0.001960
   123  H   -0.008326
   124  H    0.006940
   125  H    0.016559
   126  H    0.012105
   127  H   -0.007791
   128  H   -0.001432
   129  H   -0.011185
   130  H   -0.008059
   131  H    0.007800
   132  H    0.000747
   133  H   -0.001747
   134  H    0.003228
   135  H   -0.013094
   136  H   -0.008941
   137  H    0.024280
   138  H    0.004184
   139  H   -0.004952
   140  H    0.004255
 Sum of Mulliken charges =  -0.00000

 Dipole moment (field-independent basis, Debye):
    X=              4.3314    Y=              1.3874    Z=             -1.1232  Tot=              4.6849
 Quadrupole moment (field-independent basis, Debye-Ang):
   XX=           -381.9676   YY=           -438.7305   ZZ=           -406.1121
   XY=            -25.1740   XZ=             -4.5989   YZ=              8.0754

 Normal termination of Gaussian 16 at Wed May  4 00:42:06 2022.
