 Gaussian 16, Revision A.03,
 Gaussian 16:  ES64L-G16RevA.03 25-Dec-2016

 ---------------------------------
 #p PBE1PBE/Def2SVP td=(nstates=5)
 ---------------------------------

 ------------------------------------------------------
 step_1201_chromophore_15 TDDFT with PBE1PBE functional
 ------------------------------------------------------
 Symbolic Z-matrix:
 Charge =  0 Multiplicity = 1

                         Standard orientation:
 ---------------------------------------------------------------------
 Center     Atomic      Atomic             Coordinates (Angstroms)
 Number     Number       Type             X           Y           Z
 ---------------------------------------------------------------------
      1         12           0       -4.564864    1.048272    0.317342
      2          6           0       -4.353478   -2.524789    0.515650
      3          6           0       -1.245684    1.199676   -0.059631
      4          6           0       -5.002950    4.283157   -0.097702
      5          6           0       -8.060638    0.616455    0.745670
      6          7           0       -2.956189   -0.562983    0.295596
      7          6           0       -3.096417   -1.909990    0.238975
      8          6           0       -1.752242   -2.531954   -0.123546
      9          6           0       -0.748714   -1.363640    0.212671
     10          6           0       -1.671030   -0.098455    0.171974
     11          6           0       -0.120630   -1.403209    1.647276
     12          6           0       -1.689175   -2.877897   -1.631569
     13          6           0       -0.665228   -3.896158   -2.147477
     14          6           0        0.545391   -4.269723   -1.352505
     15          8           0        0.479224   -4.787189   -0.230494
     16          8           0        1.643339   -3.612095   -1.898168
     17          7           0       -3.205341    2.609450    0.147888
     18          6           0       -1.891689    2.481343   -0.162744
     19          6           0       -1.369902    3.770059   -0.599340
     20          6           0       -2.482179    4.649765   -0.562541
     21          6           0       -3.648458    3.880243   -0.136094
     22          6           0        0.053197    3.884851   -1.163103
     23          6           0       -2.516517    6.163052   -0.895668
     24          8           0       -3.508386    6.925782   -0.887964
     25          6           0       -1.160225    6.806375   -1.309078
     26          7           0       -6.282108    2.248816    0.513020
     27          6           0       -6.137340    3.608905    0.228439
     28          6           0       -7.582563    4.294694    0.152029
     29          6           0       -8.487381    3.150565    0.778779
     30          6           0       -7.597864    1.928495    0.612282
     31          6           0       -7.694212    5.669011    0.944127
     32          6           0       -9.864361    3.009231    0.126972
     33          6           0      -11.028515    2.799111    1.086398
     34          7           0       -5.911907   -0.605249    0.537818
     35          6           0       -7.291469   -0.565818    0.669625
     36          6           0       -7.771162   -1.957477    0.799934
     37          6           0       -6.572070   -2.706395    0.895327
     38          6           0       -5.560612   -1.834526    0.685066
     39          6           0       -9.113976   -2.420320    0.874914
     40          6           0       -6.080532   -4.025291    1.192552
     41          8           0       -6.707812   -4.973814    1.541005
     42          6           0       -4.519832   -4.018301    1.009548
     43          6           0       -4.065371   -5.087766    0.129705
     44          8           0       -4.595622   -5.358521   -0.923943
     45          8           0       -2.893119   -5.662756    0.610065
     46          6           0       -2.443950   -6.825621   -0.072897
     47          6           0        2.856295   -3.646239   -1.075313
     48          6           0        3.854640   -2.923345   -1.891038
     49          6           0        5.163995   -3.221459   -1.882475
     50          6           0        5.795076   -4.112930   -0.783638
     51          6           0        6.113655   -2.308224   -2.732066
     52          6           0        6.407777   -0.864962   -2.385831
     53          6           0        7.662739   -0.294141   -3.119561
     54          6           0        7.542661    1.278345   -3.385686
     55          6           0        7.561527    1.551770   -4.918086
     56          6           0        8.785963    2.011903   -2.802745
     57          6           0        8.866271    2.292973   -1.270868
     58          6           0        9.752258    1.304142   -0.407811
     59          6           0       11.032877    2.177912    0.155329
     60          6           0       11.972618    2.598361   -0.942351
     61          6           0       11.935811    1.376077    1.201173
     62          6           0       11.645850    1.639908    2.725255
     63          6           0       11.001117    0.426106    3.448184
     64          6           0       11.349636    0.568447    4.983255
     65          6           0       12.465026   -0.314424    5.467326
     66          6           0       10.096256    0.451861    5.908081
     67          1           0       -0.153847    1.227450   -0.089426
     68          1           0       -5.149358    5.288699   -0.496889
     69          1           0       -9.109238    0.393731    0.952278
     70          1           0       -1.387295   -3.339497    0.510206
     71          1           0       -0.006669   -1.437048   -0.582105
     72          1           0        0.930627   -1.691124    1.626479
     73          1           0       -0.645829   -2.089381    2.311745
     74          1           0       -0.193629   -0.424727    2.122108
     75          1           0       -1.596863   -1.919515   -2.143475
     76          1           0       -2.666275   -3.278981   -1.899157
     77          1           0       -0.488254   -3.424351   -3.114304
     78          1           0       -1.199127   -4.842485   -2.229973
     79          1           0        0.730375    3.031630   -1.202980
     80          1           0        0.436438    4.574340   -0.410356
     81          1           0        0.020286    4.384346   -2.131747
     82          1           0       -0.387037    6.524841   -0.594587
     83          1           0       -1.280628    7.889185   -1.308387
     84          1           0       -0.934225    6.408845   -2.298717
     85          1           0       -7.863466    4.439516   -0.891132
     86          1           0       -8.587707    3.362140    1.843289
     87          1           0       -8.256847    5.586901    1.875020
     88          1           0       -8.269149    6.327916    0.292251
     89          1           0       -6.768779    6.106169    1.318572
     90          1           0       -9.854425    2.317501   -0.714659
     91          1           0      -10.207236    3.967477   -0.264576
     92          1           0      -11.378082    3.768828    1.440055
     93          1           0      -10.632383    2.401647    2.021005
     94          1           0      -11.784376    2.180944    0.600861
     95          1           0       -8.990979   -3.385926    0.384480
     96          1           0       -9.651771   -1.716223    0.241042
     97          1           0       -9.450158   -2.527949    1.906024
     98          1           0       -4.046294   -4.151840    1.981734
     99          1           0       -3.061708   -7.170180   -0.902504
    100          1           0       -2.324336   -7.685962    0.584699
    101          1           0       -1.414112   -6.641488   -0.379549
    102          1           0        3.168731   -4.690215   -1.087974
    103          1           0        2.797530   -3.239336   -0.065736
    104          1           0        3.560240   -2.214667   -2.665453
    105          1           0        6.820265   -3.760054   -0.666882
    106          1           0        5.904816   -5.158599   -1.069468
    107          1           0        5.291640   -4.007744    0.177464
    108          1           0        5.542363   -2.325197   -3.660887
    109          1           0        6.989730   -2.920330   -2.948522
    110          1           0        6.712315   -0.898908   -1.339643
    111          1           0        5.494875   -0.292287   -2.550594
    112          1           0        7.644070   -0.838000   -4.064016
    113          1           0        8.434217   -0.597364   -2.411976
    114          1           0        6.700618    1.708059   -2.843372
    115          1           0        7.093699    2.472305   -5.267845
    116          1           0        7.285015    0.712391   -5.556983
    117          1           0        8.636215    1.632340   -5.083798
    118          1           0        8.864607    2.997432   -3.262726
    119          1           0        9.729273    1.543394   -3.083392
    120          1           0        7.824890    2.341829   -0.952248
    121          1           0        9.246677    3.310965   -1.186740
    122          1           0        9.930329    0.394806   -0.983037
    123          1           0        9.070327    0.923628    0.351916
    124          1           0       10.728377    3.078798    0.689214
    125          1           0       12.896031    2.023810   -1.010026
    126          1           0       12.075905    3.665493   -0.744245
    127          1           0       11.543668    2.456764   -1.934096
    128          1           0       13.009074    1.557528    1.141381
    129          1           0       11.834313    0.305844    1.024378
    130          1           0       10.801736    2.328118    2.773718
    131          1           0       12.446558    2.176425    3.232968
    132          1           0       11.324140   -0.532461    3.041038
    133          1           0        9.943097    0.521985    3.205963
    134          1           0       11.755634    1.555953    5.203257
    135          1           0       12.690463   -0.976973    4.631419
    136          1           0       12.156744   -1.136949    6.112426
    137          1           0       13.299675    0.213285    5.929570
    138          1           0       10.125671   -0.376987    6.614946
    139          1           0        9.160601    0.332178    5.362352
    140          1           0        9.968787    1.378100    6.467067
 ---------------------------------------------------------------------

 SCF Done:  E(RPBE1PBE) =  -3005.31656359     A.U. after   15 cycles

 Excitation energies and oscillator strengths:

 Excited State   1:      Singlet-A      1.9017 eV  651.97 nm  f=0.3680  <S**2>=0.000
     245 -> 248        0.17614
     246 -> 247        0.69096
     246 <- 247       -0.10263
 This state for optimization and/or second-order correction.
 Total Energy, E(TD-HF/TD-DFT) =  -3005.24667837
 Copying the excited state density for this state as the 1-particle RhoCI density.

 Excited State   2:      Singlet-A      2.2443 eV  552.44 nm  f=0.1315  <S**2>=0.000
     245 -> 247        0.65601
     246 -> 248       -0.25186

 Excited State   3:      Singlet-A      3.0191 eV  410.66 nm  f=0.0004  <S**2>=0.000
     240 -> 247        0.12539
     241 -> 247       -0.22491
     242 -> 247        0.52991
     242 -> 249       -0.10265
     244 -> 247        0.34054

 Excited State   4:      Singlet-A      3.0964 eV  400.42 nm  f=0.0047  <S**2>=0.000
     242 -> 247       -0.32213
     243 -> 247       -0.24974
     244 -> 247        0.54997

 Excited State   5:      Singlet-A      3.1059 eV  399.19 nm  f=0.0006  <S**2>=0.000
     243 -> 247        0.63689
     244 -> 247        0.21725

 The electronic state is 1-A.
 Alpha  occ. eigenvalues --  -46.92443 -19.26953 -19.25592 -19.21827 -19.20116
 Alpha  occ. eigenvalues --  -19.19303 -19.19103 -14.41571 -14.41331 -14.39197
 Alpha  occ. eigenvalues --  -14.38462 -10.37648 -10.36175 -10.32786 -10.31601
 Alpha  occ. eigenvalues --  -10.30024 -10.28999 -10.28796 -10.28469 -10.28334
 Alpha  occ. eigenvalues --  -10.27654 -10.27651 -10.27567 -10.27486 -10.26525
 Alpha  occ. eigenvalues --  -10.26230 -10.26055 -10.25719 -10.25571 -10.25510
 Alpha  occ. eigenvalues --  -10.25481 -10.25394 -10.25153 -10.25141 -10.25047
 Alpha  occ. eigenvalues --  -10.25018 -10.25004 -10.24863 -10.24857 -10.24725
 Alpha  occ. eigenvalues --  -10.24657 -10.24452 -10.24036 -10.23831 -10.23570
 Alpha  occ. eigenvalues --  -10.23545 -10.23521 -10.23389 -10.23323 -10.23320
 Alpha  occ. eigenvalues --  -10.23236 -10.23224 -10.23175 -10.23148 -10.22990
 Alpha  occ. eigenvalues --  -10.22889 -10.22814 -10.22656 -10.22497 -10.22485
 Alpha  occ. eigenvalues --  -10.22363 -10.22159 -10.21874 -10.21719 -10.21381
 Alpha  occ. eigenvalues --  -10.21358  -3.14421  -1.87292  -1.86774  -1.86653
 Alpha  occ. eigenvalues --   -1.11440  -1.11219  -1.06390  -1.03720  -1.03333
 Alpha  occ. eigenvalues --   -1.03050  -1.00037  -0.98009  -0.97546  -0.96912
 Alpha  occ. eigenvalues --   -0.86814  -0.85030  -0.83839  -0.83444  -0.83350
 Alpha  occ. eigenvalues --   -0.82734  -0.82694  -0.82107  -0.81366  -0.81176
 Alpha  occ. eigenvalues --   -0.80976  -0.79902  -0.78954  -0.78130  -0.77443
 Alpha  occ. eigenvalues --   -0.76809  -0.76418  -0.75510  -0.75190  -0.74635
 Alpha  occ. eigenvalues --   -0.74225  -0.72900  -0.72285  -0.71631  -0.70740
 Alpha  occ. eigenvalues --   -0.70550  -0.69550  -0.69438  -0.68890  -0.68121
 Alpha  occ. eigenvalues --   -0.67651  -0.66948  -0.65781  -0.64793  -0.63123
 Alpha  occ. eigenvalues --   -0.62843  -0.62168  -0.61254  -0.60615  -0.59887
 Alpha  occ. eigenvalues --   -0.59557  -0.59434  -0.59395  -0.59033  -0.58727
 Alpha  occ. eigenvalues --   -0.58285  -0.57958  -0.57745  -0.57257  -0.54730
 Alpha  occ. eigenvalues --   -0.54368  -0.54119  -0.53457  -0.53214  -0.53011
 Alpha  occ. eigenvalues --   -0.52125  -0.51814  -0.51109  -0.50825  -0.50398
 Alpha  occ. eigenvalues --   -0.50259  -0.49362  -0.49105  -0.49060  -0.48753
 Alpha  occ. eigenvalues --   -0.48033  -0.47885  -0.47712  -0.47532  -0.47273
 Alpha  occ. eigenvalues --   -0.46906  -0.46770  -0.46583  -0.46451  -0.46236
 Alpha  occ. eigenvalues --   -0.46143  -0.45916  -0.45701  -0.45495  -0.45333
 Alpha  occ. eigenvalues --   -0.45069  -0.44968  -0.44872  -0.44660  -0.44251
 Alpha  occ. eigenvalues --   -0.43922  -0.43862  -0.43684  -0.43474  -0.43392
 Alpha  occ. eigenvalues --   -0.43295  -0.42855  -0.42760  -0.42591  -0.42461
 Alpha  occ. eigenvalues --   -0.42302  -0.42156  -0.41869  -0.41732  -0.41577
 Alpha  occ. eigenvalues --   -0.41564  -0.41099  -0.41025  -0.40705  -0.40550
 Alpha  occ. eigenvalues --   -0.40441  -0.40359  -0.40311  -0.40118  -0.39924
 Alpha  occ. eigenvalues --   -0.39713  -0.39464  -0.39239  -0.38924  -0.38661
 Alpha  occ. eigenvalues --   -0.38505  -0.38290  -0.38001  -0.37715  -0.37617
 Alpha  occ. eigenvalues --   -0.37492  -0.37233  -0.37200  -0.37081  -0.36839
 Alpha  occ. eigenvalues --   -0.36553  -0.36474  -0.36214  -0.36163  -0.36083
 Alpha  occ. eigenvalues --   -0.35929  -0.35597  -0.35280  -0.35172  -0.34969
 Alpha  occ. eigenvalues --   -0.34745  -0.34356  -0.33926  -0.33610  -0.33196
 Alpha  occ. eigenvalues --   -0.33065  -0.32862  -0.32760  -0.32632  -0.32543
 Alpha  occ. eigenvalues --   -0.32485  -0.32191  -0.32118  -0.32034  -0.30784
 Alpha  occ. eigenvalues --   -0.30732  -0.30672  -0.30471  -0.29975  -0.29545
 Alpha  occ. eigenvalues --   -0.29057  -0.28674  -0.28582  -0.27107  -0.25828
 Alpha  occ. eigenvalues --   -0.25811  -0.25607  -0.25447  -0.25435  -0.20826
 Alpha  occ. eigenvalues --   -0.18954
 Alpha virt. eigenvalues --   -0.11126  -0.05074  -0.03479  -0.02139  -0.02005
 Alpha virt. eigenvalues --   -0.00121   0.00422   0.00807   0.01514   0.02947
 Alpha virt. eigenvalues --    0.03447   0.04380   0.04741   0.05606   0.05804

 Mulliken charges:
               1
     1  Mg   0.947279
     2  C   -0.072169
     3  C   -0.028204
     4  C   -0.047281
     5  C   -0.085328
     6  N   -0.362081
     7  C    0.056531
     8  C   -0.126498
     9  C   -0.152516
    10  C    0.025068
    11  C    0.030319
    12  C   -0.014080
    13  C    0.047990
    14  C    0.236842
    15  O   -0.277598
    16  O   -0.377338
    17  N   -0.496767
    18  C    0.147300
    19  C   -0.169421
    20  C   -0.105095
    21  C    0.141185
    22  C    0.051934
    23  C    0.075445
    24  O   -0.260281
    25  C   -0.037379
    26  N   -0.424122
    27  C    0.107397
    28  C   -0.141589
    29  C   -0.081706
    30  C    0.110160
    31  C    0.004225
    32  C   -0.033698
    33  C   -0.068736
    34  N   -0.407107
    35  C    0.121603
    36  C   -0.211529
    37  C   -0.056673
    38  C    0.177940
    39  C    0.061307
    40  C    0.125087
    41  O   -0.175731
    42  C   -0.087763
    43  C    0.279159
    44  O   -0.237034
    45  O   -0.359191
    46  C    0.108158
    47  C    0.261425
    48  C   -0.144029
    49  C   -0.219485
    50  C   -0.005455
    51  C   -0.045917
    52  C   -0.020304
    53  C   -0.000732
    54  C   -0.169987
    55  C   -0.011685
    56  C   -0.084742
    57  C   -0.040820
    58  C   -0.001537
    59  C   -0.214707
    60  C    0.000852
    61  C    0.000260
    62  C   -0.099918
    63  C    0.004102
    64  C   -0.248952
    65  C    0.005817
    66  C   -0.019281
    67  H    0.001345
    68  H    0.034133
    69  H    0.006171
    70  H    0.066006
    71  H    0.036596
    72  H    0.043257
    73  H    0.045834
    74  H    0.044512
    75  H    0.044502
    76  H    0.064108
    77  H    0.058745
    78  H    0.061141
    79  H    0.052783
    80  H    0.055713
    81  H    0.060494
    82  H    0.050228
    83  H    0.058623
    84  H    0.066064
    85  H    0.057861
    86  H    0.055733
    87  H    0.025544
    88  H    0.046233
    89  H    0.061819
    90  H    0.042685
    91  H    0.037160
    92  H    0.039946
    93  H    0.033173
    94  H    0.055252
    95  H    0.072436
    96  H    0.046900
    97  H    0.076536
    98  H    0.075736
    99  H    0.065261
   100  H    0.043364
   101  H    0.053842
   102  H    0.060436
   103  H    0.077109
   104  H    0.030084
   105  H    0.036154
   106  H    0.059360
   107  H    0.052658
   108  H    0.034547
   109  H    0.023749
   110  H    0.025638
   111  H    0.032846
   112  H    0.037994
   113  H    0.040019
   114  H    0.033549
   115  H    0.046927
   116  H    0.031980
   117  H    0.029691
   118  H    0.023679
   119  H    0.033247
   120  H    0.020190
   121  H    0.032252
   122  H    0.033304
   123  H    0.024900
   124  H    0.043461
   125  H    0.043224
   126  H    0.039613
   127  H    0.023195
   128  H    0.030869
   129  H    0.021997
   130  H    0.026728
   131  H    0.038021
   132  H    0.031107
   133  H    0.030550
   134  H    0.041077
   135  H    0.014397
   136  H    0.018036
   137  H    0.050264
   138  H    0.030717
   139  H    0.022253
   140  H    0.031518
 Sum of Mulliken charges =  -0.00000

 Dipole moment (field-independent basis, Debye):
    X=              4.5741    Y=              1.8269    Z=             -1.1836  Tot=              5.0657
 Quadrupole moment (field-independent basis, Debye-Ang):
   XX=           -379.1093   YY=           -435.1619   ZZ=           -403.6565
   XY=            -27.5020   XZ=             -4.4679   YZ=              7.8464

 Normal termination of Gaussian 16 at Wed May  4 00:59:10 2022.
