 Gaussian 16, Revision A.03,
 Gaussian 16:  ES64L-G16RevA.03 25-Dec-2016

 --------------------------------
 #p wB97XD/Def2SVP td=(nstates=5)
 --------------------------------

 -----------------------------------------------------
 step_1201_chromophore_15 TDDFT with wB97XD functional
 -----------------------------------------------------
 Symbolic Z-matrix:
 Charge =  0 Multiplicity = 1

                         Standard orientation:
 ---------------------------------------------------------------------
 Center     Atomic      Atomic             Coordinates (Angstroms)
 Number     Number       Type             X           Y           Z
 ---------------------------------------------------------------------
      1         12           0       -4.564864    1.048272    0.317342
      2          6           0       -4.353478   -2.524789    0.515650
      3          6           0       -1.245684    1.199676   -0.059631
      4          6           0       -5.002950    4.283157   -0.097702
      5          6           0       -8.060638    0.616455    0.745670
      6          7           0       -2.956189   -0.562983    0.295596
      7          6           0       -3.096417   -1.909990    0.238975
      8          6           0       -1.752242   -2.531954   -0.123546
      9          6           0       -0.748714   -1.363640    0.212671
     10          6           0       -1.671030   -0.098455    0.171974
     11          6           0       -0.120630   -1.403209    1.647276
     12          6           0       -1.689175   -2.877897   -1.631569
     13          6           0       -0.665228   -3.896158   -2.147477
     14          6           0        0.545391   -4.269723   -1.352505
     15          8           0        0.479224   -4.787189   -0.230494
     16          8           0        1.643339   -3.612095   -1.898168
     17          7           0       -3.205341    2.609450    0.147888
     18          6           0       -1.891689    2.481343   -0.162744
     19          6           0       -1.369902    3.770059   -0.599340
     20          6           0       -2.482179    4.649765   -0.562541
     21          6           0       -3.648458    3.880243   -0.136094
     22          6           0        0.053197    3.884851   -1.163103
     23          6           0       -2.516517    6.163052   -0.895668
     24          8           0       -3.508386    6.925782   -0.887964
     25          6           0       -1.160225    6.806375   -1.309078
     26          7           0       -6.282108    2.248816    0.513020
     27          6           0       -6.137340    3.608905    0.228439
     28          6           0       -7.582563    4.294694    0.152029
     29          6           0       -8.487381    3.150565    0.778779
     30          6           0       -7.597864    1.928495    0.612282
     31          6           0       -7.694212    5.669011    0.944127
     32          6           0       -9.864361    3.009231    0.126972
     33          6           0      -11.028515    2.799111    1.086398
     34          7           0       -5.911907   -0.605249    0.537818
     35          6           0       -7.291469   -0.565818    0.669625
     36          6           0       -7.771162   -1.957477    0.799934
     37          6           0       -6.572070   -2.706395    0.895327
     38          6           0       -5.560612   -1.834526    0.685066
     39          6           0       -9.113976   -2.420320    0.874914
     40          6           0       -6.080532   -4.025291    1.192552
     41          8           0       -6.707812   -4.973814    1.541005
     42          6           0       -4.519832   -4.018301    1.009548
     43          6           0       -4.065371   -5.087766    0.129705
     44          8           0       -4.595622   -5.358521   -0.923943
     45          8           0       -2.893119   -5.662756    0.610065
     46          6           0       -2.443950   -6.825621   -0.072897
     47          6           0        2.856295   -3.646239   -1.075313
     48          6           0        3.854640   -2.923345   -1.891038
     49          6           0        5.163995   -3.221459   -1.882475
     50          6           0        5.795076   -4.112930   -0.783638
     51          6           0        6.113655   -2.308224   -2.732066
     52          6           0        6.407777   -0.864962   -2.385831
     53          6           0        7.662739   -0.294141   -3.119561
     54          6           0        7.542661    1.278345   -3.385686
     55          6           0        7.561527    1.551770   -4.918086
     56          6           0        8.785963    2.011903   -2.802745
     57          6           0        8.866271    2.292973   -1.270868
     58          6           0        9.752258    1.304142   -0.407811
     59          6           0       11.032877    2.177912    0.155329
     60          6           0       11.972618    2.598361   -0.942351
     61          6           0       11.935811    1.376077    1.201173
     62          6           0       11.645850    1.639908    2.725255
     63          6           0       11.001117    0.426106    3.448184
     64          6           0       11.349636    0.568447    4.983255
     65          6           0       12.465026   -0.314424    5.467326
     66          6           0       10.096256    0.451861    5.908081
     67          1           0       -0.153847    1.227450   -0.089426
     68          1           0       -5.149358    5.288699   -0.496889
     69          1           0       -9.109238    0.393731    0.952278
     70          1           0       -1.387295   -3.339497    0.510206
     71          1           0       -0.006669   -1.437048   -0.582105
     72          1           0        0.930627   -1.691124    1.626479
     73          1           0       -0.645829   -2.089381    2.311745
     74          1           0       -0.193629   -0.424727    2.122108
     75          1           0       -1.596863   -1.919515   -2.143475
     76          1           0       -2.666275   -3.278981   -1.899157
     77          1           0       -0.488254   -3.424351   -3.114304
     78          1           0       -1.199127   -4.842485   -2.229973
     79          1           0        0.730375    3.031630   -1.202980
     80          1           0        0.436438    4.574340   -0.410356
     81          1           0        0.020286    4.384346   -2.131747
     82          1           0       -0.387037    6.524841   -0.594587
     83          1           0       -1.280628    7.889185   -1.308387
     84          1           0       -0.934225    6.408845   -2.298717
     85          1           0       -7.863466    4.439516   -0.891132
     86          1           0       -8.587707    3.362140    1.843289
     87          1           0       -8.256847    5.586901    1.875020
     88          1           0       -8.269149    6.327916    0.292251
     89          1           0       -6.768779    6.106169    1.318572
     90          1           0       -9.854425    2.317501   -0.714659
     91          1           0      -10.207236    3.967477   -0.264576
     92          1           0      -11.378082    3.768828    1.440055
     93          1           0      -10.632383    2.401647    2.021005
     94          1           0      -11.784376    2.180944    0.600861
     95          1           0       -8.990979   -3.385926    0.384480
     96          1           0       -9.651771   -1.716223    0.241042
     97          1           0       -9.450158   -2.527949    1.906024
     98          1           0       -4.046294   -4.151840    1.981734
     99          1           0       -3.061708   -7.170180   -0.902504
    100          1           0       -2.324336   -7.685962    0.584699
    101          1           0       -1.414112   -6.641488   -0.379549
    102          1           0        3.168731   -4.690215   -1.087974
    103          1           0        2.797530   -3.239336   -0.065736
    104          1           0        3.560240   -2.214667   -2.665453
    105          1           0        6.820265   -3.760054   -0.666882
    106          1           0        5.904816   -5.158599   -1.069468
    107          1           0        5.291640   -4.007744    0.177464
    108          1           0        5.542363   -2.325197   -3.660887
    109          1           0        6.989730   -2.920330   -2.948522
    110          1           0        6.712315   -0.898908   -1.339643
    111          1           0        5.494875   -0.292287   -2.550594
    112          1           0        7.644070   -0.838000   -4.064016
    113          1           0        8.434217   -0.597364   -2.411976
    114          1           0        6.700618    1.708059   -2.843372
    115          1           0        7.093699    2.472305   -5.267845
    116          1           0        7.285015    0.712391   -5.556983
    117          1           0        8.636215    1.632340   -5.083798
    118          1           0        8.864607    2.997432   -3.262726
    119          1           0        9.729273    1.543394   -3.083392
    120          1           0        7.824890    2.341829   -0.952248
    121          1           0        9.246677    3.310965   -1.186740
    122          1           0        9.930329    0.394806   -0.983037
    123          1           0        9.070327    0.923628    0.351916
    124          1           0       10.728377    3.078798    0.689214
    125          1           0       12.896031    2.023810   -1.010026
    126          1           0       12.075905    3.665493   -0.744245
    127          1           0       11.543668    2.456764   -1.934096
    128          1           0       13.009074    1.557528    1.141381
    129          1           0       11.834313    0.305844    1.024378
    130          1           0       10.801736    2.328118    2.773718
    131          1           0       12.446558    2.176425    3.232968
    132          1           0       11.324140   -0.532461    3.041038
    133          1           0        9.943097    0.521985    3.205963
    134          1           0       11.755634    1.555953    5.203257
    135          1           0       12.690463   -0.976973    4.631419
    136          1           0       12.156744   -1.136949    6.112426
    137          1           0       13.299675    0.213285    5.929570
    138          1           0       10.125671   -0.376987    6.614946
    139          1           0        9.160601    0.332178    5.362352
    140          1           0        9.968787    1.378100    6.467067
 ---------------------------------------------------------------------

 SCF Done:  E(RwB97XD) =  -3007.82682068     A.U. after   19 cycles

 Excitation energies and oscillator strengths:

 Excited State   1:      Singlet-A      1.7112 eV  724.53 nm  f=0.3767  <S**2>=0.000
     245 -> 248        0.18457
     246 -> 247        0.68338
     245 <- 248        0.11447
 This state for optimization and/or second-order correction.
 Total Energy, E(TD-HF/TD-DFT) =  -3007.76393364
 Copying the excited state density for this state as the 1-particle RhoCI density.

 Excited State   2:      Singlet-A      2.1769 eV  569.54 nm  f=0.1381  <S**2>=0.000
     245 -> 247        0.64572
     246 -> 248       -0.27748

 Excited State   3:      Singlet-A      3.3966 eV  365.02 nm  f=0.0007  <S**2>=0.000
     240 -> 247       -0.11027
     242 -> 247       -0.36316
     243 -> 247        0.42936
     244 -> 247       -0.37583

 Excited State   4:      Singlet-A      3.5377 eV  350.46 nm  f=0.0129  <S**2>=0.000
     239 -> 247        0.17740
     240 -> 247        0.55155
     240 -> 249        0.25118
     240 -> 250        0.18303
     243 -> 247        0.14774

 Excited State   5:      Singlet-A      3.6256 eV  341.97 nm  f=0.4286  <S**2>=0.000
     243 -> 247        0.16940
     244 -> 247        0.33911
     245 -> 247        0.21183
     246 -> 248        0.54104

 The electronic state is 1-A.
 Alpha  occ. eigenvalues --  -46.95413 -19.31504 -19.30282 -19.26515 -19.24994
 Alpha  occ. eigenvalues --  -19.24216 -19.23853 -14.46638 -14.46442 -14.43981
 Alpha  occ. eigenvalues --  -14.43600 -10.44465 -10.43178 -10.39368 -10.38705
 Alpha  occ. eigenvalues --  -10.36523 -10.35550 -10.35352 -10.34566 -10.34412
 Alpha  occ. eigenvalues --  -10.34386 -10.34157 -10.33649 -10.33399 -10.32641
 Alpha  occ. eigenvalues --  -10.32578 -10.32317 -10.32302 -10.32264 -10.32217
 Alpha  occ. eigenvalues --  -10.31713 -10.31676 -10.31486 -10.31440 -10.31412
 Alpha  occ. eigenvalues --  -10.31324 -10.31201 -10.31162 -10.31116 -10.30985
 Alpha  occ. eigenvalues --  -10.30960 -10.30918 -10.30468 -10.30172 -10.29924
 Alpha  occ. eigenvalues --  -10.29917 -10.29889 -10.29691 -10.29686 -10.29671
 Alpha  occ. eigenvalues --  -10.29638 -10.29622 -10.29496 -10.29494 -10.29477
 Alpha  occ. eigenvalues --  -10.29338 -10.29155 -10.28994 -10.28902 -10.28821
 Alpha  occ. eigenvalues --  -10.28695 -10.28562 -10.28497 -10.28143 -10.27788
 Alpha  occ. eigenvalues --  -10.27770  -3.21254  -1.94873  -1.94357  -1.94231
 Alpha  occ. eigenvalues --   -1.18835  -1.18753  -1.14117  -1.11082  -1.10842
 Alpha  occ. eigenvalues --   -1.10307  -1.07647  -1.05272  -1.04938  -1.04201
 Alpha  occ. eigenvalues --   -0.94640  -0.92689  -0.91507  -0.91101  -0.91014
 Alpha  occ. eigenvalues --   -0.90477  -0.90383  -0.89688  -0.89020  -0.88755
 Alpha  occ. eigenvalues --   -0.88413  -0.87541  -0.86602  -0.85815  -0.85040
 Alpha  occ. eigenvalues --   -0.84456  -0.84110  -0.83137  -0.82787  -0.82282
 Alpha  occ. eigenvalues --   -0.81850  -0.80566  -0.79845  -0.79231  -0.78423
 Alpha  occ. eigenvalues --   -0.78241  -0.77120  -0.77100  -0.76559  -0.75767
 Alpha  occ. eigenvalues --   -0.75236  -0.74532  -0.73295  -0.72406  -0.70785
 Alpha  occ. eigenvalues --   -0.70447  -0.69786  -0.68672  -0.68233  -0.67458
 Alpha  occ. eigenvalues --   -0.67131  -0.66934  -0.66860  -0.66482  -0.66252
 Alpha  occ. eigenvalues --   -0.65949  -0.65620  -0.65354  -0.64808  -0.62314
 Alpha  occ. eigenvalues --   -0.61691  -0.61553  -0.60969  -0.60628  -0.60534
 Alpha  occ. eigenvalues --   -0.59623  -0.59284  -0.58585  -0.58143  -0.57848
 Alpha  occ. eigenvalues --   -0.57768  -0.56749  -0.56670  -0.56477  -0.56170
 Alpha  occ. eigenvalues --   -0.55399  -0.55278  -0.55163  -0.54890  -0.54673
 Alpha  occ. eigenvalues --   -0.54419  -0.54132  -0.53982  -0.53880  -0.53626
 Alpha  occ. eigenvalues --   -0.53510  -0.53258  -0.53090  -0.52816  -0.52660
 Alpha  occ. eigenvalues --   -0.52442  -0.52263  -0.52185  -0.51969  -0.51606
 Alpha  occ. eigenvalues --   -0.51241  -0.51069  -0.51023  -0.50777  -0.50676
 Alpha  occ. eigenvalues --   -0.50590  -0.50101  -0.50027  -0.49954  -0.49747
 Alpha  occ. eigenvalues --   -0.49576  -0.49445  -0.49075  -0.48959  -0.48816
 Alpha  occ. eigenvalues --   -0.48778  -0.48310  -0.48258  -0.47981  -0.47817
 Alpha  occ. eigenvalues --   -0.47723  -0.47539  -0.47302  -0.47287  -0.47019
 Alpha  occ. eigenvalues --   -0.46910  -0.46834  -0.46480  -0.46040  -0.45839
 Alpha  occ. eigenvalues --   -0.45652  -0.45432  -0.45117  -0.44839  -0.44763
 Alpha  occ. eigenvalues --   -0.44618  -0.44353  -0.44271  -0.44160  -0.44039
 Alpha  occ. eigenvalues --   -0.43675  -0.43553  -0.43316  -0.43229  -0.43137
 Alpha  occ. eigenvalues --   -0.43010  -0.42644  -0.42268  -0.42184  -0.41961
 Alpha  occ. eigenvalues --   -0.41794  -0.41287  -0.40982  -0.40663  -0.40243
 Alpha  occ. eigenvalues --   -0.40026  -0.39863  -0.39810  -0.39658  -0.39593
 Alpha  occ. eigenvalues --   -0.39545  -0.39165  -0.39135  -0.39055  -0.37924
 Alpha  occ. eigenvalues --   -0.37644  -0.37556  -0.37389  -0.37047  -0.36781
 Alpha  occ. eigenvalues --   -0.35847  -0.35492  -0.35299  -0.33728  -0.32939
 Alpha  occ. eigenvalues --   -0.32578  -0.32365  -0.32322  -0.31995  -0.25818
 Alpha  occ. eigenvalues --   -0.23196
 Alpha virt. eigenvalues --   -0.07007   0.00405   0.02839   0.04392   0.04820
 Alpha virt. eigenvalues --    0.06499   0.06638   0.07155   0.07981   0.09255
 Alpha virt. eigenvalues --    0.10108   0.11209   0.11526   0.12415   0.12586

 Mulliken charges:
               1
     1  Mg   0.938971
     2  C   -0.091533
     3  C   -0.039967
     4  C   -0.059460
     5  C   -0.107640
     6  N   -0.330325
     7  C    0.025794
     8  C   -0.095373
     9  C   -0.125710
    10  C    0.013715
    11  C    0.039505
    12  C   -0.004170
    13  C    0.065103
    14  C    0.223888
    15  O   -0.272929
    16  O   -0.375405
    17  N   -0.463333
    18  C    0.130884
    19  C   -0.156911
    20  C   -0.101338
    21  C    0.125843
    22  C    0.065562
    23  C    0.068991
    24  O   -0.256318
    25  C   -0.021472
    26  N   -0.394118
    27  C    0.092772
    28  C   -0.114891
    29  C   -0.056107
    30  C    0.101221
    31  C    0.013704
    32  C   -0.020588
    33  C   -0.053491
    34  N   -0.366638
    35  C    0.119723
    36  C   -0.203321
    37  C   -0.051647
    38  C    0.171583
    39  C    0.073183
    40  C    0.101272
    41  O   -0.164124
    42  C   -0.042732
    43  C    0.251610
    44  O   -0.230132
    45  O   -0.355850
    46  C    0.125661
    47  C    0.274137
    48  C   -0.152132
    49  C   -0.210794
    50  C    0.007764
    51  C   -0.023641
    52  C   -0.000940
    53  C    0.013948
    54  C   -0.141028
    55  C    0.001698
    56  C   -0.065624
    57  C   -0.024472
    58  C    0.011684
    59  C   -0.180705
    60  C    0.012309
    61  C    0.012718
    62  C   -0.081168
    63  C    0.019101
    64  C   -0.218335
    65  C    0.015440
    66  C   -0.006493
    67  H   -0.006459
    68  H    0.027737
    69  H   -0.002124
    70  H    0.050125
    71  H    0.024583
    72  H    0.037705
    73  H    0.039469
    74  H    0.037638
    75  H    0.036701
    76  H    0.054731
    77  H    0.055031
    78  H    0.053046
    79  H    0.049054
    80  H    0.046467
    81  H    0.052907
    82  H    0.042756
    83  H    0.056502
    84  H    0.059304
    85  H    0.048479
    86  H    0.043840
    87  H    0.018779
    88  H    0.040757
    89  H    0.057282
    90  H    0.035496
    91  H    0.028537
    92  H    0.034687
    93  H    0.025193
    94  H    0.051152
    95  H    0.068536
    96  H    0.041628
    97  H    0.074614
    98  H    0.071262
    99  H    0.061931
   100  H    0.039844
   101  H    0.045703
   102  H    0.054037
   103  H    0.073278
   104  H    0.027296
   105  H    0.030442
   106  H    0.054611
   107  H    0.047227
   108  H    0.024174
   109  H    0.015762
   110  H    0.014499
   111  H    0.024691
   112  H    0.027161
   113  H    0.028253
   114  H    0.022137
   115  H    0.042648
   116  H    0.026368
   117  H    0.020849
   118  H    0.014705
   119  H    0.019259
   120  H    0.011841
   121  H    0.022632
   122  H    0.022515
   123  H    0.016843
   124  H    0.031157
   125  H    0.037645
   126  H    0.034807
   127  H    0.013168
   128  H    0.022992
   129  H    0.011625
   130  H    0.014810
   131  H    0.030598
   132  H    0.021367
   133  H    0.021495
   134  H    0.028617
   135  H    0.006675
   136  H    0.011390
   137  H    0.046516
   138  H    0.024333
   139  H    0.015772
   140  H    0.025980
 Sum of Mulliken charges =  -0.00000

 Dipole moment (field-independent basis, Debye):
    X=              4.2528    Y=              1.2983    Z=             -1.1009  Tot=              4.5808
 Quadrupole moment (field-independent basis, Debye-Ang):
   XX=           -375.9991   YY=           -435.0952   ZZ=           -403.1494
   XY=            -24.8519   XZ=             -5.0140   YZ=              7.6441

 Normal termination of Gaussian 16 at Wed May  4 01:28:10 2022.
