 Gaussian 16, Revision A.03,
 Gaussian 16:  ES64L-G16RevA.03 25-Dec-2016

 --------------------
 #p ZINDO=(nstates=5)
 --------------------

 ------------------------------
 step_1201_chromophore_15 ZINDO
 ------------------------------
 Symbolic Z-matrix:
 Charge =  0 Multiplicity = 1

                         Standard orientation:
 ---------------------------------------------------------------------
 Center     Atomic      Atomic             Coordinates (Angstroms)
 Number     Number       Type             X           Y           Z
 ---------------------------------------------------------------------
      1         12           0       -4.564864    1.048272    0.317342
      2          6           0       -4.353478   -2.524789    0.515650
      3          6           0       -1.245684    1.199676   -0.059631
      4          6           0       -5.002950    4.283157   -0.097702
      5          6           0       -8.060638    0.616455    0.745670
      6          7           0       -2.956189   -0.562983    0.295596
      7          6           0       -3.096417   -1.909990    0.238975
      8          6           0       -1.752242   -2.531954   -0.123546
      9          6           0       -0.748714   -1.363640    0.212671
     10          6           0       -1.671030   -0.098455    0.171974
     11          6           0       -0.120630   -1.403209    1.647276
     12          6           0       -1.689175   -2.877897   -1.631569
     13          6           0       -0.665228   -3.896158   -2.147477
     14          6           0        0.545391   -4.269723   -1.352505
     15          8           0        0.479224   -4.787189   -0.230494
     16          8           0        1.643339   -3.612095   -1.898168
     17          7           0       -3.205341    2.609450    0.147888
     18          6           0       -1.891689    2.481343   -0.162744
     19          6           0       -1.369902    3.770059   -0.599340
     20          6           0       -2.482179    4.649765   -0.562541
     21          6           0       -3.648458    3.880243   -0.136094
     22          6           0        0.053197    3.884851   -1.163103
     23          6           0       -2.516517    6.163052   -0.895668
     24          8           0       -3.508386    6.925782   -0.887964
     25          6           0       -1.160225    6.806375   -1.309078
     26          7           0       -6.282108    2.248816    0.513020
     27          6           0       -6.137340    3.608905    0.228439
     28          6           0       -7.582563    4.294694    0.152029
     29          6           0       -8.487381    3.150565    0.778779
     30          6           0       -7.597864    1.928495    0.612282
     31          6           0       -7.694212    5.669011    0.944127
     32          6           0       -9.864361    3.009231    0.126972
     33          6           0      -11.028515    2.799111    1.086398
     34          7           0       -5.911907   -0.605249    0.537818
     35          6           0       -7.291469   -0.565818    0.669625
     36          6           0       -7.771162   -1.957477    0.799934
     37          6           0       -6.572070   -2.706395    0.895327
     38          6           0       -5.560612   -1.834526    0.685066
     39          6           0       -9.113976   -2.420320    0.874914
     40          6           0       -6.080532   -4.025291    1.192552
     41          8           0       -6.707812   -4.973814    1.541005
     42          6           0       -4.519832   -4.018301    1.009548
     43          6           0       -4.065371   -5.087766    0.129705
     44          8           0       -4.595622   -5.358521   -0.923943
     45          8           0       -2.893119   -5.662756    0.610065
     46          6           0       -2.443950   -6.825621   -0.072897
     47          6           0        2.856295   -3.646239   -1.075313
     48          6           0        3.854640   -2.923345   -1.891038
     49          6           0        5.163995   -3.221459   -1.882475
     50          6           0        5.795076   -4.112930   -0.783638
     51          6           0        6.113655   -2.308224   -2.732066
     52          6           0        6.407777   -0.864962   -2.385831
     53          6           0        7.662739   -0.294141   -3.119561
     54          6           0        7.542661    1.278345   -3.385686
     55          6           0        7.561527    1.551770   -4.918086
     56          6           0        8.785963    2.011903   -2.802745
     57          6           0        8.866271    2.292973   -1.270868
     58          6           0        9.752258    1.304142   -0.407811
     59          6           0       11.032877    2.177912    0.155329
     60          6           0       11.972618    2.598361   -0.942351
     61          6           0       11.935811    1.376077    1.201173
     62          6           0       11.645850    1.639908    2.725255
     63          6           0       11.001117    0.426106    3.448184
     64          6           0       11.349636    0.568447    4.983255
     65          6           0       12.465026   -0.314424    5.467326
     66          6           0       10.096256    0.451861    5.908081
     67          1           0       -0.153847    1.227450   -0.089426
     68          1           0       -5.149358    5.288699   -0.496889
     69          1           0       -9.109238    0.393731    0.952278
     70          1           0       -1.387295   -3.339497    0.510206
     71          1           0       -0.006669   -1.437048   -0.582105
     72          1           0        0.930627   -1.691124    1.626479
     73          1           0       -0.645829   -2.089381    2.311745
     74          1           0       -0.193629   -0.424727    2.122108
     75          1           0       -1.596863   -1.919515   -2.143475
     76          1           0       -2.666275   -3.278981   -1.899157
     77          1           0       -0.488254   -3.424351   -3.114304
     78          1           0       -1.199127   -4.842485   -2.229973
     79          1           0        0.730375    3.031630   -1.202980
     80          1           0        0.436438    4.574340   -0.410356
     81          1           0        0.020286    4.384346   -2.131747
     82          1           0       -0.387037    6.524841   -0.594587
     83          1           0       -1.280628    7.889185   -1.308387
     84          1           0       -0.934225    6.408845   -2.298717
     85          1           0       -7.863466    4.439516   -0.891132
     86          1           0       -8.587707    3.362140    1.843289
     87          1           0       -8.256847    5.586901    1.875020
     88          1           0       -8.269149    6.327916    0.292251
     89          1           0       -6.768779    6.106169    1.318572
     90          1           0       -9.854425    2.317501   -0.714659
     91          1           0      -10.207236    3.967477   -0.264576
     92          1           0      -11.378082    3.768828    1.440055
     93          1           0      -10.632383    2.401647    2.021005
     94          1           0      -11.784376    2.180944    0.600861
     95          1           0       -8.990979   -3.385926    0.384480
     96          1           0       -9.651771   -1.716223    0.241042
     97          1           0       -9.450158   -2.527949    1.906024
     98          1           0       -4.046294   -4.151840    1.981734
     99          1           0       -3.061708   -7.170180   -0.902504
    100          1           0       -2.324336   -7.685962    0.584699
    101          1           0       -1.414112   -6.641488   -0.379549
    102          1           0        3.168731   -4.690215   -1.087974
    103          1           0        2.797530   -3.239336   -0.065736
    104          1           0        3.560240   -2.214667   -2.665453
    105          1           0        6.820265   -3.760054   -0.666882
    106          1           0        5.904816   -5.158599   -1.069468
    107          1           0        5.291640   -4.007744    0.177464
    108          1           0        5.542363   -2.325197   -3.660887
    109          1           0        6.989730   -2.920330   -2.948522
    110          1           0        6.712315   -0.898908   -1.339643
    111          1           0        5.494875   -0.292287   -2.550594
    112          1           0        7.644070   -0.838000   -4.064016
    113          1           0        8.434217   -0.597364   -2.411976
    114          1           0        6.700618    1.708059   -2.843372
    115          1           0        7.093699    2.472305   -5.267845
    116          1           0        7.285015    0.712391   -5.556983
    117          1           0        8.636215    1.632340   -5.083798
    118          1           0        8.864607    2.997432   -3.262726
    119          1           0        9.729273    1.543394   -3.083392
    120          1           0        7.824890    2.341829   -0.952248
    121          1           0        9.246677    3.310965   -1.186740
    122          1           0        9.930329    0.394806   -0.983037
    123          1           0        9.070327    0.923628    0.351916
    124          1           0       10.728377    3.078798    0.689214
    125          1           0       12.896031    2.023810   -1.010026
    126          1           0       12.075905    3.665493   -0.744245
    127          1           0       11.543668    2.456764   -1.934096
    128          1           0       13.009074    1.557528    1.141381
    129          1           0       11.834313    0.305844    1.024378
    130          1           0       10.801736    2.328118    2.773718
    131          1           0       12.446558    2.176425    3.232968
    132          1           0       11.324140   -0.532461    3.041038
    133          1           0        9.943097    0.521985    3.205963
    134          1           0       11.755634    1.555953    5.203257
    135          1           0       12.690463   -0.976973    4.631419
    136          1           0       12.156744   -1.136949    6.112426
    137          1           0       13.299675    0.213285    5.929570
    138          1           0       10.125671   -0.376987    6.614946
    139          1           0        9.160601    0.332178    5.362352
    140          1           0        9.968787    1.378100    6.467067
 ---------------------------------------------------------------------

 SCF Done:  E(RZINDO/S) =  -474.207751184     A.U. after   19 cycles

 Excitation energies and oscillator strengths:

 Excited State   1:      Singlet-A      1.3063 eV  949.11 nm  f=0.5706  <S**2>=0.000
     175 ->178         0.17370
     176 ->177         0.66949
 This state for optimization and/or second-order correction.
 Total Energy, E(CIS/TDA) =  -474.159744731
 Copying the excited state density for this state as the 1-particle RhoCI density.

 Excited State   2:      Singlet-A      1.9367 eV  640.20 nm  f=0.0725  <S**2>=0.000
     175 ->177         0.56581
     176 ->178        -0.39428

 Excited State   3:      Singlet-A      2.9488 eV  420.46 nm  f=0.0030  <S**2>=0.000
     168 ->177         0.36654
     168 ->179         0.26700
     168 ->180        -0.26435
     168 ->181         0.19517
     168 ->186        -0.19285

 Excited State   4:      Singlet-A      3.0677 eV  404.15 nm  f=1.1225  <S**2>=0.000
     175 ->177         0.35544
     176 ->178         0.50857
     176 ->179         0.11838
     176 ->181        -0.17996

 Excited State   5:      Singlet-A      3.0895 eV  401.30 nm  f=0.0524  <S**2>=0.000
     169 ->181         0.10210
     170 ->177         0.20171
     170 ->178        -0.13269
     170 ->179        -0.21207
     170 ->180         0.18487
     170 ->181         0.40387
     170 ->182         0.11102
     170 ->186         0.19827
     170 ->188         0.20093
     176 ->178        -0.10296

 The electronic state is 1-A.
 Alpha  occ. eigenvalues --   -1.87405  -1.80160  -1.79215  -1.73409  -1.73251
 Alpha  occ. eigenvalues --   -1.70662  -1.62963  -1.61536  -1.59506  -1.55067
 Alpha  occ. eigenvalues --   -1.54544  -1.51911  -1.49435  -1.49116  -1.48284
 Alpha  occ. eigenvalues --   -1.45949  -1.42416  -1.40120  -1.38663  -1.37978
 Alpha  occ. eigenvalues --   -1.36968  -1.34820  -1.34450  -1.32119  -1.28121
 Alpha  occ. eigenvalues --   -1.27877  -1.25227  -1.21439  -1.19577  -1.19015
 Alpha  occ. eigenvalues --   -1.17381  -1.16124  -1.15445  -1.14722  -1.12486
 Alpha  occ. eigenvalues --   -1.11787  -1.10045  -1.09956  -1.05382  -1.04007
 Alpha  occ. eigenvalues --   -1.01971  -1.00703  -0.97676  -0.97546  -0.95986
 Alpha  occ. eigenvalues --   -0.95178  -0.93802  -0.92878  -0.92425  -0.91935
 Alpha  occ. eigenvalues --   -0.90581  -0.90474  -0.89315  -0.88777  -0.88619
 Alpha  occ. eigenvalues --   -0.86130  -0.85631  -0.83639  -0.83003  -0.81317
 Alpha  occ. eigenvalues --   -0.79606  -0.79461  -0.77559  -0.77056  -0.76160
 Alpha  occ. eigenvalues --   -0.75159  -0.74863  -0.74242  -0.73531  -0.73182
 Alpha  occ. eigenvalues --   -0.72724  -0.72273  -0.71982  -0.70888  -0.70607
 Alpha  occ. eigenvalues --   -0.70259  -0.69739  -0.68278  -0.68080  -0.67553
 Alpha  occ. eigenvalues --   -0.67087  -0.67052  -0.66566  -0.66301  -0.66266
 Alpha  occ. eigenvalues --   -0.65765  -0.65203  -0.64535  -0.64186  -0.63691
 Alpha  occ. eigenvalues --   -0.63214  -0.62648  -0.62377  -0.61975  -0.61626
 Alpha  occ. eigenvalues --   -0.60901  -0.60519  -0.60282  -0.59695  -0.59373
 Alpha  occ. eigenvalues --   -0.59334  -0.59186  -0.59025  -0.58814  -0.58384
 Alpha  occ. eigenvalues --   -0.58285  -0.57411  -0.57359  -0.57043  -0.56870
 Alpha  occ. eigenvalues --   -0.56567  -0.55867  -0.55794  -0.55071  -0.54789
 Alpha  occ. eigenvalues --   -0.54303  -0.53688  -0.53333  -0.52904  -0.52660
 Alpha  occ. eigenvalues --   -0.52532  -0.52083  -0.51954  -0.51578  -0.51146
 Alpha  occ. eigenvalues --   -0.51090  -0.51033  -0.50894  -0.50358  -0.50230
 Alpha  occ. eigenvalues --   -0.50128  -0.49879  -0.49750  -0.49291  -0.49171
 Alpha  occ. eigenvalues --   -0.48637  -0.48290  -0.47933  -0.47846  -0.47612
 Alpha  occ. eigenvalues --   -0.47427  -0.47330  -0.46899  -0.46665  -0.46267
 Alpha  occ. eigenvalues --   -0.46196  -0.45816  -0.45566  -0.45382  -0.45248
 Alpha  occ. eigenvalues --   -0.45121  -0.44743  -0.44541  -0.44093  -0.43664
 Alpha  occ. eigenvalues --   -0.43283  -0.43149  -0.43087  -0.42852  -0.42181
 Alpha  occ. eigenvalues --   -0.41869  -0.41581  -0.41571  -0.39565  -0.39355
 Alpha  occ. eigenvalues --   -0.38429  -0.36777  -0.35283  -0.34760  -0.34391
 Alpha  occ. eigenvalues --   -0.33545  -0.32718  -0.32461  -0.31851  -0.26599
 Alpha  occ. eigenvalues --   -0.21865
 Alpha virt. eigenvalues --   -0.08416  -0.01633  -0.00138   0.00101   0.01537
 Alpha virt. eigenvalues --    0.01994   0.03207   0.03369   0.04170   0.04821
 Alpha virt. eigenvalues --    0.06108   0.06679   0.07145   0.07869   0.07964

 Mulliken charges:
               1
     1  Mg   0.427219
     2  C   -0.078556
     3  C   -0.068071
     4  C   -0.038939
     5  C   -0.078099
     6  N   -0.297262
     7  C    0.165576
     8  C    0.003855
     9  C   -0.006251
    10  C    0.098736
    11  C   -0.049128
    12  C   -0.009739
    13  C    0.004311
    14  C    0.467345
    15  O   -0.514393
    16  O   -0.270688
    17  N   -0.306336
    18  C    0.073838
    19  C   -0.015788
    20  C   -0.055358
    21  C    0.105216
    22  C   -0.047558
    23  C    0.313643
    24  O   -0.536350
    25  C   -0.035518
    26  N   -0.273929
    27  C    0.086605
    28  C   -0.008366
    29  C    0.007793
    30  C    0.167058
    31  C   -0.057415
    32  C   -0.035309
    33  C   -0.059057
    34  N   -0.330677
    35  C    0.114999
    36  C    0.059370
    37  C   -0.051817
    38  C    0.170376
    39  C   -0.036878
    40  C    0.340882
    41  O   -0.499606
    42  C    0.049605
    43  C    0.493525
    44  O   -0.512163
    45  O   -0.266539
    46  C    0.073968
    47  C    0.109338
    48  C   -0.072820
    49  C   -0.038746
    50  C   -0.046872
    51  C   -0.028891
    52  C   -0.029697
    53  C   -0.044858
    54  C   -0.006161
    55  C   -0.061287
    56  C   -0.040191
    57  C   -0.048267
    58  C   -0.038955
    59  C   -0.005324
    60  C   -0.055971
    61  C   -0.049318
    62  C   -0.050595
    63  C   -0.028606
    64  C   -0.009092
    65  C   -0.061816
    66  C   -0.061445
    67  H    0.013030
    68  H    0.045531
    69  H    0.028619
    70  H    0.046529
    71  H    0.028128
    72  H    0.019468
    73  H    0.022829
    74  H    0.022140
    75  H    0.026540
    76  H    0.024355
    77  H    0.036074
    78  H    0.042574
    79  H    0.032889
    80  H    0.025713
    81  H    0.027662
    82  H    0.032341
    83  H    0.037158
    84  H    0.040243
    85  H    0.037957
    86  H    0.042718
    87  H    0.012981
    88  H    0.021202
    89  H    0.036225
    90  H    0.025889
    91  H    0.013961
    92  H    0.020596
    93  H    0.014113
    94  H    0.028224
    95  H    0.043443
    96  H    0.031636
    97  H    0.052758
    98  H    0.054215
    99  H    0.051005
   100  H    0.030777
   101  H    0.035598
   102  H    0.049615
   103  H    0.064204
   104  H    0.038384
   105  H    0.015199
   106  H    0.032718
   107  H    0.027611
   108  H    0.010098
   109  H    0.016529
   110  H    0.015523
   111  H    0.027479
   112  H    0.028146
   113  H    0.033487
   114  H    0.030405
   115  H    0.024775
   116  H    0.019721
   117  H    0.014618
   118  H    0.006552
   119  H    0.016763
   120  H    0.014733
   121  H    0.017161
   122  H    0.031701
   123  H    0.014952
   124  H    0.031444
   125  H    0.024859
   126  H    0.021859
   127  H    0.012458
   128  H    0.017362
   129  H    0.016052
   130  H    0.007560
   131  H    0.030197
   132  H    0.023585
   133  H    0.021120
   134  H    0.019087
   135  H    0.014818
   136  H    0.013497
   137  H    0.028612
   138  H    0.019937
   139  H    0.013345
   140  H    0.014160
 Sum of Mulliken charges =  -0.00000

 Dipole moment (field-independent basis, Debye):
    X=              3.6814    Y=             -0.6437    Z=             -1.2447  Tot=              3.9391
 N-N= 4.358062862916D+03 E-N= 0.000000000000D+00  KE=-9.390364448326D+03
 Leave Link  601 at Wed May  4 01:39:41 2022, MaxMem=  6710886400 cpu:               0.8 elap:               0.1
 (Enter /sw/apps/gaussian-16.0/g16/l9999.exe)
 1\1\GINC-BP1-COMPUTE096\SP\RZINDO CIS\STO-3G\C55H74Mg1N4O6\OF15641\04-
 May-2022\0\\#p ZINDO=(nstates=5)\\step_1201_chromophore_15 ZINDO\\0,1\
 Mg,0,46.137,35.499,28.073\C,0,44.737,33.236,30.475\C,0,46.672,37.721,3
 0.514\C,0,47.616,37.317,25.763\C,0,45.451,32.98,25.67\N,0,45.669,35.46
 1,30.301\C,0,45.256,34.424,31.07\C,0,45.436,34.795,32.538\C,0,45.559,3
 6.365,32.467\C,0,45.994,36.607,30.982\C,0,44.223,37.158,32.668\C,0,46.
 736,34.179,33.111\C,0,46.912,34.02,34.626\C,0,46.085,34.795,35.602\O,0

 Normal termination of Gaussian 16 at Wed May  4 01:39:41 2022.
