 Gaussian 16, Revision A.03,
 Gaussian 16:  ES64L-G16RevA.03 25-Dec-2016

 ------------------------------
 #p blyp/Def2SVP td=(nstates=5)
 ------------------------------

 --------------------------------------------------
 step_251_chromophore_26 TDDFT with blyp functional
 --------------------------------------------------
 Symbolic Z-matrix:
 Charge =  0 Multiplicity = 1

                         Standard orientation:
 ---------------------------------------------------------------------
 Center     Atomic      Atomic             Coordinates (Angstroms)
 Number     Number       Type             X           Y           Z
 ---------------------------------------------------------------------
      1         12           0       -3.820203    1.441146    0.666708
      2          6           0       -4.941392   -1.819918   -0.062324
      3          6           0       -2.181556    0.131539    3.282890
      4          6           0       -2.448051    4.394757    0.938720
      5          6           0       -5.080599    2.352046   -2.550765
      6          7           0       -3.567619   -0.630757    1.468378
      7          6           0       -4.151158   -1.794836    1.096705
      8          6           0       -3.809798   -2.962373    2.000213
      9          6           0       -3.142596   -2.189587    3.207926
     10          6           0       -2.914712   -0.796201    2.659500
     11          6           0       -3.999537   -2.166161    4.540384
     12          6           0       -2.906666   -4.173291    1.501293
     13          6           0       -2.049199   -4.068802    0.212129
     14          6           0       -0.675835   -4.837756    0.175392
     15          8           0       -0.584843   -6.014764    0.469628
     16          8           0        0.276286   -4.019145   -0.259956
     17          7           0       -2.569034    2.168283    2.070731
     18          6           0       -1.915529    1.478387    2.995929
     19          6           0       -0.956710    2.384246    3.685313
     20          6           0       -1.174646    3.724259    3.070477
     21          6           0       -2.091893    3.450698    1.963793
     22          6           0       -0.142877    1.991862    4.888894
     23          6           0       -0.466418    4.996197    3.457294
     24          8           0        0.309384    4.972447    4.409595
     25          6           0       -0.581034    6.370950    2.700955
     26          7           0       -3.668370    3.175273   -0.717078
     27          6           0       -3.178715    4.247234   -0.197213
     28          6           0       -3.428753    5.434736   -1.229905
     29          6           0       -4.041099    4.667543   -2.403626
     30          6           0       -4.277155    3.266409   -1.873507
     31          6           0       -4.258853    6.650900   -0.786456
     32          6           0       -3.033979    4.483263   -3.653611
     33          6           0       -3.409834    5.220370   -4.952095
     34          7           0       -4.741873    0.524192   -1.013771
     35          6           0       -5.297081    1.017732   -2.164722
     36          6           0       -6.155320   -0.007166   -2.813617
     37          6           0       -5.952176   -1.212980   -2.084614
     38          6           0       -5.163347   -0.761459   -0.939709
     39          6           0       -6.924712    0.128006   -4.146614
     40          6           0       -6.219489   -2.607793   -1.969432
     41          8           0       -6.746639   -3.454610   -2.711005
     42          6           0       -5.638407   -3.057706   -0.604826
     43          6           0       -6.807146   -3.618155    0.210809
     44          8           0       -7.127840   -4.736363    0.514773
     45          8           0       -7.461902   -2.537165    0.811036
     46          6           0       -8.577857   -2.841895    1.759527
     47          6           0        1.561904   -4.819775   -0.432233
     48          6           0        2.755917   -4.024588   -0.986028
     49          6           0        2.930188   -3.361503   -2.171425
     50          6           0        1.930134   -3.478375   -3.314173
     51          6           0        4.220926   -2.544104   -2.432044
     52          6           0        3.963576   -1.050404   -2.557230
     53          6           0        5.177346   -0.194432   -2.981049
     54          6           0        5.856875    0.702287   -1.855157
     55          6           0        6.013452    2.120360   -2.444959
     56          6           0        7.198078    0.125757   -1.454977
     57          6           0        7.661849    0.344695   -0.006170
     58          6           0        7.951955   -0.909336    0.798475
     59          6           0        9.396184   -0.952811    1.452913
     60          6           0        9.341430   -1.670443    2.793426
     61          6           0       10.451020   -1.612674    0.497713
     62          6           0       11.892520   -1.121120    0.704028
     63          6           0       12.529058   -0.334742   -0.527435
     64          6           0       13.260493    0.931498   -0.112352
     65          6           0       12.346539    2.126228   -0.324289
     66          6           0       14.556674    0.993962   -0.927506
     67          1           0       -1.652145   -0.323588    4.122781
     68          1           0       -1.996855    5.377471    1.095886
     69          1           0       -5.673115    2.716089   -3.392269
     70          1           0       -4.775482   -3.333878    2.342577
     71          1           0       -2.202907   -2.676189    3.469684
     72          1           0       -4.962995   -2.652772    4.392279
     73          1           0       -4.233281   -1.105564    4.626407
     74          1           0       -3.414926   -2.584427    5.359970
     75          1           0       -3.566904   -5.035229    1.404251
     76          1           0       -2.226623   -4.457763    2.304952
     77          1           0       -1.848833   -3.005483    0.080373
     78          1           0       -2.501307   -4.545326   -0.657169
     79          1           0        0.288495    2.844239    5.413329
     80          1           0        0.560435    1.231636    4.546966
     81          1           0       -0.847254    1.426986    5.500412
     82          1           0       -1.552830    6.819087    2.490457
     83          1           0       -0.165645    6.239408    1.701825
     84          1           0       -0.045455    7.167647    3.216418
     85          1           0       -2.494606    5.918298   -1.513631
     86          1           0       -4.946552    5.055501   -2.871554
     87          1           0       -4.579326    6.566735    0.252087
     88          1           0       -5.108086    6.822623   -1.448679
     89          1           0       -3.698789    7.585955   -0.796843
     90          1           0       -2.945876    3.438890   -3.949840
     91          1           0       -2.062188    4.822820   -3.294597
     92          1           0       -3.125391    4.717842   -5.876906
     93          1           0       -2.839186    6.148662   -4.926438
     94          1           0       -4.493100    5.317068   -4.878396
     95          1           0       -6.652795    0.992718   -4.751068
     96          1           0       -7.965473    0.227348   -3.839291
     97          1           0       -6.844898   -0.818220   -4.681197
     98          1           0       -4.899160   -3.841099   -0.768588
     99          1           0       -9.169121   -3.742737    1.596704
    100          1           0       -9.268751   -2.014185    1.600444
    101          1           0       -8.372671   -2.816007    2.829921
    102          1           0        1.517283   -5.817895   -0.870022
    103          1           0        2.006866   -5.042492    0.538177
    104          1           0        3.639670   -3.998002   -0.346835
    105          1           0        2.148225   -4.263325   -4.039369
    106          1           0        1.762495   -2.567753   -3.890456
    107          1           0        1.003753   -3.772952   -2.822433
    108          1           0        4.689012   -2.917842   -3.342804
    109          1           0        4.980995   -2.707722   -1.669156
    110          1           0        3.612650   -0.706528   -1.584101
    111          1           0        3.267744   -0.890492   -3.380927
    112          1           0        4.826470    0.384311   -3.835684
    113          1           0        5.946828   -0.856703   -3.378567
    114          1           0        5.198824    0.741928   -0.987540
    115          1           0        6.595656    2.698323   -1.727576
    116          1           0        5.037691    2.605559   -2.448699
    117          1           0        6.582336    2.038125   -3.370542
    118          1           0        8.014401    0.410863   -2.118510
    119          1           0        7.114600   -0.952648   -1.592857
    120          1           0        6.948215    0.961859    0.539049
    121          1           0        8.563102    0.952566   -0.090762
    122          1           0        7.712555   -1.886395    0.377606
    123          1           0        7.323758   -0.785824    1.680249
    124          1           0        9.732851    0.083363    1.487334
    125          1           0        9.834030   -1.053614    3.544521
    126          1           0        9.914288   -2.593557    2.706651
    127          1           0        8.353592   -1.998535    3.117093
    128          1           0       10.189971   -1.356581   -0.528340
    129          1           0       10.470382   -2.701982    0.512499
    130          1           0       12.528897   -1.980475    0.914934
    131          1           0       11.866800   -0.447216    1.561143
    132          1           0       11.826216   -0.086918   -1.323868
    133          1           0       13.198822   -1.078791   -0.960152
    134          1           0       13.490132    0.834525    0.949034
    135          1           0       12.408357    2.299972   -1.398668
    136          1           0       12.537354    2.961622    0.349682
    137          1           0       11.303864    1.883620   -0.121235
    138          1           0       14.555426    0.276497   -1.747701
    139          1           0       15.403320    0.800275   -0.269143
    140          1           0       14.519396    1.937186   -1.471999
 ---------------------------------------------------------------------

 SCF Done:  E(RB-LYP) =  -3007.36930324     A.U. after   21 cycles

 Excitation energies and oscillator strengths:

 Excited State   1:      Singlet-A      1.8482 eV  670.83 nm  f=0.3052  <S**2>=0.000
     245 -> 248       -0.16072
     245 -> 249        0.11678
     246 -> 247        0.68138
     246 <- 247       -0.14635
 This state for optimization and/or second-order correction.
 Total Energy, E(TD-HF/TD-DFT) =  -3007.30138201
 Copying the excited state density for this state as the 1-particle RhoCI density.

 Excited State   2:      Singlet-A      1.9216 eV  645.20 nm  f=0.0050  <S**2>=0.000
     243 -> 247        0.18261
     244 -> 247        0.64544
     245 -> 247        0.21365

 Excited State   3:      Singlet-A      1.9319 eV  641.76 nm  f=0.0379  <S**2>=0.000
     243 -> 247        0.43762
     244 -> 247       -0.28464
     245 -> 247        0.44671

 Excited State   4:      Singlet-A      2.0702 eV  598.90 nm  f=0.0420  <S**2>=0.000
     243 -> 247        0.51193
     245 -> 247       -0.43368
     246 -> 248       -0.16031
     246 -> 249        0.11387

 Excited State   5:      Singlet-A      2.3119 eV  536.30 nm  f=0.0003  <S**2>=0.000
     241 -> 247        0.70040

 The electronic state is 1-A.
 Alpha  occ. eigenvalues --  -46.28438 -18.83908 -18.81598 -18.77116 -18.76669
 Alpha  occ. eigenvalues --  -18.75872 -18.75605 -14.03409 -14.03104 -14.01818
 Alpha  occ. eigenvalues --  -14.01806 -10.04257 -10.04055 -10.00583 -10.00009
 Alpha  occ. eigenvalues --   -9.98461  -9.97774  -9.96784  -9.96610  -9.96594
 Alpha  occ. eigenvalues --   -9.96489  -9.96384  -9.95928  -9.95911  -9.95406
 Alpha  occ. eigenvalues --   -9.95126  -9.94645  -9.94444  -9.94359  -9.94069
 Alpha  occ. eigenvalues --   -9.93988  -9.93686  -9.93637  -9.93613  -9.93488
 Alpha  occ. eigenvalues --   -9.93483  -9.93187  -9.93178  -9.93146  -9.93025
 Alpha  occ. eigenvalues --   -9.92899  -9.92646  -9.92572  -9.92522  -9.92411
 Alpha  occ. eigenvalues --   -9.92300  -9.92298  -9.92186  -9.92069  -9.92062
 Alpha  occ. eigenvalues --   -9.91879  -9.91850  -9.91776  -9.91492  -9.91285
 Alpha  occ. eigenvalues --   -9.90975  -9.90910  -9.90887  -9.90860  -9.90838
 Alpha  occ. eigenvalues --   -9.90788  -9.90600  -9.90549  -9.90548  -9.90467
 Alpha  occ. eigenvalues --   -9.90452  -2.93018  -1.73429  -1.72914  -1.72727
 Alpha  occ. eigenvalues --   -0.99123  -0.97335  -0.91397  -0.90605  -0.90392
 Alpha  occ. eigenvalues --   -0.89283  -0.88944  -0.87039  -0.86388  -0.85777
 Alpha  occ. eigenvalues --   -0.76207  -0.73362  -0.73083  -0.72797  -0.72278
 Alpha  occ. eigenvalues --   -0.72208  -0.72062  -0.71708  -0.70995  -0.70155
 Alpha  occ. eigenvalues --   -0.69167  -0.69102  -0.68431  -0.67799  -0.67589
 Alpha  occ. eigenvalues --   -0.66613  -0.66005  -0.65132  -0.64943  -0.64600
 Alpha  occ. eigenvalues --   -0.64179  -0.62883  -0.62389  -0.62087  -0.61215
 Alpha  occ. eigenvalues --   -0.60398  -0.60391  -0.60207  -0.59352  -0.58742
 Alpha  occ. eigenvalues --   -0.58464  -0.57753  -0.57508  -0.55919  -0.54753
 Alpha  occ. eigenvalues --   -0.54232  -0.53760  -0.53342  -0.52715  -0.51969
 Alpha  occ. eigenvalues --   -0.51756  -0.51440  -0.51081  -0.50397  -0.50181
 Alpha  occ. eigenvalues --   -0.49546  -0.49375  -0.49319  -0.48745  -0.46926
 Alpha  occ. eigenvalues --   -0.46694  -0.45963  -0.45763  -0.45357  -0.44693
 Alpha  occ. eigenvalues --   -0.44017  -0.43343  -0.43116  -0.43017  -0.42479
 Alpha  occ. eigenvalues --   -0.42351  -0.41791  -0.41426  -0.41230  -0.41199
 Alpha  occ. eigenvalues --   -0.41051  -0.40735  -0.40563  -0.40499  -0.40341
 Alpha  occ. eigenvalues --   -0.40201  -0.39908  -0.39767  -0.39289  -0.39138
 Alpha  occ. eigenvalues --   -0.38904  -0.38742  -0.38620  -0.38547  -0.38444
 Alpha  occ. eigenvalues --   -0.38207  -0.37824  -0.37525  -0.37356  -0.37109
 Alpha  occ. eigenvalues --   -0.36923  -0.36835  -0.36662  -0.36503  -0.36233
 Alpha  occ. eigenvalues --   -0.36211  -0.36067  -0.35958  -0.35860  -0.35624
 Alpha  occ. eigenvalues --   -0.35541  -0.35316  -0.35191  -0.35129  -0.34975
 Alpha  occ. eigenvalues --   -0.34966  -0.34894  -0.34590  -0.34568  -0.34429
 Alpha  occ. eigenvalues --   -0.34394  -0.33994  -0.33830  -0.33572  -0.33449
 Alpha  occ. eigenvalues --   -0.33246  -0.33107  -0.33056  -0.32559  -0.32526
 Alpha  occ. eigenvalues --   -0.32266  -0.31950  -0.31695  -0.31423  -0.31240
 Alpha  occ. eigenvalues --   -0.31150  -0.31039  -0.30820  -0.30740  -0.30604
 Alpha  occ. eigenvalues --   -0.30421  -0.30151  -0.30108  -0.30062  -0.29919
 Alpha  occ. eigenvalues --   -0.29874  -0.29644  -0.29627  -0.29397  -0.29282
 Alpha  occ. eigenvalues --   -0.28911  -0.28832  -0.28504  -0.28179  -0.27837
 Alpha  occ. eigenvalues --   -0.27632  -0.27542  -0.27209  -0.27033  -0.26805
 Alpha  occ. eigenvalues --   -0.26698  -0.26368  -0.26030  -0.25734  -0.25471
 Alpha  occ. eigenvalues --   -0.24971  -0.24839  -0.24511  -0.24353  -0.23465
 Alpha  occ. eigenvalues --   -0.23403  -0.22908  -0.22048  -0.21908  -0.21450
 Alpha  occ. eigenvalues --   -0.20334  -0.20320  -0.19013  -0.18841  -0.17622
 Alpha  occ. eigenvalues --   -0.16230
 Alpha virt. eigenvalues --   -0.11840  -0.07207  -0.06882  -0.05147  -0.03672
 Alpha virt. eigenvalues --   -0.03429  -0.02792  -0.01846  -0.01510   0.00064
 Alpha virt. eigenvalues --    0.00817   0.01563   0.02202   0.02287   0.02622

 Mulliken charges:
               1
     1  Mg   0.692369
     2  C    0.006787
     3  C   -0.074530
     4  C   -0.014068
     5  C   -0.091085
     6  N   -0.202332
     7  C   -0.123578
     8  C    0.094151
     9  C   -0.060065
    10  C    0.028197
    11  C    0.137151
    12  C    0.123974
    13  C    0.108027
    14  C    0.046215
    15  O   -0.198202
    16  O   -0.224391
    17  N   -0.298812
    18  C    0.149002
    19  C   -0.160192
    20  C    0.025189
    21  C    0.122485
    22  C    0.196057
    23  C   -0.058021
    24  O   -0.166778
    25  C    0.113443
    26  N   -0.122046
    27  C    0.009600
    28  C    0.046633
    29  C   -0.020652
    30  C    0.033808
    31  C    0.117759
    32  C    0.047978
    33  C    0.075217
    34  N   -0.228269
    35  C    0.109464
    36  C   -0.196977
    37  C    0.114456
    38  C    0.093386
    39  C    0.172636
    40  C   -0.079128
    41  O   -0.146333
    42  C    0.051199
    43  C    0.129881
    44  O   -0.135438
    45  O   -0.307417
    46  C    0.208261
    47  C    0.311968
    48  C   -0.140973
    49  C   -0.110668
    50  C    0.121948
    51  C    0.122490
    52  C    0.067773
    53  C    0.105444
    54  C   -0.057854
    55  C    0.120493
    56  C    0.087097
    57  C    0.090931
    58  C    0.104148
    59  C   -0.107937
    60  C    0.143648
    61  C    0.094595
    62  C    0.060959
    63  C    0.078893
    64  C   -0.114101
    65  C    0.121105
    66  C    0.139721
    67  H   -0.072865
    68  H   -0.115905
    69  H   -0.059987
    70  H   -0.023978
    71  H   -0.024184
    72  H   -0.008315
    73  H   -0.010166
    74  H    0.010520
    75  H   -0.006370
    76  H   -0.015471
    77  H    0.003209
    78  H    0.020201
    79  H    0.022390
    80  H   -0.008130
    81  H   -0.007140
    82  H    0.010764
    83  H    0.011040
    84  H   -0.010882
    85  H   -0.024695
    86  H   -0.032553
    87  H   -0.013365
    88  H   -0.009526
    89  H   -0.019376
    90  H   -0.010285
    91  H   -0.027169
    92  H   -0.003904
    93  H   -0.006952
    94  H   -0.009866
    95  H   -0.004802
    96  H    0.003283
    97  H    0.018685
    98  H    0.001110
    99  H    0.024623
   100  H    0.003238
   101  H    0.010428
   102  H    0.022060
   103  H   -0.008897
   104  H   -0.030245
   105  H    0.005345
   106  H   -0.006837
   107  H   -0.007064
   108  H   -0.033101
   109  H   -0.034672
   110  H   -0.023348
   111  H   -0.028497
   112  H   -0.044345
   113  H   -0.043252
   114  H   -0.041871
   115  H   -0.032669
   116  H   -0.013607
   117  H   -0.007079
   118  H   -0.038668
   119  H   -0.039416
   120  H   -0.031773
   121  H   -0.032170
   122  H   -0.022976
   123  H   -0.047182
   124  H   -0.037249
   125  H   -0.011750
   126  H   -0.028817
   127  H   -0.015500
   128  H   -0.045169
   129  H   -0.039740
   130  H   -0.029363
   131  H   -0.025681
   132  H   -0.036375
   133  H   -0.037101
   134  H   -0.037279
   135  H   -0.016897
   136  H   -0.011143
   137  H   -0.023217
   138  H   -0.025386
   139  H   -0.003979
   140  H   -0.033386
 Sum of Mulliken charges =  -0.00000

 Dipole moment (field-independent basis, Debye):
    X=              0.3926    Y=              5.1360    Z=             -0.6814  Tot=              5.1958
 Quadrupole moment (field-independent basis, Debye-Ang):
   XX=           -399.7219   YY=           -432.4495   ZZ=           -405.1442
   XY=            -48.6142   XZ=            -21.4959   YZ=            -28.7118

 Normal termination of Gaussian 16 at Fri Apr 29 11:52:42 2022.
