 Gaussian 16, Revision A.03,
 Gaussian 16:  ES64L-G16RevA.03 25-Dec-2016

 -----------------------------------
 #p cam-b3lyp/Def2SVP td=(nstates=5)
 -----------------------------------

 -------------------------------------------------------
 step_251_chromophore_26 TDDFT with cam-b3lyp functional
 -------------------------------------------------------
 Symbolic Z-matrix:
 Charge =  0 Multiplicity = 1

                         Standard orientation:
 ---------------------------------------------------------------------
 Center     Atomic      Atomic             Coordinates (Angstroms)
 Number     Number       Type             X           Y           Z
 ---------------------------------------------------------------------
      1         12           0       -3.820203    1.441146    0.666708
      2          6           0       -4.941392   -1.819918   -0.062324
      3          6           0       -2.181556    0.131539    3.282890
      4          6           0       -2.448051    4.394757    0.938720
      5          6           0       -5.080599    2.352046   -2.550765
      6          7           0       -3.567619   -0.630757    1.468378
      7          6           0       -4.151158   -1.794836    1.096705
      8          6           0       -3.809798   -2.962373    2.000213
      9          6           0       -3.142596   -2.189587    3.207926
     10          6           0       -2.914712   -0.796201    2.659500
     11          6           0       -3.999537   -2.166161    4.540384
     12          6           0       -2.906666   -4.173291    1.501293
     13          6           0       -2.049199   -4.068802    0.212129
     14          6           0       -0.675835   -4.837756    0.175392
     15          8           0       -0.584843   -6.014764    0.469628
     16          8           0        0.276286   -4.019145   -0.259956
     17          7           0       -2.569034    2.168283    2.070731
     18          6           0       -1.915529    1.478387    2.995929
     19          6           0       -0.956710    2.384246    3.685313
     20          6           0       -1.174646    3.724259    3.070477
     21          6           0       -2.091893    3.450698    1.963793
     22          6           0       -0.142877    1.991862    4.888894
     23          6           0       -0.466418    4.996197    3.457294
     24          8           0        0.309384    4.972447    4.409595
     25          6           0       -0.581034    6.370950    2.700955
     26          7           0       -3.668370    3.175273   -0.717078
     27          6           0       -3.178715    4.247234   -0.197213
     28          6           0       -3.428753    5.434736   -1.229905
     29          6           0       -4.041099    4.667543   -2.403626
     30          6           0       -4.277155    3.266409   -1.873507
     31          6           0       -4.258853    6.650900   -0.786456
     32          6           0       -3.033979    4.483263   -3.653611
     33          6           0       -3.409834    5.220370   -4.952095
     34          7           0       -4.741873    0.524192   -1.013771
     35          6           0       -5.297081    1.017732   -2.164722
     36          6           0       -6.155320   -0.007166   -2.813617
     37          6           0       -5.952176   -1.212980   -2.084614
     38          6           0       -5.163347   -0.761459   -0.939709
     39          6           0       -6.924712    0.128006   -4.146614
     40          6           0       -6.219489   -2.607793   -1.969432
     41          8           0       -6.746639   -3.454610   -2.711005
     42          6           0       -5.638407   -3.057706   -0.604826
     43          6           0       -6.807146   -3.618155    0.210809
     44          8           0       -7.127840   -4.736363    0.514773
     45          8           0       -7.461902   -2.537165    0.811036
     46          6           0       -8.577857   -2.841895    1.759527
     47          6           0        1.561904   -4.819775   -0.432233
     48          6           0        2.755917   -4.024588   -0.986028
     49          6           0        2.930188   -3.361503   -2.171425
     50          6           0        1.930134   -3.478375   -3.314173
     51          6           0        4.220926   -2.544104   -2.432044
     52          6           0        3.963576   -1.050404   -2.557230
     53          6           0        5.177346   -0.194432   -2.981049
     54          6           0        5.856875    0.702287   -1.855157
     55          6           0        6.013452    2.120360   -2.444959
     56          6           0        7.198078    0.125757   -1.454977
     57          6           0        7.661849    0.344695   -0.006170
     58          6           0        7.951955   -0.909336    0.798475
     59          6           0        9.396184   -0.952811    1.452913
     60          6           0        9.341430   -1.670443    2.793426
     61          6           0       10.451020   -1.612674    0.497713
     62          6           0       11.892520   -1.121120    0.704028
     63          6           0       12.529058   -0.334742   -0.527435
     64          6           0       13.260493    0.931498   -0.112352
     65          6           0       12.346539    2.126228   -0.324289
     66          6           0       14.556674    0.993962   -0.927506
     67          1           0       -1.652145   -0.323588    4.122781
     68          1           0       -1.996855    5.377471    1.095886
     69          1           0       -5.673115    2.716089   -3.392269
     70          1           0       -4.775482   -3.333878    2.342577
     71          1           0       -2.202907   -2.676189    3.469684
     72          1           0       -4.962995   -2.652772    4.392279
     73          1           0       -4.233281   -1.105564    4.626407
     74          1           0       -3.414926   -2.584427    5.359970
     75          1           0       -3.566904   -5.035229    1.404251
     76          1           0       -2.226623   -4.457763    2.304952
     77          1           0       -1.848833   -3.005483    0.080373
     78          1           0       -2.501307   -4.545326   -0.657169
     79          1           0        0.288495    2.844239    5.413329
     80          1           0        0.560435    1.231636    4.546966
     81          1           0       -0.847254    1.426986    5.500412
     82          1           0       -1.552830    6.819087    2.490457
     83          1           0       -0.165645    6.239408    1.701825
     84          1           0       -0.045455    7.167647    3.216418
     85          1           0       -2.494606    5.918298   -1.513631
     86          1           0       -4.946552    5.055501   -2.871554
     87          1           0       -4.579326    6.566735    0.252087
     88          1           0       -5.108086    6.822623   -1.448679
     89          1           0       -3.698789    7.585955   -0.796843
     90          1           0       -2.945876    3.438890   -3.949840
     91          1           0       -2.062188    4.822820   -3.294597
     92          1           0       -3.125391    4.717842   -5.876906
     93          1           0       -2.839186    6.148662   -4.926438
     94          1           0       -4.493100    5.317068   -4.878396
     95          1           0       -6.652795    0.992718   -4.751068
     96          1           0       -7.965473    0.227348   -3.839291
     97          1           0       -6.844898   -0.818220   -4.681197
     98          1           0       -4.899160   -3.841099   -0.768588
     99          1           0       -9.169121   -3.742737    1.596704
    100          1           0       -9.268751   -2.014185    1.600444
    101          1           0       -8.372671   -2.816007    2.829921
    102          1           0        1.517283   -5.817895   -0.870022
    103          1           0        2.006866   -5.042492    0.538177
    104          1           0        3.639670   -3.998002   -0.346835
    105          1           0        2.148225   -4.263325   -4.039369
    106          1           0        1.762495   -2.567753   -3.890456
    107          1           0        1.003753   -3.772952   -2.822433
    108          1           0        4.689012   -2.917842   -3.342804
    109          1           0        4.980995   -2.707722   -1.669156
    110          1           0        3.612650   -0.706528   -1.584101
    111          1           0        3.267744   -0.890492   -3.380927
    112          1           0        4.826470    0.384311   -3.835684
    113          1           0        5.946828   -0.856703   -3.378567
    114          1           0        5.198824    0.741928   -0.987540
    115          1           0        6.595656    2.698323   -1.727576
    116          1           0        5.037691    2.605559   -2.448699
    117          1           0        6.582336    2.038125   -3.370542
    118          1           0        8.014401    0.410863   -2.118510
    119          1           0        7.114600   -0.952648   -1.592857
    120          1           0        6.948215    0.961859    0.539049
    121          1           0        8.563102    0.952566   -0.090762
    122          1           0        7.712555   -1.886395    0.377606
    123          1           0        7.323758   -0.785824    1.680249
    124          1           0        9.732851    0.083363    1.487334
    125          1           0        9.834030   -1.053614    3.544521
    126          1           0        9.914288   -2.593557    2.706651
    127          1           0        8.353592   -1.998535    3.117093
    128          1           0       10.189971   -1.356581   -0.528340
    129          1           0       10.470382   -2.701982    0.512499
    130          1           0       12.528897   -1.980475    0.914934
    131          1           0       11.866800   -0.447216    1.561143
    132          1           0       11.826216   -0.086918   -1.323868
    133          1           0       13.198822   -1.078791   -0.960152
    134          1           0       13.490132    0.834525    0.949034
    135          1           0       12.408357    2.299972   -1.398668
    136          1           0       12.537354    2.961622    0.349682
    137          1           0       11.303864    1.883620   -0.121235
    138          1           0       14.555426    0.276497   -1.747701
    139          1           0       15.403320    0.800275   -0.269143
    140          1           0       14.519396    1.937186   -1.471999
 ---------------------------------------------------------------------

 SCF Done:  E(RCAM-B3LYP) =  -3007.16029019     A.U. after   18 cycles

 Excitation energies and oscillator strengths:

 Excited State   1:      Singlet-A      1.7683 eV  701.16 nm  f=0.3966  <S**2>=0.000
     245 -> 248       -0.18476
     246 -> 247        0.68383
     245 <- 248       -0.10618
 This state for optimization and/or second-order correction.
 Total Energy, E(TD-HF/TD-DFT) =  -3007.09530696
 Copying the excited state density for this state as the 1-particle RhoCI density.

 Excited State   2:      Singlet-A      2.2822 eV  543.26 nm  f=0.0948  <S**2>=0.000
     245 -> 247        0.63756
     246 -> 248        0.29521

 Excited State   3:      Singlet-A      3.3780 eV  367.04 nm  f=0.0164  <S**2>=0.000
     239 -> 247        0.26114
     239 -> 249       -0.17353
     240 -> 247        0.43435
     240 -> 249       -0.29145
     240 -> 251        0.10839
     241 -> 247       -0.10687
     244 -> 247        0.18957
     246 -> 248       -0.15727

 Excited State   4:      Singlet-A      3.4063 eV  363.98 nm  f=0.0036  <S**2>=0.000
     240 -> 247       -0.19678
     244 -> 247        0.64848

 Excited State   5:      Singlet-A      3.5304 eV  351.19 nm  f=0.5004  <S**2>=0.000
     241 -> 247       -0.23782
     242 -> 247       -0.10232
     245 -> 247       -0.25992
     246 -> 248        0.57663

 The electronic state is 1-A.
 Alpha  occ. eigenvalues --  -46.90054 -19.26850 -19.24538 -19.20341 -19.19554
 Alpha  occ. eigenvalues --  -19.19448 -19.18614 -14.42299 -14.41832 -14.40422
 Alpha  occ. eigenvalues --  -14.40153 -10.39814 -10.39253 -10.35670 -10.35621
 Alpha  occ. eigenvalues --  -10.32706 -10.31805 -10.31504 -10.31123 -10.31021
 Alpha  occ. eigenvalues --  -10.30763 -10.30726 -10.30168 -10.30087 -10.30086
 Alpha  occ. eigenvalues --  -10.29852 -10.28941 -10.28759 -10.28749 -10.27995
 Alpha  occ. eigenvalues --  -10.27922 -10.27875 -10.27805 -10.27640 -10.27586
 Alpha  occ. eigenvalues --  -10.27472 -10.27366 -10.27243 -10.27187 -10.27084
 Alpha  occ. eigenvalues --  -10.26826 -10.26593 -10.26528 -10.26411 -10.26326
 Alpha  occ. eigenvalues --  -10.26277 -10.26192 -10.25829 -10.25788 -10.25686
 Alpha  occ. eigenvalues --  -10.25547 -10.25511 -10.25384 -10.25103 -10.24908
 Alpha  occ. eigenvalues --  -10.24655 -10.24536 -10.24506 -10.24474 -10.24435
 Alpha  occ. eigenvalues --  -10.24394 -10.24270 -10.24178 -10.24121 -10.24101
 Alpha  occ. eigenvalues --  -10.24006  -3.18531  -1.93419  -1.92986  -1.92835
 Alpha  occ. eigenvalues --   -1.17577  -1.15991  -1.09586  -1.09310  -1.08243
 Alpha  occ. eigenvalues --   -1.07212  -1.06742  -1.04807  -1.04000  -1.03290
 Alpha  occ. eigenvalues --   -0.93566  -0.90205  -0.89807  -0.89591  -0.89000
 Alpha  occ. eigenvalues --   -0.88823  -0.88764  -0.88308  -0.87589  -0.86902
 Alpha  occ. eigenvalues --   -0.85524  -0.85401  -0.84718  -0.84028  -0.83751
 Alpha  occ. eigenvalues --   -0.82678  -0.82084  -0.80984  -0.80783  -0.80567
 Alpha  occ. eigenvalues --   -0.79977  -0.78636  -0.77952  -0.77601  -0.76728
 Alpha  occ. eigenvalues --   -0.75750  -0.75731  -0.75462  -0.74615  -0.73985
 Alpha  occ. eigenvalues --   -0.73567  -0.72775  -0.72382  -0.70749  -0.69542
 Alpha  occ. eigenvalues --   -0.68716  -0.68331  -0.67766  -0.66869  -0.66291
 Alpha  occ. eigenvalues --   -0.65933  -0.65581  -0.65067  -0.64465  -0.64039
 Alpha  occ. eigenvalues --   -0.63543  -0.63265  -0.63126  -0.62670  -0.60601
 Alpha  occ. eigenvalues --   -0.60199  -0.59515  -0.59289  -0.58711  -0.58126
 Alpha  occ. eigenvalues --   -0.57495  -0.56801  -0.56369  -0.56312  -0.55726
 Alpha  occ. eigenvalues --   -0.55593  -0.54704  -0.54501  -0.54354  -0.53959
 Alpha  occ. eigenvalues --   -0.53843  -0.53690  -0.53538  -0.53130  -0.53064
 Alpha  occ. eigenvalues --   -0.52971  -0.52711  -0.52489  -0.51981  -0.51715
 Alpha  occ. eigenvalues --   -0.51526  -0.51309  -0.51203  -0.51097  -0.51053
 Alpha  occ. eigenvalues --   -0.50612  -0.50229  -0.49837  -0.49571  -0.49379
 Alpha  occ. eigenvalues --   -0.49347  -0.48976  -0.48958  -0.48740  -0.48561
 Alpha  occ. eigenvalues --   -0.48517  -0.48345  -0.48171  -0.47906  -0.47864
 Alpha  occ. eigenvalues --   -0.47610  -0.47478  -0.47261  -0.47059  -0.46923
 Alpha  occ. eigenvalues --   -0.46857  -0.46684  -0.46459  -0.46393  -0.46265
 Alpha  occ. eigenvalues --   -0.46183  -0.46041  -0.45513  -0.45414  -0.45401
 Alpha  occ. eigenvalues --   -0.45081  -0.44828  -0.44667  -0.44202  -0.44073
 Alpha  occ. eigenvalues --   -0.43898  -0.43605  -0.43380  -0.43118  -0.42711
 Alpha  occ. eigenvalues --   -0.42592  -0.42337  -0.42268  -0.42196  -0.42114
 Alpha  occ. eigenvalues --   -0.41988  -0.41926  -0.41423  -0.41325  -0.41257
 Alpha  occ. eigenvalues --   -0.41061  -0.40827  -0.40761  -0.40617  -0.40372
 Alpha  occ. eigenvalues --   -0.39961  -0.39840  -0.39470  -0.39210  -0.38779
 Alpha  occ. eigenvalues --   -0.38466  -0.38360  -0.38199  -0.38069  -0.37715
 Alpha  occ. eigenvalues --   -0.37492  -0.37303  -0.37101  -0.36725  -0.36601
 Alpha  occ. eigenvalues --   -0.36083  -0.35373  -0.34976  -0.34791  -0.34266
 Alpha  occ. eigenvalues --   -0.33874  -0.33833  -0.33632  -0.31898  -0.31393
 Alpha  occ. eigenvalues --   -0.31042  -0.30978  -0.30094  -0.29268  -0.24479
 Alpha  occ. eigenvalues --   -0.21524
 Alpha virt. eigenvalues --   -0.08903  -0.02023  -0.00606   0.01201   0.01877
 Alpha virt. eigenvalues --    0.04032   0.04870   0.05339   0.06131   0.06649
 Alpha virt. eigenvalues --    0.07621   0.08076   0.08248   0.08651   0.08821

 Mulliken charges:
               1
     1  Mg   0.824432
     2  C   -0.026995
     3  C   -0.081544
     4  C   -0.031604
     5  C   -0.096064
     6  N   -0.272296
     7  C   -0.076200
     8  C    0.046631
     9  C   -0.108760
    10  C    0.036470
    11  C    0.080451
    12  C    0.068660
    13  C    0.043281
    14  C    0.126795
    15  O   -0.241303
    16  O   -0.287081
    17  N   -0.388547
    18  C    0.149495
    19  C   -0.158109
    20  C   -0.044039
    21  C    0.147863
    22  C    0.134576
    23  C    0.013226
    24  O   -0.209751
    25  C    0.034199
    26  N   -0.199511
    27  C    0.025761
    28  C   -0.006822
    29  C   -0.076311
    30  C    0.051644
    31  C    0.059965
    32  C   -0.001486
    33  C    0.015497
    34  N   -0.315607
    35  C    0.114217
    36  C   -0.179944
    37  C    0.031103
    38  C    0.134669
    39  C    0.119663
    40  C    0.021238
    41  O   -0.182224
    42  C   -0.018467
    43  C    0.214285
    44  O   -0.174663
    45  O   -0.370577
    46  C    0.173573
    47  C    0.274793
    48  C   -0.161429
    49  C   -0.133180
    50  C    0.066529
    51  C    0.068653
    52  C    0.012112
    53  C    0.050723
    54  C   -0.116387
    55  C    0.062373
    56  C    0.037001
    57  C    0.039491
    58  C    0.046247
    59  C   -0.158316
    60  C    0.078528
    61  C    0.044401
    62  C    0.009441
    63  C    0.024796
    64  C   -0.174227
    65  C    0.063913
    66  C    0.074630
    67  H   -0.036589
    68  H   -0.078016
    69  H   -0.024434
    70  H    0.011732
    71  H    0.010535
    72  H    0.014427
    73  H    0.016463
    74  H    0.033448
    75  H    0.023961
    76  H    0.016126
    77  H    0.036193
    78  H    0.046427
    79  H    0.053176
    80  H    0.017251
    81  H    0.016145
    82  H    0.036862
    83  H    0.036441
    84  H    0.025056
    85  H    0.009507
    86  H    0.001039
    87  H    0.012078
    88  H    0.014723
    89  H    0.005142
    90  H    0.019279
    91  H    0.000764
    92  H    0.020623
    93  H    0.015791
    94  H    0.009465
    95  H    0.020924
    96  H    0.031433
    97  H    0.046167
    98  H    0.041174
    99  H    0.048933
   100  H    0.026132
   101  H    0.030092
   102  H    0.052520
   103  H    0.021409
   104  H    0.000687
   105  H    0.029831
   106  H    0.016822
   107  H    0.017069
   108  H   -0.003813
   109  H   -0.007318
   110  H    0.005208
   111  H   -0.001394
   112  H   -0.012413
   113  H   -0.014055
   114  H   -0.009748
   115  H   -0.008217
   116  H    0.011695
   117  H    0.015345
   118  H   -0.010298
   119  H   -0.013210
   120  H   -0.002597
   121  H   -0.006534
   122  H    0.003511
   123  H   -0.014776
   124  H   -0.007549
   125  H    0.012575
   126  H   -0.003740
   127  H    0.010052
   128  H   -0.018025
   129  H   -0.010677
   130  H   -0.000195
   131  H   -0.000532
   132  H   -0.009032
   133  H   -0.006291
   134  H   -0.004639
   135  H    0.005656
   136  H    0.014587
   137  H   -0.003332
   138  H    0.000074
   139  H    0.020450
   140  H   -0.007458
 Sum of Mulliken charges =  -0.00000

 Dipole moment (field-independent basis, Debye):
    X=              0.0405    Y=              5.2620    Z=             -1.0906  Tot=              5.3740
 Quadrupole moment (field-independent basis, Debye-Ang):
   XX=           -396.4266   YY=           -430.4357   ZZ=           -404.1319
   XY=            -49.6333   XZ=            -20.3884   YZ=            -29.9785

 Normal termination of Gaussian 16 at Fri Apr 29 10:44:00 2022.
