 Gaussian 16, Revision A.03,
 Gaussian 16:  ES64L-G16RevA.03 25-Dec-2016

 ---------------------------------
 #p PBE1PBE/Def2SVP td=(nstates=5)
 ---------------------------------

 -----------------------------------------------------
 step_251_chromophore_26 TDDFT with PBE1PBE functional
 -----------------------------------------------------
 Symbolic Z-matrix:
 Charge =  0 Multiplicity = 1

                         Standard orientation:
 ---------------------------------------------------------------------
 Center     Atomic      Atomic             Coordinates (Angstroms)
 Number     Number       Type             X           Y           Z
 ---------------------------------------------------------------------
      1         12           0       -3.820203    1.441146    0.666708
      2          6           0       -4.941392   -1.819918   -0.062324
      3          6           0       -2.181556    0.131539    3.282890
      4          6           0       -2.448051    4.394757    0.938720
      5          6           0       -5.080599    2.352046   -2.550765
      6          7           0       -3.567619   -0.630757    1.468378
      7          6           0       -4.151158   -1.794836    1.096705
      8          6           0       -3.809798   -2.962373    2.000213
      9          6           0       -3.142596   -2.189587    3.207926
     10          6           0       -2.914712   -0.796201    2.659500
     11          6           0       -3.999537   -2.166161    4.540384
     12          6           0       -2.906666   -4.173291    1.501293
     13          6           0       -2.049199   -4.068802    0.212129
     14          6           0       -0.675835   -4.837756    0.175392
     15          8           0       -0.584843   -6.014764    0.469628
     16          8           0        0.276286   -4.019145   -0.259956
     17          7           0       -2.569034    2.168283    2.070731
     18          6           0       -1.915529    1.478387    2.995929
     19          6           0       -0.956710    2.384246    3.685313
     20          6           0       -1.174646    3.724259    3.070477
     21          6           0       -2.091893    3.450698    1.963793
     22          6           0       -0.142877    1.991862    4.888894
     23          6           0       -0.466418    4.996197    3.457294
     24          8           0        0.309384    4.972447    4.409595
     25          6           0       -0.581034    6.370950    2.700955
     26          7           0       -3.668370    3.175273   -0.717078
     27          6           0       -3.178715    4.247234   -0.197213
     28          6           0       -3.428753    5.434736   -1.229905
     29          6           0       -4.041099    4.667543   -2.403626
     30          6           0       -4.277155    3.266409   -1.873507
     31          6           0       -4.258853    6.650900   -0.786456
     32          6           0       -3.033979    4.483263   -3.653611
     33          6           0       -3.409834    5.220370   -4.952095
     34          7           0       -4.741873    0.524192   -1.013771
     35          6           0       -5.297081    1.017732   -2.164722
     36          6           0       -6.155320   -0.007166   -2.813617
     37          6           0       -5.952176   -1.212980   -2.084614
     38          6           0       -5.163347   -0.761459   -0.939709
     39          6           0       -6.924712    0.128006   -4.146614
     40          6           0       -6.219489   -2.607793   -1.969432
     41          8           0       -6.746639   -3.454610   -2.711005
     42          6           0       -5.638407   -3.057706   -0.604826
     43          6           0       -6.807146   -3.618155    0.210809
     44          8           0       -7.127840   -4.736363    0.514773
     45          8           0       -7.461902   -2.537165    0.811036
     46          6           0       -8.577857   -2.841895    1.759527
     47          6           0        1.561904   -4.819775   -0.432233
     48          6           0        2.755917   -4.024588   -0.986028
     49          6           0        2.930188   -3.361503   -2.171425
     50          6           0        1.930134   -3.478375   -3.314173
     51          6           0        4.220926   -2.544104   -2.432044
     52          6           0        3.963576   -1.050404   -2.557230
     53          6           0        5.177346   -0.194432   -2.981049
     54          6           0        5.856875    0.702287   -1.855157
     55          6           0        6.013452    2.120360   -2.444959
     56          6           0        7.198078    0.125757   -1.454977
     57          6           0        7.661849    0.344695   -0.006170
     58          6           0        7.951955   -0.909336    0.798475
     59          6           0        9.396184   -0.952811    1.452913
     60          6           0        9.341430   -1.670443    2.793426
     61          6           0       10.451020   -1.612674    0.497713
     62          6           0       11.892520   -1.121120    0.704028
     63          6           0       12.529058   -0.334742   -0.527435
     64          6           0       13.260493    0.931498   -0.112352
     65          6           0       12.346539    2.126228   -0.324289
     66          6           0       14.556674    0.993962   -0.927506
     67          1           0       -1.652145   -0.323588    4.122781
     68          1           0       -1.996855    5.377471    1.095886
     69          1           0       -5.673115    2.716089   -3.392269
     70          1           0       -4.775482   -3.333878    2.342577
     71          1           0       -2.202907   -2.676189    3.469684
     72          1           0       -4.962995   -2.652772    4.392279
     73          1           0       -4.233281   -1.105564    4.626407
     74          1           0       -3.414926   -2.584427    5.359970
     75          1           0       -3.566904   -5.035229    1.404251
     76          1           0       -2.226623   -4.457763    2.304952
     77          1           0       -1.848833   -3.005483    0.080373
     78          1           0       -2.501307   -4.545326   -0.657169
     79          1           0        0.288495    2.844239    5.413329
     80          1           0        0.560435    1.231636    4.546966
     81          1           0       -0.847254    1.426986    5.500412
     82          1           0       -1.552830    6.819087    2.490457
     83          1           0       -0.165645    6.239408    1.701825
     84          1           0       -0.045455    7.167647    3.216418
     85          1           0       -2.494606    5.918298   -1.513631
     86          1           0       -4.946552    5.055501   -2.871554
     87          1           0       -4.579326    6.566735    0.252087
     88          1           0       -5.108086    6.822623   -1.448679
     89          1           0       -3.698789    7.585955   -0.796843
     90          1           0       -2.945876    3.438890   -3.949840
     91          1           0       -2.062188    4.822820   -3.294597
     92          1           0       -3.125391    4.717842   -5.876906
     93          1           0       -2.839186    6.148662   -4.926438
     94          1           0       -4.493100    5.317068   -4.878396
     95          1           0       -6.652795    0.992718   -4.751068
     96          1           0       -7.965473    0.227348   -3.839291
     97          1           0       -6.844898   -0.818220   -4.681197
     98          1           0       -4.899160   -3.841099   -0.768588
     99          1           0       -9.169121   -3.742737    1.596704
    100          1           0       -9.268751   -2.014185    1.600444
    101          1           0       -8.372671   -2.816007    2.829921
    102          1           0        1.517283   -5.817895   -0.870022
    103          1           0        2.006866   -5.042492    0.538177
    104          1           0        3.639670   -3.998002   -0.346835
    105          1           0        2.148225   -4.263325   -4.039369
    106          1           0        1.762495   -2.567753   -3.890456
    107          1           0        1.003753   -3.772952   -2.822433
    108          1           0        4.689012   -2.917842   -3.342804
    109          1           0        4.980995   -2.707722   -1.669156
    110          1           0        3.612650   -0.706528   -1.584101
    111          1           0        3.267744   -0.890492   -3.380927
    112          1           0        4.826470    0.384311   -3.835684
    113          1           0        5.946828   -0.856703   -3.378567
    114          1           0        5.198824    0.741928   -0.987540
    115          1           0        6.595656    2.698323   -1.727576
    116          1           0        5.037691    2.605559   -2.448699
    117          1           0        6.582336    2.038125   -3.370542
    118          1           0        8.014401    0.410863   -2.118510
    119          1           0        7.114600   -0.952648   -1.592857
    120          1           0        6.948215    0.961859    0.539049
    121          1           0        8.563102    0.952566   -0.090762
    122          1           0        7.712555   -1.886395    0.377606
    123          1           0        7.323758   -0.785824    1.680249
    124          1           0        9.732851    0.083363    1.487334
    125          1           0        9.834030   -1.053614    3.544521
    126          1           0        9.914288   -2.593557    2.706651
    127          1           0        8.353592   -1.998535    3.117093
    128          1           0       10.189971   -1.356581   -0.528340
    129          1           0       10.470382   -2.701982    0.512499
    130          1           0       12.528897   -1.980475    0.914934
    131          1           0       11.866800   -0.447216    1.561143
    132          1           0       11.826216   -0.086918   -1.323868
    133          1           0       13.198822   -1.078791   -0.960152
    134          1           0       13.490132    0.834525    0.949034
    135          1           0       12.408357    2.299972   -1.398668
    136          1           0       12.537354    2.961622    0.349682
    137          1           0       11.303864    1.883620   -0.121235
    138          1           0       14.555426    0.276497   -1.747701
    139          1           0       15.403320    0.800275   -0.269143
    140          1           0       14.519396    1.937186   -1.471999
 ---------------------------------------------------------------------

 SCF Done:  E(RPBE1PBE) =  -3005.34981550     A.U. after   16 cycles

 Excitation energies and oscillator strengths:

 Excited State   1:      Singlet-A      1.9105 eV  648.96 nm  f=0.3847  <S**2>=0.000
     245 -> 248       -0.17613
     246 -> 247        0.69124
     246 <- 247       -0.10555
 This state for optimization and/or second-order correction.
 Total Energy, E(TD-HF/TD-DFT) =  -3005.27960596
 Copying the excited state density for this state as the 1-particle RhoCI density.

 Excited State   2:      Singlet-A      2.2667 eV  546.99 nm  f=0.0936  <S**2>=0.000
     245 -> 247        0.65311
     246 -> 248        0.25695

 Excited State   3:      Singlet-A      2.9770 eV  416.48 nm  f=0.0001  <S**2>=0.000
     241 -> 247        0.59944
     241 -> 249       -0.19852
     244 -> 247       -0.24720

 Excited State   4:      Singlet-A      2.9867 eV  415.13 nm  f=0.0046  <S**2>=0.000
     241 -> 247        0.23115
     242 -> 247        0.11497
     244 -> 247        0.63868

 Excited State   5:      Singlet-A      3.1424 eV  394.55 nm  f=0.0000  <S**2>=0.000
     242 -> 247        0.65313
     242 -> 248        0.10082
     242 -> 249        0.13432
     242 -> 250        0.12503
     244 -> 247       -0.10953

 The electronic state is 1-A.
 Alpha  occ. eigenvalues --  -46.93433 -19.27495 -19.25143 -19.20495 -19.19857
 Alpha  occ. eigenvalues --  -19.19494 -19.18973 -14.41801 -14.41285 -14.39985
 Alpha  occ. eigenvalues --  -14.39860 -10.36780 -10.36286 -10.32921 -10.32634
 Alpha  occ. eigenvalues --  -10.30110 -10.29082 -10.28992 -10.28717 -10.28660
 Alpha  occ. eigenvalues --  -10.28532 -10.28491 -10.27908 -10.27775 -10.27612
 Alpha  occ. eigenvalues --  -10.27602 -10.26727 -10.26547 -10.26450 -10.25857
 Alpha  occ. eigenvalues --  -10.25754 -10.25561 -10.25527 -10.25473 -10.25211
 Alpha  occ. eigenvalues --  -10.25187 -10.24937 -10.24923 -10.24761 -10.24450
 Alpha  occ. eigenvalues --  -10.24361 -10.24074 -10.24054 -10.24008 -10.24007
 Alpha  occ. eigenvalues --  -10.23841 -10.23678 -10.23309 -10.23244 -10.23240
 Alpha  occ. eigenvalues --  -10.23231 -10.23040 -10.23007 -10.22635 -10.22566
 Alpha  occ. eigenvalues --  -10.22251 -10.22090 -10.22049 -10.22024 -10.21866
 Alpha  occ. eigenvalues --  -10.21855 -10.21783 -10.21729 -10.21682 -10.21490
 Alpha  occ. eigenvalues --  -10.21408  -3.15492  -1.88320  -1.87864  -1.87718
 Alpha  occ. eigenvalues --   -1.12391  -1.10678  -1.04457  -1.03856  -1.03111
 Alpha  occ. eigenvalues --   -1.01986  -1.01386  -0.99400  -0.98681  -0.98004
 Alpha  occ. eigenvalues --   -0.87817  -0.84296  -0.84159  -0.83690  -0.83191
 Alpha  occ. eigenvalues --   -0.83157  -0.82923  -0.82628  -0.81711  -0.81095
 Alpha  occ. eigenvalues --   -0.79889  -0.79721  -0.78941  -0.78258  -0.77975
 Alpha  occ. eigenvalues --   -0.76857  -0.76332  -0.75206  -0.75043  -0.74777
 Alpha  occ. eigenvalues --   -0.74130  -0.72901  -0.72222  -0.71910  -0.70977
 Alpha  occ. eigenvalues --   -0.69954  -0.69850  -0.69780  -0.68769  -0.68149
 Alpha  occ. eigenvalues --   -0.67959  -0.67104  -0.66861  -0.65047  -0.63970
 Alpha  occ. eigenvalues --   -0.63076  -0.62573  -0.62297  -0.61307  -0.60589
 Alpha  occ. eigenvalues --   -0.60360  -0.60069  -0.59590  -0.58749  -0.58509
 Alpha  occ. eigenvalues --   -0.57660  -0.57613  -0.57405  -0.56861  -0.55115
 Alpha  occ. eigenvalues --   -0.54874  -0.54071  -0.53701  -0.53298  -0.52769
 Alpha  occ. eigenvalues --   -0.51847  -0.51210  -0.50922  -0.50732  -0.50198
 Alpha  occ. eigenvalues --   -0.50077  -0.49193  -0.49081  -0.48911  -0.48500
 Alpha  occ. eigenvalues --   -0.48273  -0.48187  -0.48115  -0.47566  -0.47523
 Alpha  occ. eigenvalues --   -0.47501  -0.47209  -0.46975  -0.46564  -0.46235
 Alpha  occ. eigenvalues --   -0.46067  -0.45841  -0.45698  -0.45590  -0.45573
 Alpha  occ. eigenvalues --   -0.45194  -0.44796  -0.44452  -0.44179  -0.44003
 Alpha  occ. eigenvalues --   -0.43878  -0.43612  -0.43517  -0.43340  -0.43215
 Alpha  occ. eigenvalues --   -0.43143  -0.42918  -0.42700  -0.42603  -0.42456
 Alpha  occ. eigenvalues --   -0.42299  -0.42200  -0.41882  -0.41687  -0.41667
 Alpha  occ. eigenvalues --   -0.41464  -0.41268  -0.41134  -0.41104  -0.41050
 Alpha  occ. eigenvalues --   -0.40812  -0.40707  -0.40199  -0.40131  -0.40090
 Alpha  occ. eigenvalues --   -0.39779  -0.39618  -0.39357  -0.39019  -0.38791
 Alpha  occ. eigenvalues --   -0.38747  -0.38387  -0.38218  -0.37893  -0.37676
 Alpha  occ. eigenvalues --   -0.37365  -0.37135  -0.37081  -0.36957  -0.36888
 Alpha  occ. eigenvalues --   -0.36812  -0.36739  -0.36228  -0.36148  -0.36087
 Alpha  occ. eigenvalues --   -0.35810  -0.35689  -0.35541  -0.35501  -0.35167
 Alpha  occ. eigenvalues --   -0.34882  -0.34603  -0.34247  -0.34072  -0.33708
 Alpha  occ. eigenvalues --   -0.33248  -0.33241  -0.33159  -0.32839  -0.32558
 Alpha  occ. eigenvalues --   -0.32514  -0.32180  -0.31918  -0.31788  -0.31466
 Alpha  occ. eigenvalues --   -0.30949  -0.30282  -0.30031  -0.29740  -0.29399
 Alpha  occ. eigenvalues --   -0.29053  -0.28826  -0.28661  -0.27412  -0.26561
 Alpha  occ. eigenvalues --   -0.26118  -0.25900  -0.25379  -0.25055  -0.21392
 Alpha  occ. eigenvalues --   -0.19165
 Alpha virt. eigenvalues --   -0.11408  -0.05514  -0.04755  -0.02640  -0.01420
 Alpha virt. eigenvalues --   -0.00459   0.00322   0.01180   0.01655   0.02928
 Alpha virt. eigenvalues --    0.03614   0.04394   0.05018   0.05121   0.05450

 Mulliken charges:
               1
     1  Mg   0.964495
     2  C   -0.037420
     3  C   -0.073736
     4  C   -0.027494
     5  C   -0.079343
     6  N   -0.376533
     7  C    0.003904
     8  C   -0.013501
     9  C   -0.185309
    10  C    0.068643
    11  C    0.022859
    12  C    0.017051
    13  C   -0.037743
    14  C    0.195411
    15  O   -0.272720
    16  O   -0.315474
    17  N   -0.512274
    18  C    0.179358
    19  C   -0.179416
    20  C   -0.083577
    21  C    0.174842
    22  C    0.070486
    23  C    0.061505
    24  O   -0.243670
    25  C   -0.042783
    26  N   -0.315121
    27  C    0.065530
    28  C   -0.080555
    29  C   -0.153945
    30  C    0.086175
    31  C    0.004678
    32  C   -0.052861
    33  C   -0.058489
    34  N   -0.437617
    35  C    0.130114
    36  C   -0.187063
    37  C   -0.008308
    38  C    0.172765
    39  C    0.063643
    40  C    0.107137
    41  O   -0.229396
    42  C   -0.129913
    43  C    0.303479
    44  O   -0.214435
    45  O   -0.398094
    46  C    0.118961
    47  C    0.221418
    48  C   -0.168893
    49  C   -0.176928
    50  C    0.007621
    51  C    0.004289
    52  C   -0.053844
    53  C    0.001056
    54  C   -0.205266
    55  C   -0.001961
    56  C   -0.014881
    57  C   -0.022819
    58  C   -0.012092
    59  C   -0.248185
    60  C    0.019472
    61  C   -0.006732
    62  C   -0.051794
    63  C   -0.029078
    64  C   -0.267829
    65  C   -0.003399
    66  C    0.013917
    67  H   -0.004829
    68  H   -0.039160
    69  H    0.007241
    70  H    0.053344
    71  H    0.046960
    72  H    0.042314
    73  H    0.045772
    74  H    0.059610
    75  H    0.055260
    76  H    0.047521
    77  H    0.071453
    78  H    0.078380
    79  H    0.081012
    80  H    0.047827
    81  H    0.045515
    82  H    0.062339
    83  H    0.063639
    84  H    0.053839
    85  H    0.045576
    86  H    0.036765
    87  H    0.039726
    88  H    0.042040
    89  H    0.032304
    90  H    0.052745
    91  H    0.033247
    92  H    0.048382
    93  H    0.043824
    94  H    0.036373
    95  H    0.045915
    96  H    0.059511
    97  H    0.072296
    98  H    0.081906
    99  H    0.069722
   100  H    0.048741
   101  H    0.051024
   102  H    0.078704
   103  H    0.048742
   104  H    0.029412
   105  H    0.057387
   106  H    0.042942
   107  H    0.047237
   108  H    0.029492
   109  H    0.025196
   110  H    0.038110
   111  H    0.032541
   112  H    0.019846
   113  H    0.018199
   114  H    0.027103
   115  H    0.022092
   116  H    0.040611
   117  H    0.042647
   118  H    0.021049
   119  H    0.021858
   120  H    0.028966
   121  H    0.029198
   122  H    0.033924
   123  H    0.020560
   124  H    0.031670
   125  H    0.039835
   126  H    0.024113
   127  H    0.036081
   128  H    0.017764
   129  H    0.021297
   130  H    0.032484
   131  H    0.031739
   132  H    0.021622
   133  H    0.027167
   134  H    0.032970
   135  H    0.033324
   136  H    0.042713
   137  H    0.029579
   138  H    0.027405
   139  H    0.047651
   140  H    0.020322
 Sum of Mulliken charges =  -0.00000

 Dipole moment (field-independent basis, Debye):
    X=              0.2886    Y=              5.4753    Z=             -0.8213  Tot=              5.5440
 Quadrupole moment (field-independent basis, Debye-Ang):
   XX=           -395.2654   YY=           -426.5768   ZZ=           -399.8346
   XY=            -50.5050   XZ=            -21.0497   YZ=            -30.8893

 Normal termination of Gaussian 16 at Fri Apr 29 11:05:11 2022.
