 Gaussian 16, Revision A.03,
 Gaussian 16:  ES64L-G16RevA.03 25-Dec-2016

 --------------------------------
 #p wB97XD/Def2SVP td=(nstates=5)
 --------------------------------

 ----------------------------------------------------
 step_251_chromophore_26 TDDFT with wB97XD functional
 ----------------------------------------------------
 Symbolic Z-matrix:
 Charge =  0 Multiplicity = 1

                         Standard orientation:
 ---------------------------------------------------------------------
 Center     Atomic      Atomic             Coordinates (Angstroms)
 Number     Number       Type             X           Y           Z
 ---------------------------------------------------------------------
      1         12           0       -3.820203    1.441146    0.666708
      2          6           0       -4.941392   -1.819918   -0.062324
      3          6           0       -2.181556    0.131539    3.282890
      4          6           0       -2.448051    4.394757    0.938720
      5          6           0       -5.080599    2.352046   -2.550765
      6          7           0       -3.567619   -0.630757    1.468378
      7          6           0       -4.151158   -1.794836    1.096705
      8          6           0       -3.809798   -2.962373    2.000213
      9          6           0       -3.142596   -2.189587    3.207926
     10          6           0       -2.914712   -0.796201    2.659500
     11          6           0       -3.999537   -2.166161    4.540384
     12          6           0       -2.906666   -4.173291    1.501293
     13          6           0       -2.049199   -4.068802    0.212129
     14          6           0       -0.675835   -4.837756    0.175392
     15          8           0       -0.584843   -6.014764    0.469628
     16          8           0        0.276286   -4.019145   -0.259956
     17          7           0       -2.569034    2.168283    2.070731
     18          6           0       -1.915529    1.478387    2.995929
     19          6           0       -0.956710    2.384246    3.685313
     20          6           0       -1.174646    3.724259    3.070477
     21          6           0       -2.091893    3.450698    1.963793
     22          6           0       -0.142877    1.991862    4.888894
     23          6           0       -0.466418    4.996197    3.457294
     24          8           0        0.309384    4.972447    4.409595
     25          6           0       -0.581034    6.370950    2.700955
     26          7           0       -3.668370    3.175273   -0.717078
     27          6           0       -3.178715    4.247234   -0.197213
     28          6           0       -3.428753    5.434736   -1.229905
     29          6           0       -4.041099    4.667543   -2.403626
     30          6           0       -4.277155    3.266409   -1.873507
     31          6           0       -4.258853    6.650900   -0.786456
     32          6           0       -3.033979    4.483263   -3.653611
     33          6           0       -3.409834    5.220370   -4.952095
     34          7           0       -4.741873    0.524192   -1.013771
     35          6           0       -5.297081    1.017732   -2.164722
     36          6           0       -6.155320   -0.007166   -2.813617
     37          6           0       -5.952176   -1.212980   -2.084614
     38          6           0       -5.163347   -0.761459   -0.939709
     39          6           0       -6.924712    0.128006   -4.146614
     40          6           0       -6.219489   -2.607793   -1.969432
     41          8           0       -6.746639   -3.454610   -2.711005
     42          6           0       -5.638407   -3.057706   -0.604826
     43          6           0       -6.807146   -3.618155    0.210809
     44          8           0       -7.127840   -4.736363    0.514773
     45          8           0       -7.461902   -2.537165    0.811036
     46          6           0       -8.577857   -2.841895    1.759527
     47          6           0        1.561904   -4.819775   -0.432233
     48          6           0        2.755917   -4.024588   -0.986028
     49          6           0        2.930188   -3.361503   -2.171425
     50          6           0        1.930134   -3.478375   -3.314173
     51          6           0        4.220926   -2.544104   -2.432044
     52          6           0        3.963576   -1.050404   -2.557230
     53          6           0        5.177346   -0.194432   -2.981049
     54          6           0        5.856875    0.702287   -1.855157
     55          6           0        6.013452    2.120360   -2.444959
     56          6           0        7.198078    0.125757   -1.454977
     57          6           0        7.661849    0.344695   -0.006170
     58          6           0        7.951955   -0.909336    0.798475
     59          6           0        9.396184   -0.952811    1.452913
     60          6           0        9.341430   -1.670443    2.793426
     61          6           0       10.451020   -1.612674    0.497713
     62          6           0       11.892520   -1.121120    0.704028
     63          6           0       12.529058   -0.334742   -0.527435
     64          6           0       13.260493    0.931498   -0.112352
     65          6           0       12.346539    2.126228   -0.324289
     66          6           0       14.556674    0.993962   -0.927506
     67          1           0       -1.652145   -0.323588    4.122781
     68          1           0       -1.996855    5.377471    1.095886
     69          1           0       -5.673115    2.716089   -3.392269
     70          1           0       -4.775482   -3.333878    2.342577
     71          1           0       -2.202907   -2.676189    3.469684
     72          1           0       -4.962995   -2.652772    4.392279
     73          1           0       -4.233281   -1.105564    4.626407
     74          1           0       -3.414926   -2.584427    5.359970
     75          1           0       -3.566904   -5.035229    1.404251
     76          1           0       -2.226623   -4.457763    2.304952
     77          1           0       -1.848833   -3.005483    0.080373
     78          1           0       -2.501307   -4.545326   -0.657169
     79          1           0        0.288495    2.844239    5.413329
     80          1           0        0.560435    1.231636    4.546966
     81          1           0       -0.847254    1.426986    5.500412
     82          1           0       -1.552830    6.819087    2.490457
     83          1           0       -0.165645    6.239408    1.701825
     84          1           0       -0.045455    7.167647    3.216418
     85          1           0       -2.494606    5.918298   -1.513631
     86          1           0       -4.946552    5.055501   -2.871554
     87          1           0       -4.579326    6.566735    0.252087
     88          1           0       -5.108086    6.822623   -1.448679
     89          1           0       -3.698789    7.585955   -0.796843
     90          1           0       -2.945876    3.438890   -3.949840
     91          1           0       -2.062188    4.822820   -3.294597
     92          1           0       -3.125391    4.717842   -5.876906
     93          1           0       -2.839186    6.148662   -4.926438
     94          1           0       -4.493100    5.317068   -4.878396
     95          1           0       -6.652795    0.992718   -4.751068
     96          1           0       -7.965473    0.227348   -3.839291
     97          1           0       -6.844898   -0.818220   -4.681197
     98          1           0       -4.899160   -3.841099   -0.768588
     99          1           0       -9.169121   -3.742737    1.596704
    100          1           0       -9.268751   -2.014185    1.600444
    101          1           0       -8.372671   -2.816007    2.829921
    102          1           0        1.517283   -5.817895   -0.870022
    103          1           0        2.006866   -5.042492    0.538177
    104          1           0        3.639670   -3.998002   -0.346835
    105          1           0        2.148225   -4.263325   -4.039369
    106          1           0        1.762495   -2.567753   -3.890456
    107          1           0        1.003753   -3.772952   -2.822433
    108          1           0        4.689012   -2.917842   -3.342804
    109          1           0        4.980995   -2.707722   -1.669156
    110          1           0        3.612650   -0.706528   -1.584101
    111          1           0        3.267744   -0.890492   -3.380927
    112          1           0        4.826470    0.384311   -3.835684
    113          1           0        5.946828   -0.856703   -3.378567
    114          1           0        5.198824    0.741928   -0.987540
    115          1           0        6.595656    2.698323   -1.727576
    116          1           0        5.037691    2.605559   -2.448699
    117          1           0        6.582336    2.038125   -3.370542
    118          1           0        8.014401    0.410863   -2.118510
    119          1           0        7.114600   -0.952648   -1.592857
    120          1           0        6.948215    0.961859    0.539049
    121          1           0        8.563102    0.952566   -0.090762
    122          1           0        7.712555   -1.886395    0.377606
    123          1           0        7.323758   -0.785824    1.680249
    124          1           0        9.732851    0.083363    1.487334
    125          1           0        9.834030   -1.053614    3.544521
    126          1           0        9.914288   -2.593557    2.706651
    127          1           0        8.353592   -1.998535    3.117093
    128          1           0       10.189971   -1.356581   -0.528340
    129          1           0       10.470382   -2.701982    0.512499
    130          1           0       12.528897   -1.980475    0.914934
    131          1           0       11.866800   -0.447216    1.561143
    132          1           0       11.826216   -0.086918   -1.323868
    133          1           0       13.198822   -1.078791   -0.960152
    134          1           0       13.490132    0.834525    0.949034
    135          1           0       12.408357    2.299972   -1.398668
    136          1           0       12.537354    2.961622    0.349682
    137          1           0       11.303864    1.883620   -0.121235
    138          1           0       14.555426    0.276497   -1.747701
    139          1           0       15.403320    0.800275   -0.269143
    140          1           0       14.519396    1.937186   -1.471999
 ---------------------------------------------------------------------

 SCF Done:  E(RwB97XD) =  -3007.85654072     A.U. after   19 cycles

 Excitation energies and oscillator strengths:

 Excited State   1:      Singlet-A      1.7156 eV  722.70 nm  f=0.3938  <S**2>=0.000
     245 -> 248       -0.19041
     246 -> 247        0.68132
     245 <- 248       -0.11519
 This state for optimization and/or second-order correction.
 Total Energy, E(TD-HF/TD-DFT) =  -3007.79349432
 Copying the excited state density for this state as the 1-particle RhoCI density.

 Excited State   2:      Singlet-A      2.2299 eV  556.02 nm  f=0.0915  <S**2>=0.000
     245 -> 247        0.63497
     246 -> 248        0.29874

 Excited State   3:      Singlet-A      3.3927 eV  365.45 nm  f=0.0200  <S**2>=0.000
     239 -> 247        0.19013
     239 -> 249       -0.14636
     240 -> 247        0.46704
     240 -> 249       -0.33079
     240 -> 250       -0.12948
     241 -> 247       -0.15779
     241 -> 249        0.10147
     246 -> 248       -0.15107

 Excited State   4:      Singlet-A      3.4706 eV  357.24 nm  f=0.0057  <S**2>=0.000
     240 -> 247       -0.13056
     244 -> 247        0.65093
     244 -> 249        0.12376
     246 -> 248       -0.12490

 Excited State   5:      Singlet-A      3.5389 eV  350.35 nm  f=0.4831  <S**2>=0.000
     241 -> 247       -0.29916
     245 -> 247       -0.25299
     246 -> 248        0.55704
     245 <- 247        0.10153

 The electronic state is 1-A.
 Alpha  occ. eigenvalues --  -46.96394 -19.32061 -19.29808 -19.25316 -19.24584
 Alpha  occ. eigenvalues --  -19.24509 -19.23589 -14.46895 -14.46361 -14.45049
 Alpha  occ. eigenvalues --  -14.44699 -10.43712 -10.43061 -10.39752 -10.39564
 Alpha  occ. eigenvalues --  -10.36635 -10.35582 -10.35555 -10.35139 -10.35115
 Alpha  occ. eigenvalues --  -10.34749 -10.34684 -10.34413 -10.34157 -10.34043
 Alpha  occ. eigenvalues --  -10.33802 -10.33033 -10.32852 -10.32839 -10.32037
 Alpha  occ. eigenvalues --  -10.31949 -10.31941 -10.31889 -10.31695 -10.31575
 Alpha  occ. eigenvalues --  -10.31412 -10.31388 -10.31309 -10.31120 -10.31112
 Alpha  occ. eigenvalues --  -10.30959 -10.30439 -10.30388 -10.30351 -10.30318
 Alpha  occ. eigenvalues --  -10.30224 -10.30026 -10.29701 -10.29642 -10.29509
 Alpha  occ. eigenvalues --  -10.29504 -10.29486 -10.29255 -10.29005 -10.28821
 Alpha  occ. eigenvalues --  -10.28587 -10.28440 -10.28405 -10.28360 -10.28276
 Alpha  occ. eigenvalues --  -10.28208 -10.28187 -10.28086 -10.28030 -10.27907
 Alpha  occ. eigenvalues --  -10.27809  -3.22322  -1.95897  -1.95442  -1.95291
 Alpha  occ. eigenvalues --   -1.19763  -1.18184  -1.11752  -1.11611  -1.10440
 Alpha  occ. eigenvalues --   -1.09458  -1.08731  -1.06821  -1.06043  -1.05310
 Alpha  occ. eigenvalues --   -0.95594  -0.91966  -0.91723  -0.91347  -0.90825
 Alpha  occ. eigenvalues --   -0.90716  -0.90566  -0.90207  -0.89358  -0.88895
 Alpha  occ. eigenvalues --   -0.87402  -0.87300  -0.86596  -0.85915  -0.85601
 Alpha  occ. eigenvalues --   -0.84503  -0.84000  -0.82862  -0.82719  -0.82463
 Alpha  occ. eigenvalues --   -0.81795  -0.80587  -0.79861  -0.79514  -0.78663
 Alpha  occ. eigenvalues --   -0.77581  -0.77525  -0.77378  -0.76424  -0.75799
 Alpha  occ. eigenvalues --   -0.75548  -0.74720  -0.74361  -0.72665  -0.71583
 Alpha  occ. eigenvalues --   -0.70617  -0.70186  -0.69735  -0.68787  -0.68161
 Alpha  occ. eigenvalues --   -0.67891  -0.67554  -0.67069  -0.66325  -0.66008
 Alpha  occ. eigenvalues --   -0.65324  -0.65145  -0.65062  -0.64488  -0.62584
 Alpha  occ. eigenvalues --   -0.62203  -0.61489  -0.61196  -0.60676  -0.60132
 Alpha  occ. eigenvalues --   -0.59420  -0.58713  -0.58293  -0.58257  -0.57671
 Alpha  occ. eigenvalues --   -0.57578  -0.56614  -0.56469  -0.56330  -0.55916
 Alpha  occ. eigenvalues --   -0.55688  -0.55559  -0.55515  -0.54981  -0.54927
 Alpha  occ. eigenvalues --   -0.54849  -0.54600  -0.54363  -0.53923  -0.53591
 Alpha  occ. eigenvalues --   -0.53516  -0.53226  -0.53122  -0.53001  -0.52923
 Alpha  occ. eigenvalues --   -0.52514  -0.52132  -0.51770  -0.51503  -0.51315
 Alpha  occ. eigenvalues --   -0.51264  -0.50911  -0.50827  -0.50630  -0.50475
 Alpha  occ. eigenvalues --   -0.50445  -0.50276  -0.50034  -0.49799  -0.49744
 Alpha  occ. eigenvalues --   -0.49501  -0.49401  -0.49227  -0.48954  -0.48850
 Alpha  occ. eigenvalues --   -0.48724  -0.48512  -0.48341  -0.48323  -0.48212
 Alpha  occ. eigenvalues --   -0.48036  -0.47995  -0.47468  -0.47325  -0.47271
 Alpha  occ. eigenvalues --   -0.46975  -0.46743  -0.46524  -0.46112  -0.45938
 Alpha  occ. eigenvalues --   -0.45880  -0.45545  -0.45319  -0.45085  -0.44607
 Alpha  occ. eigenvalues --   -0.44492  -0.44220  -0.44192  -0.44167  -0.43996
 Alpha  occ. eigenvalues --   -0.43972  -0.43835  -0.43302  -0.43188  -0.43121
 Alpha  occ. eigenvalues --   -0.42907  -0.42749  -0.42613  -0.42516  -0.42217
 Alpha  occ. eigenvalues --   -0.41865  -0.41672  -0.41308  -0.41116  -0.40686
 Alpha  occ. eigenvalues --   -0.40291  -0.40188  -0.40120  -0.39908  -0.39617
 Alpha  occ. eigenvalues --   -0.39564  -0.39219  -0.38935  -0.38665  -0.38640
 Alpha  occ. eigenvalues --   -0.37915  -0.37202  -0.37028  -0.36615  -0.36255
 Alpha  occ. eigenvalues --   -0.35845  -0.35757  -0.35699  -0.34078  -0.33463
 Alpha  occ. eigenvalues --   -0.33258  -0.32881  -0.32113  -0.31417  -0.26404
 Alpha  occ. eigenvalues --   -0.23332
 Alpha virt. eigenvalues --   -0.07250  -0.00116   0.01430   0.03856   0.04546
 Alpha virt. eigenvalues --    0.06213   0.07002   0.07888   0.08537   0.09345
 Alpha virt. eigenvalues --    0.10226   0.11148   0.11640   0.11775   0.12191

 Mulliken charges:
               1
     1  Mg   0.958564
     2  C   -0.038193
     3  C   -0.091097
     4  C   -0.036641
     5  C   -0.104137
     6  N   -0.340907
     7  C   -0.033669
     8  C    0.007207
     9  C   -0.159215
    10  C    0.058078
    11  C    0.034295
    12  C    0.025248
    13  C   -0.017098
    14  C    0.185971
    15  O   -0.271452
    16  O   -0.315751
    17  N   -0.476064
    18  C    0.164902
    19  C   -0.173374
    20  C   -0.081637
    21  C    0.167434
    22  C    0.085626
    23  C    0.055355
    24  O   -0.240662
    25  C   -0.026983
    26  N   -0.273708
    27  C    0.045877
    28  C   -0.055806
    29  C   -0.125917
    30  C    0.077309
    31  C    0.014342
    32  C   -0.041728
    33  C   -0.039848
    34  N   -0.401800
    35  C    0.127187
    36  C   -0.186546
    37  C   -0.009173
    38  C    0.160526
    39  C    0.075243
    40  C    0.093682
    41  O   -0.217706
    42  C   -0.084873
    43  C    0.279659
    44  O   -0.208296
    45  O   -0.398256
    46  C    0.134936
    47  C    0.238627
    48  C   -0.177855
    49  C   -0.164751
    50  C    0.020921
    51  C    0.023442
    52  C   -0.034769
    53  C    0.013758
    54  C   -0.176583
    55  C    0.011928
    56  C    0.003704
    57  C   -0.006045
    58  C    0.003683
    59  C   -0.210965
    60  C    0.029323
    61  C    0.006575
    62  C   -0.034153
    63  C   -0.013529
    64  C   -0.237955
    65  C    0.013035
    66  C    0.025369
    67  H   -0.010811
    68  H   -0.054062
    69  H    0.002457
    70  H    0.039828
    71  H    0.036687
    72  H    0.035944
    73  H    0.037652
    74  H    0.055457
    75  H    0.049991
    76  H    0.040240
    77  H    0.062009
    78  H    0.071654
    79  H    0.077472
    80  H    0.040907
    81  H    0.037203
    82  H    0.056632
    83  H    0.056827
    84  H    0.052232
    85  H    0.035213
    86  H    0.023163
    87  H    0.033324
    88  H    0.035964
    89  H    0.026965
    90  H    0.043063
    91  H    0.024911
    92  H    0.043399
    93  H    0.037719
    94  H    0.028307
    95  H    0.042565
    96  H    0.055052
    97  H    0.069596
    98  H    0.071827
    99  H    0.066153
   100  H    0.044562
   101  H    0.047358
   102  H    0.074444
   103  H    0.044039
   104  H    0.025578
   105  H    0.052526
   106  H    0.037761
   107  H    0.039093
   108  H    0.021411
   109  H    0.016298
   110  H    0.028919
   111  H    0.022319
   112  H    0.012798
   113  H    0.007833
   114  H    0.015351
   115  H    0.014727
   116  H    0.035133
   117  H    0.035783
   118  H    0.013340
   119  H    0.005285
   120  H    0.021607
   121  H    0.017018
   122  H    0.025931
   123  H    0.010567
   124  H    0.013845
   125  H    0.034937
   126  H    0.017200
   127  H    0.030922
   128  H    0.003946
   129  H    0.013686
   130  H    0.026137
   131  H    0.018410
   132  H    0.011253
   133  H    0.018094
   134  H    0.022123
   135  H    0.025172
   136  H    0.038403
   137  H    0.018195
   138  H    0.020576
   139  H    0.043343
   140  H    0.013870
 Sum of Mulliken charges =  -0.00000

 Dipole moment (field-independent basis, Debye):
    X=             -0.0661    Y=              5.3017    Z=             -1.1619  Tot=              5.4279
 Quadrupole moment (field-independent basis, Debye-Ang):
   XX=           -391.9944   YY=           -426.8956   ZZ=           -399.9070
   XY=            -49.7575   XZ=            -19.9861   YZ=            -30.7981

 Normal termination of Gaussian 16 at Fri Apr 29 11:35:32 2022.
