 Gaussian 16, Revision A.03,
 Gaussian 16:  ES64L-G16RevA.03 25-Dec-2016

 --------------------
 #p ZINDO=(nstates=5)
 --------------------

 -----------------------------
 step_251_chromophore_26 ZINDO
 -----------------------------
 Symbolic Z-matrix:
 Charge =  0 Multiplicity = 1

                         Standard orientation:
 ---------------------------------------------------------------------
 Center     Atomic      Atomic             Coordinates (Angstroms)
 Number     Number       Type             X           Y           Z
 ---------------------------------------------------------------------
      1         12           0       -3.820203    1.441146    0.666708
      2          6           0       -4.941392   -1.819918   -0.062324
      3          6           0       -2.181556    0.131539    3.282890
      4          6           0       -2.448051    4.394757    0.938720
      5          6           0       -5.080599    2.352046   -2.550765
      6          7           0       -3.567619   -0.630757    1.468378
      7          6           0       -4.151158   -1.794836    1.096705
      8          6           0       -3.809798   -2.962373    2.000213
      9          6           0       -3.142596   -2.189587    3.207926
     10          6           0       -2.914712   -0.796201    2.659500
     11          6           0       -3.999537   -2.166161    4.540384
     12          6           0       -2.906666   -4.173291    1.501293
     13          6           0       -2.049199   -4.068802    0.212129
     14          6           0       -0.675835   -4.837756    0.175392
     15          8           0       -0.584843   -6.014764    0.469628
     16          8           0        0.276286   -4.019145   -0.259956
     17          7           0       -2.569034    2.168283    2.070731
     18          6           0       -1.915529    1.478387    2.995929
     19          6           0       -0.956710    2.384246    3.685313
     20          6           0       -1.174646    3.724259    3.070477
     21          6           0       -2.091893    3.450698    1.963793
     22          6           0       -0.142877    1.991862    4.888894
     23          6           0       -0.466418    4.996197    3.457294
     24          8           0        0.309384    4.972447    4.409595
     25          6           0       -0.581034    6.370950    2.700955
     26          7           0       -3.668370    3.175273   -0.717078
     27          6           0       -3.178715    4.247234   -0.197213
     28          6           0       -3.428753    5.434736   -1.229905
     29          6           0       -4.041099    4.667543   -2.403626
     30          6           0       -4.277155    3.266409   -1.873507
     31          6           0       -4.258853    6.650900   -0.786456
     32          6           0       -3.033979    4.483263   -3.653611
     33          6           0       -3.409834    5.220370   -4.952095
     34          7           0       -4.741873    0.524192   -1.013771
     35          6           0       -5.297081    1.017732   -2.164722
     36          6           0       -6.155320   -0.007166   -2.813617
     37          6           0       -5.952176   -1.212980   -2.084614
     38          6           0       -5.163347   -0.761459   -0.939709
     39          6           0       -6.924712    0.128006   -4.146614
     40          6           0       -6.219489   -2.607793   -1.969432
     41          8           0       -6.746639   -3.454610   -2.711005
     42          6           0       -5.638407   -3.057706   -0.604826
     43          6           0       -6.807146   -3.618155    0.210809
     44          8           0       -7.127840   -4.736363    0.514773
     45          8           0       -7.461902   -2.537165    0.811036
     46          6           0       -8.577857   -2.841895    1.759527
     47          6           0        1.561904   -4.819775   -0.432233
     48          6           0        2.755917   -4.024588   -0.986028
     49          6           0        2.930188   -3.361503   -2.171425
     50          6           0        1.930134   -3.478375   -3.314173
     51          6           0        4.220926   -2.544104   -2.432044
     52          6           0        3.963576   -1.050404   -2.557230
     53          6           0        5.177346   -0.194432   -2.981049
     54          6           0        5.856875    0.702287   -1.855157
     55          6           0        6.013452    2.120360   -2.444959
     56          6           0        7.198078    0.125757   -1.454977
     57          6           0        7.661849    0.344695   -0.006170
     58          6           0        7.951955   -0.909336    0.798475
     59          6           0        9.396184   -0.952811    1.452913
     60          6           0        9.341430   -1.670443    2.793426
     61          6           0       10.451020   -1.612674    0.497713
     62          6           0       11.892520   -1.121120    0.704028
     63          6           0       12.529058   -0.334742   -0.527435
     64          6           0       13.260493    0.931498   -0.112352
     65          6           0       12.346539    2.126228   -0.324289
     66          6           0       14.556674    0.993962   -0.927506
     67          1           0       -1.652145   -0.323588    4.122781
     68          1           0       -1.996855    5.377471    1.095886
     69          1           0       -5.673115    2.716089   -3.392269
     70          1           0       -4.775482   -3.333878    2.342577
     71          1           0       -2.202907   -2.676189    3.469684
     72          1           0       -4.962995   -2.652772    4.392279
     73          1           0       -4.233281   -1.105564    4.626407
     74          1           0       -3.414926   -2.584427    5.359970
     75          1           0       -3.566904   -5.035229    1.404251
     76          1           0       -2.226623   -4.457763    2.304952
     77          1           0       -1.848833   -3.005483    0.080373
     78          1           0       -2.501307   -4.545326   -0.657169
     79          1           0        0.288495    2.844239    5.413329
     80          1           0        0.560435    1.231636    4.546966
     81          1           0       -0.847254    1.426986    5.500412
     82          1           0       -1.552830    6.819087    2.490457
     83          1           0       -0.165645    6.239408    1.701825
     84          1           0       -0.045455    7.167647    3.216418
     85          1           0       -2.494606    5.918298   -1.513631
     86          1           0       -4.946552    5.055501   -2.871554
     87          1           0       -4.579326    6.566735    0.252087
     88          1           0       -5.108086    6.822623   -1.448679
     89          1           0       -3.698789    7.585955   -0.796843
     90          1           0       -2.945876    3.438890   -3.949840
     91          1           0       -2.062188    4.822820   -3.294597
     92          1           0       -3.125391    4.717842   -5.876906
     93          1           0       -2.839186    6.148662   -4.926438
     94          1           0       -4.493100    5.317068   -4.878396
     95          1           0       -6.652795    0.992718   -4.751068
     96          1           0       -7.965473    0.227348   -3.839291
     97          1           0       -6.844898   -0.818220   -4.681197
     98          1           0       -4.899160   -3.841099   -0.768588
     99          1           0       -9.169121   -3.742737    1.596704
    100          1           0       -9.268751   -2.014185    1.600444
    101          1           0       -8.372671   -2.816007    2.829921
    102          1           0        1.517283   -5.817895   -0.870022
    103          1           0        2.006866   -5.042492    0.538177
    104          1           0        3.639670   -3.998002   -0.346835
    105          1           0        2.148225   -4.263325   -4.039369
    106          1           0        1.762495   -2.567753   -3.890456
    107          1           0        1.003753   -3.772952   -2.822433
    108          1           0        4.689012   -2.917842   -3.342804
    109          1           0        4.980995   -2.707722   -1.669156
    110          1           0        3.612650   -0.706528   -1.584101
    111          1           0        3.267744   -0.890492   -3.380927
    112          1           0        4.826470    0.384311   -3.835684
    113          1           0        5.946828   -0.856703   -3.378567
    114          1           0        5.198824    0.741928   -0.987540
    115          1           0        6.595656    2.698323   -1.727576
    116          1           0        5.037691    2.605559   -2.448699
    117          1           0        6.582336    2.038125   -3.370542
    118          1           0        8.014401    0.410863   -2.118510
    119          1           0        7.114600   -0.952648   -1.592857
    120          1           0        6.948215    0.961859    0.539049
    121          1           0        8.563102    0.952566   -0.090762
    122          1           0        7.712555   -1.886395    0.377606
    123          1           0        7.323758   -0.785824    1.680249
    124          1           0        9.732851    0.083363    1.487334
    125          1           0        9.834030   -1.053614    3.544521
    126          1           0        9.914288   -2.593557    2.706651
    127          1           0        8.353592   -1.998535    3.117093
    128          1           0       10.189971   -1.356581   -0.528340
    129          1           0       10.470382   -2.701982    0.512499
    130          1           0       12.528897   -1.980475    0.914934
    131          1           0       11.866800   -0.447216    1.561143
    132          1           0       11.826216   -0.086918   -1.323868
    133          1           0       13.198822   -1.078791   -0.960152
    134          1           0       13.490132    0.834525    0.949034
    135          1           0       12.408357    2.299972   -1.398668
    136          1           0       12.537354    2.961622    0.349682
    137          1           0       11.303864    1.883620   -0.121235
    138          1           0       14.555426    0.276497   -1.747701
    139          1           0       15.403320    0.800275   -0.269143
    140          1           0       14.519396    1.937186   -1.471999
 ---------------------------------------------------------------------

 SCF Done:  E(RZINDO/S) =  -474.282670838     A.U. after   19 cycles

 Excitation energies and oscillator strengths:

 Excited State   1:      Singlet-A      1.2969 eV  956.00 nm  f=0.6223  <S**2>=0.000
     175 ->178        -0.19570
     176 ->177         0.66186
 This state for optimization and/or second-order correction.
 Total Energy, E(CIS/TDA) =  -474.235010357
 Copying the excited state density for this state as the 1-particle RhoCI density.

 Excited State   2:      Singlet-A      1.9463 eV  637.02 nm  f=0.0266  <S**2>=0.000
     175 ->177         0.53090
     176 ->178         0.44096

 Excited State   3:      Singlet-A      2.8629 eV  433.07 nm  f=0.0167  <S**2>=0.000
     168 ->177         0.37807
     168 ->178        -0.12313
     168 ->179        -0.44520
     168 ->181         0.16573
     168 ->186        -0.18839
     168 ->195         0.12257

 Excited State   4:      Singlet-A      2.9441 eV  421.13 nm  f=0.2221  <S**2>=0.000
     175 ->177        -0.21393
     176 ->178         0.31637
     176 ->179         0.55664

 Excited State   5:      Singlet-A      2.9892 eV  414.78 nm  f=0.4084  <S**2>=0.000
     170 ->177         0.14456
     170 ->179         0.15918
     170 ->181         0.27449
     170 ->186         0.12134
     174 ->177         0.12125
     175 ->177         0.24016
     176 ->178        -0.29075
     176 ->179         0.22404
     176 ->180         0.26775

 The electronic state is 1-A.
 Alpha  occ. eigenvalues --   -1.85590  -1.83557  -1.81340  -1.73387  -1.72054
 Alpha  occ. eigenvalues --   -1.70866  -1.65161  -1.61591  -1.58890  -1.57518
 Alpha  occ. eigenvalues --   -1.55737  -1.51109  -1.48378  -1.47813  -1.47330
 Alpha  occ. eigenvalues --   -1.44070  -1.43068  -1.40800  -1.39107  -1.38676
 Alpha  occ. eigenvalues --   -1.35894  -1.33812  -1.33297  -1.31489  -1.30006
 Alpha  occ. eigenvalues --   -1.28168  -1.27827  -1.22395  -1.21249  -1.18907
 Alpha  occ. eigenvalues --   -1.16932  -1.16070  -1.14793  -1.13757  -1.13119
 Alpha  occ. eigenvalues --   -1.12101  -1.10514  -1.10337  -1.07214  -1.04737
 Alpha  occ. eigenvalues --   -1.03138  -1.01853  -1.00255  -0.98492  -0.96268
 Alpha  occ. eigenvalues --   -0.95869  -0.94392  -0.93398  -0.92622  -0.92510
 Alpha  occ. eigenvalues --   -0.91385  -0.91243  -0.89758  -0.88653  -0.86741
 Alpha  occ. eigenvalues --   -0.85992  -0.85233  -0.83798  -0.82960  -0.81338
 Alpha  occ. eigenvalues --   -0.79390  -0.78913  -0.77547  -0.77158  -0.76585
 Alpha  occ. eigenvalues --   -0.75984  -0.75374  -0.74984  -0.74282  -0.73734
 Alpha  occ. eigenvalues --   -0.73228  -0.73016  -0.72209  -0.71458  -0.70997
 Alpha  occ. eigenvalues --   -0.70455  -0.70083  -0.69655  -0.69323  -0.68118
 Alpha  occ. eigenvalues --   -0.67656  -0.66956  -0.65868  -0.65533  -0.65214
 Alpha  occ. eigenvalues --   -0.65034  -0.64747  -0.63703  -0.63277  -0.63040
 Alpha  occ. eigenvalues --   -0.62965  -0.62676  -0.62450  -0.62264  -0.62021
 Alpha  occ. eigenvalues --   -0.61379  -0.61107  -0.60857  -0.60484  -0.60101
 Alpha  occ. eigenvalues --   -0.59712  -0.59607  -0.59304  -0.58756  -0.58249
 Alpha  occ. eigenvalues --   -0.58210  -0.58034  -0.57530  -0.56987  -0.56802
 Alpha  occ. eigenvalues --   -0.56603  -0.56246  -0.55976  -0.55346  -0.54815
 Alpha  occ. eigenvalues --   -0.54648  -0.53908  -0.53793  -0.53680  -0.53243
 Alpha  occ. eigenvalues --   -0.52583  -0.52533  -0.52207  -0.51628  -0.51545
 Alpha  occ. eigenvalues --   -0.51310  -0.51091  -0.50973  -0.50673  -0.50562
 Alpha  occ. eigenvalues --   -0.50003  -0.49784  -0.49771  -0.49641  -0.49263
 Alpha  occ. eigenvalues --   -0.49158  -0.48700  -0.48552  -0.48356  -0.48035
 Alpha  occ. eigenvalues --   -0.47729  -0.47521  -0.47033  -0.46987  -0.46826
 Alpha  occ. eigenvalues --   -0.46695  -0.46460  -0.45785  -0.45769  -0.45555
 Alpha  occ. eigenvalues --   -0.45081  -0.45078  -0.44930  -0.44357  -0.44285
 Alpha  occ. eigenvalues --   -0.43862  -0.42847  -0.42819  -0.42652  -0.42529
 Alpha  occ. eigenvalues --   -0.42399  -0.42180  -0.41337  -0.40047  -0.38973
 Alpha  occ. eigenvalues --   -0.38632  -0.37312  -0.36334  -0.35581  -0.35071
 Alpha  occ. eigenvalues --   -0.34342  -0.33584  -0.32457  -0.31639  -0.27282
 Alpha  occ. eigenvalues --   -0.22253
 Alpha virt. eigenvalues --   -0.08886  -0.02655  -0.01540   0.00616   0.00981
 Alpha virt. eigenvalues --    0.02074   0.02308   0.02776   0.04299   0.04367
 Alpha virt. eigenvalues --    0.06188   0.06331   0.06769   0.07276   0.07729

 Mulliken charges:
               1
     1  Mg   0.436813
     2  C   -0.063002
     3  C   -0.063363
     4  C   -0.074722
     5  C   -0.075810
     6  N   -0.298417
     7  C    0.153801
     8  C    0.002331
     9  C   -0.007684
    10  C    0.119418
    11  C   -0.057641
    12  C   -0.018643
    13  C   -0.001183
    14  C    0.469869
    15  O   -0.523164
    16  O   -0.239850
    17  N   -0.294899
    18  C    0.099329
    19  C    0.008976
    20  C   -0.066941
    21  C    0.096730
    22  C   -0.035815
    23  C    0.326418
    24  O   -0.524769
    25  C   -0.031559
    26  N   -0.249259
    27  C    0.116826
    28  C   -0.001802
    29  C   -0.002178
    30  C    0.155144
    31  C   -0.052754
    32  C   -0.039811
    33  C   -0.061580
    34  N   -0.329749
    35  C    0.114131
    36  C    0.044245
    37  C   -0.052970
    38  C    0.130418
    39  C   -0.039082
    40  C    0.340973
    41  O   -0.519667
    42  C    0.055893
    43  C    0.485091
    44  O   -0.490460
    45  O   -0.286878
    46  C    0.072274
    47  C    0.095504
    48  C   -0.100514
    49  C   -0.003006
    50  C   -0.043038
    51  C   -0.016465
    52  C   -0.030138
    53  C   -0.046076
    54  C   -0.009077
    55  C   -0.057600
    56  C   -0.030738
    57  C   -0.031069
    58  C   -0.039286
    59  C   -0.013697
    60  C   -0.053409
    61  C   -0.038863
    62  C   -0.045031
    63  C   -0.036873
    64  C   -0.007893
    65  C   -0.055358
    66  C   -0.061016
    67  H    0.016388
    68  H    0.030071
    69  H    0.029859
    70  H    0.037737
    71  H    0.027501
    72  H    0.024834
    73  H    0.025788
    74  H    0.032482
    75  H    0.027167
    76  H    0.030782
    77  H    0.033128
    78  H    0.050707
    79  H    0.054238
    80  H    0.031388
    81  H    0.023610
    82  H    0.031041
    83  H    0.031178
    84  H    0.034518
    85  H    0.028094
    86  H    0.032029
    87  H    0.020654
    88  H    0.021093
    89  H    0.015658
    90  H    0.022164
    91  H    0.019738
    92  H    0.023490
    93  H    0.021257
    94  H    0.024579
    95  H    0.031090
    96  H    0.035328
    97  H    0.041573
    98  H    0.057534
    99  H    0.053402
   100  H    0.021462
   101  H    0.041265
   102  H    0.067077
   103  H    0.035205
   104  H    0.026120
   105  H    0.032196
   106  H    0.024665
   107  H    0.020702
   108  H    0.018960
   109  H    0.019647
   110  H    0.025970
   111  H    0.020096
   112  H    0.014107
   113  H    0.016110
   114  H    0.025186
   115  H    0.007376
   116  H    0.021317
   117  H    0.029973
   118  H    0.018566
   119  H    0.008082
   120  H    0.019129
   121  H    0.014706
   122  H    0.029929
   123  H    0.006694
   124  H    0.025568
   125  H    0.018489
   126  H    0.013793
   127  H    0.023800
   128  H    0.008814
   129  H    0.018193
   130  H    0.018847
   131  H    0.019275
   132  H    0.022066
   133  H    0.009945
   134  H    0.018452
   135  H    0.024059
   136  H    0.021275
   137  H    0.009564
   138  H    0.016992
   139  H    0.025983
   140  H    0.018860
 Sum of Mulliken charges =  -0.00000

 Dipole moment (field-independent basis, Debye):
    X=             -1.5136    Y=              7.1279    Z=             -3.5629  Tot=              8.1112
 N-N= 4.466019524102D+03 E-N= 0.000000000000D+00  KE=-9.605475884460D+03
 Leave Link  601 at Fri Apr 29 11:52:48 2022, MaxMem=  6710886400 cpu:               1.1 elap:               0.1
 (Enter /sw/apps/gaussian-16.0/g16/l9999.exe)
 1\1\GINC-BP1-COMPUTE142\SP\RZINDO CIS\STO-3G\C55H74Mg1N4O6\OF15641\29-
 Apr-2022\0\\#p ZINDO=(nstates=5)\\step_251_chromophore_26 ZINDO\\0,1\M
 g,0,-9.266,18.277,42.965\C,0,-5.811,17.58,42.981\C,0,-8.474,21.429,42.
 139\C,0,-12.475,18.67,42.487\C,0,-9.752,14.741,43.141\N,0,-7.344,19.34
 6,42.562\C,0,-6.062,18.93,42.693\C,0,-5.04,20.022,42.45\C,0,-5.985,21.
 29,42.459\C,0,-7.377,20.7,42.367\C,0,-5.826,22.232,43.723\C,0,-4.082,2
 0.007,41.18\C,0,-4.366,19.091,39.96\C,0,-3.965,19.619,38.532\O,0,-2.85

 Normal termination of Gaussian 16 at Fri Apr 29 11:52:48 2022.
