 Gaussian 16, Revision A.03,
 Gaussian 16:  ES64L-G16RevA.03 25-Dec-2016

 ------------------------------
 #p blyp/Def2SVP td=(nstates=5)
 ------------------------------

 ---------------------------------------------------
 step_1751_chromophore_15 TDDFT with blyp functional
 ---------------------------------------------------
 Symbolic Z-matrix:
 Charge =  0 Multiplicity = 1

                         Standard orientation:
 ---------------------------------------------------------------------
 Center     Atomic      Atomic             Coordinates (Angstroms)
 Number     Number       Type             X           Y           Z
 ---------------------------------------------------------------------
      1         12           0       -4.591489    1.011142    0.163643
      2          6           0       -4.224200   -2.391340    0.585237
      3          6           0       -1.356463    1.325122   -0.073429
      4          6           0       -5.180725    4.321203   -0.165954
      5          6           0       -8.177754    0.509185    0.545991
      6          7           0       -3.048113   -0.392448    0.093831
      7          6           0       -3.111947   -1.710591    0.241256
      8          6           0       -1.708837   -2.262339   -0.005023
      9          6           0       -0.791922   -1.080637    0.431441
     10          6           0       -1.803843    0.040665    0.077066
     11          6           0       -0.453249   -1.078464    1.955859
     12          6           0       -1.491221   -2.726433   -1.488886
     13          6           0       -0.457748   -3.855872   -1.809861
     14          6           0        0.644869   -4.160691   -0.819817
     15          8           0        0.619351   -4.990063    0.083739
     16          8           0        1.710222   -3.473035   -1.221812
     17          7           0       -3.500841    2.608100   -0.214526
     18          6           0       -2.134271    2.518567   -0.262979
     19          6           0       -1.572664    3.818091   -0.633871
     20          6           0       -2.691202    4.696670   -0.561780
     21          6           0       -3.869113    3.880835   -0.253109
     22          6           0        0.007401    4.045636   -0.805867
     23          6           0       -2.728558    6.175052   -0.759702
     24          8           0       -3.768163    6.834107   -0.701487
     25          6           0       -1.584517    6.883150   -1.126781
     26          7           0       -6.512010    2.259893    0.002113
     27          6           0       -6.390593    3.575800   -0.105685
     28          6           0       -7.768468    4.272201   -0.053608
     29          6           0       -8.786316    3.086395    0.281210
     30          6           0       -7.823675    1.866724    0.278552
     31          6           0       -7.916858    5.477200    0.951924
     32          6           0       -9.981996    2.994331   -0.726006
     33          6           0      -11.288285    2.423571   -0.120969
     34          7           0       -5.953618   -0.532800    0.418940
     35          6           0       -7.319838   -0.625776    0.555788
     36          6           0       -7.771609   -2.050697    0.709004
     37          6           0       -6.581211   -2.640654    0.862374
     38          6           0       -5.495138   -1.741945    0.612716
     39          6           0       -9.094934   -2.597967    0.781916
     40          6           0       -6.026795   -3.909385    1.148197
     41          8           0       -6.571815   -5.018711    1.359984
     42          6           0       -4.472959   -3.768653    1.127468
     43          6           0       -3.892621   -4.901954    0.416151
     44          8           0       -4.121426   -5.149081   -0.773549
     45          8           0       -3.082372   -5.632861    1.297749
     46          6           0       -2.686645   -7.012224    1.085085
     47          6           0        2.982435   -4.040953   -0.851994
     48          6           0        4.050185   -3.648139   -1.873141
     49          6           0        5.406454   -3.521761   -1.688095
     50          6           0        6.082500   -3.742495   -0.280464
     51          6           0        6.411959   -3.076961   -2.810676
     52          6           0        6.456004   -1.581288   -3.111699
     53          6           0        7.718943   -0.893929   -2.431409
     54          6           0        8.060339    0.474413   -3.046047
     55          6           0        8.761962    0.416982   -4.405676
     56          6           0        8.738413    1.391081   -2.023255
     57          6           0       10.275499    0.999042   -1.761843
     58          6           0       11.124786    2.201417   -1.460301
     59          6           0       11.223982    2.613815    0.035996
     60          6           0       11.971032    3.926125    0.146122
     61          6           0       11.963846    1.507294    0.888328
     62          6           0       10.961994    0.768289    1.869339
     63          6           0       10.613891    1.566583    3.233883
     64          6           0       10.659595    0.753834    4.523817
     65          6           0        9.571299    1.160543    5.563874
     66          6           0       12.082606    0.880349    5.264117
     67          1           0       -0.280274    1.450667   -0.210923
     68          1           0       -5.430027    5.383189   -0.221588
     69          1           0       -9.197403    0.300776    0.877747
     70          1           0       -1.426488   -3.105387    0.625987
     71          1           0        0.040066   -1.045774   -0.271503
     72          1           0       -0.420929   -0.059815    2.341608
     73          1           0        0.564200   -1.465227    2.006420
     74          1           0       -1.197665   -1.648568    2.511502
     75          1           0       -1.220434   -1.774110   -1.947070
     76          1           0       -2.458163   -3.143606   -1.770765
     77          1           0        0.011022   -3.792610   -2.791594
     78          1           0       -1.101608   -4.733978   -1.767370
     79          1           0        0.654276    3.243504   -0.452939
     80          1           0        0.297857    4.941044   -0.256758
     81          1           0        0.268458    4.261823   -1.842174
     82          1           0       -1.261701    6.346898   -2.019052
     83          1           0       -0.841197    6.907537   -0.329660
     84          1           0       -1.856600    7.915706   -1.346975
     85          1           0       -7.911184    4.650447   -1.065555
     86          1           0       -9.124381    3.228464    1.306948
     87          1           0       -6.974167    5.637122    1.474757
     88          1           0       -8.582838    5.244809    1.783146
     89          1           0       -8.152960    6.402948    0.426544
     90          1           0       -9.628263    2.263771   -1.453558
     91          1           0      -10.171065    3.962081   -1.189138
     92          1           0      -12.124750    3.120184   -0.173468
     93          1           0      -11.125309    2.116422    0.911779
     94          1           0      -11.632570    1.546382   -0.667951
     95          1           0       -9.100349   -3.683710    0.694039
     96          1           0       -9.743405   -2.244789   -0.021047
     97          1           0       -9.567698   -2.272661    1.708401
     98          1           0       -4.166451   -3.878204    2.168213
     99          1           0       -1.668907   -6.929544    1.466399
    100          1           0       -2.561039   -7.407044    0.076048
    101          1           0       -3.218405   -7.786751    1.637670
    102          1           0        3.079866   -5.122680   -0.760326
    103          1           0        3.297358   -3.508176    0.044514
    104          1           0        3.718535   -3.300137   -2.851281
    105          1           0        6.793980   -4.565137   -0.350478
    106          1           0        5.396965   -4.008069    0.523954
    107          1           0        6.729511   -2.903866   -0.024036
    108          1           0        6.176209   -3.552741   -3.762009
    109          1           0        7.392073   -3.394616   -2.453979
    110          1           0        5.599233   -1.052054   -2.694341
    111          1           0        6.514886   -1.360719   -4.177924
    112          1           0        8.528220   -1.623369   -2.469828
    113          1           0        7.472407   -0.672599   -1.393060
    114          1           0        7.063193    0.876235   -3.227993
    115          1           0        8.614590   -0.586352   -4.806512
    116          1           0        9.826458    0.632048   -4.308321
    117          1           0        8.337763    1.105156   -5.136295
    118          1           0        8.232251    1.402165   -1.058119
    119          1           0        8.777974    2.415852   -2.394721
    120          1           0       10.859298    0.449177   -2.498345
    121          1           0       10.131731    0.290860   -0.945853
    122          1           0       10.574971    2.986744   -1.979742
    123          1           0       12.097261    2.172565   -1.952605
    124          1           0       10.195440    2.872679    0.287774
    125          1           0       11.280523    4.701619    0.476035
    126          1           0       12.323036    4.207733   -0.846621
    127          1           0       12.855075    3.901210    0.783017
    128          1           0       12.759168    2.024085    1.426369
    129          1           0       12.294712    0.790238    0.137760
    130          1           0       11.391716   -0.200275    2.125086
    131          1           0       10.045975    0.572064    1.312261
    132          1           0        9.660985    2.055256    3.033130
    133          1           0       11.312195    2.402683    3.265159
    134          1           0       10.553709   -0.313600    4.328872
    135          1           0        8.834464    1.796746    5.074934
    136          1           0       10.078502    1.792337    6.293110
    137          1           0        9.056541    0.334861    6.055911
    138          1           0       12.653556    1.767111    4.989705
    139          1           0       12.809419    0.107695    5.014372
    140          1           0       12.101247    0.965410    6.350385
 ---------------------------------------------------------------------

 SCF Done:  E(RB-LYP) =  -3007.37191095     A.U. after   20 cycles

 Excitation energies and oscillator strengths:

 Excited State   1:      Singlet-A      1.8048 eV  686.99 nm  f=0.1984  <S**2>=0.000
     243 -> 247        0.15773
     244 -> 247       -0.30718
     245 -> 247        0.18558
     245 -> 248        0.13897
     246 -> 247        0.57641
     246 <- 247       -0.12259
 This state for optimization and/or second-order correction.
 Total Energy, E(TD-HF/TD-DFT) =  -3007.30558750
 Copying the excited state density for this state as the 1-particle RhoCI density.

 Excited State   2:      Singlet-A      1.8380 eV  674.54 nm  f=0.0801  <S**2>=0.000
     244 -> 247        0.62507
     246 -> 247        0.31734

 Excited State   3:      Singlet-A      1.9007 eV  652.31 nm  f=0.0691  <S**2>=0.000
     243 -> 247        0.52501
     245 -> 247        0.39738
     246 -> 247       -0.21479

 Excited State   4:      Singlet-A      2.1150 eV  586.23 nm  f=0.0538  <S**2>=0.000
     243 -> 247       -0.43058
     245 -> 247        0.48353
     246 -> 248       -0.24107
     246 -> 249       -0.10039

 Excited State   5:      Singlet-A      2.4323 eV  509.73 nm  f=0.0002  <S**2>=0.000
     242 -> 247        0.70700

 The electronic state is 1-A.
 Alpha  occ. eigenvalues --  -46.26558 -18.83219 -18.81481 -18.77125 -18.76430
 Alpha  occ. eigenvalues --  -18.75132 -18.74566 -14.02990 -14.02666 -14.01343
 Alpha  occ. eigenvalues --  -14.01254 -10.04200 -10.03533  -9.98848  -9.98842
 Alpha  occ. eigenvalues --   -9.98564  -9.96805  -9.96559  -9.95921  -9.95919
 Alpha  occ. eigenvalues --   -9.95879  -9.95795  -9.95753  -9.95522  -9.94651
 Alpha  occ. eigenvalues --   -9.94423  -9.94191  -9.94102  -9.93858  -9.93583
 Alpha  occ. eigenvalues --   -9.93550  -9.93227  -9.93160  -9.93147  -9.93143
 Alpha  occ. eigenvalues --   -9.93119  -9.93051  -9.92987  -9.92946  -9.92873
 Alpha  occ. eigenvalues --   -9.92801  -9.92716  -9.92658  -9.92631  -9.92449
 Alpha  occ. eigenvalues --   -9.92419  -9.92171  -9.92134  -9.92113  -9.91946
 Alpha  occ. eigenvalues --   -9.91857  -9.91783  -9.91780  -9.91628  -9.91616
 Alpha  occ. eigenvalues --   -9.91585  -9.91552  -9.91542  -9.91325  -9.91142
 Alpha  occ. eigenvalues --   -9.91129  -9.90965  -9.90934  -9.90831  -9.90318
 Alpha  occ. eigenvalues --   -9.90238  -2.91439  -1.71864  -1.71299  -1.71181
 Alpha  occ. eigenvalues --   -1.00049  -0.95749  -0.91029  -0.90564  -0.89598
 Alpha  occ. eigenvalues --   -0.88848  -0.88476  -0.87085  -0.86661  -0.84908
 Alpha  occ. eigenvalues --   -0.75777  -0.73692  -0.72907  -0.72421  -0.72278
 Alpha  occ. eigenvalues --   -0.71672  -0.71467  -0.71134  -0.70736  -0.70476
 Alpha  occ. eigenvalues --   -0.70163  -0.69488  -0.68125  -0.67439  -0.67088
 Alpha  occ. eigenvalues --   -0.66485  -0.66350  -0.65558  -0.65015  -0.64850
 Alpha  occ. eigenvalues --   -0.64342  -0.63044  -0.62497  -0.61631  -0.61259
 Alpha  occ. eigenvalues --   -0.60663  -0.59815  -0.59801  -0.59719  -0.59228
 Alpha  occ. eigenvalues --   -0.58568  -0.58027  -0.56725  -0.55649  -0.54501
 Alpha  occ. eigenvalues --   -0.54077  -0.53920  -0.52923  -0.52594  -0.52229
 Alpha  occ. eigenvalues --   -0.51837  -0.51236  -0.50938  -0.50556  -0.50290
 Alpha  occ. eigenvalues --   -0.49883  -0.49298  -0.48538  -0.47904  -0.47102
 Alpha  occ. eigenvalues --   -0.46868  -0.46225  -0.45757  -0.45143  -0.44287
 Alpha  occ. eigenvalues --   -0.44059  -0.43584  -0.43350  -0.42729  -0.42139
 Alpha  occ. eigenvalues --   -0.41908  -0.41803  -0.41760  -0.41392  -0.41110
 Alpha  occ. eigenvalues --   -0.41061  -0.40789  -0.40643  -0.40325  -0.40070
 Alpha  occ. eigenvalues --   -0.39793  -0.39768  -0.39554  -0.39063  -0.38916
 Alpha  occ. eigenvalues --   -0.38742  -0.38589  -0.38482  -0.38410  -0.38252
 Alpha  occ. eigenvalues --   -0.37974  -0.37705  -0.37639  -0.37565  -0.37181
 Alpha  occ. eigenvalues --   -0.36965  -0.36837  -0.36711  -0.36426  -0.36338
 Alpha  occ. eigenvalues --   -0.36278  -0.36047  -0.35937  -0.35881  -0.35603
 Alpha  occ. eigenvalues --   -0.35501  -0.35353  -0.35171  -0.35085  -0.34885
 Alpha  occ. eigenvalues --   -0.34712  -0.34502  -0.34284  -0.34180  -0.34167
 Alpha  occ. eigenvalues --   -0.34128  -0.33799  -0.33410  -0.33197  -0.33156
 Alpha  occ. eigenvalues --   -0.32792  -0.32633  -0.32489  -0.32360  -0.32324
 Alpha  occ. eigenvalues --   -0.31830  -0.31701  -0.31650  -0.31575  -0.31554
 Alpha  occ. eigenvalues --   -0.31512  -0.31203  -0.30858  -0.30747  -0.30657
 Alpha  occ. eigenvalues --   -0.30093  -0.30068  -0.29818  -0.29759  -0.29580
 Alpha  occ. eigenvalues --   -0.29481  -0.29344  -0.29323  -0.29033  -0.28914
 Alpha  occ. eigenvalues --   -0.28860  -0.28682  -0.28475  -0.28153  -0.27901
 Alpha  occ. eigenvalues --   -0.27805  -0.27408  -0.27259  -0.26628  -0.26581
 Alpha  occ. eigenvalues --   -0.26514  -0.26335  -0.26328  -0.25571  -0.25437
 Alpha  occ. eigenvalues --   -0.25271  -0.25090  -0.24116  -0.24088  -0.23578
 Alpha  occ. eigenvalues --   -0.22951  -0.22445  -0.21959  -0.21561  -0.21333
 Alpha  occ. eigenvalues --   -0.20992  -0.20255  -0.18369  -0.17955  -0.17210
 Alpha  occ. eigenvalues --   -0.15623
 Alpha virt. eigenvalues --   -0.11317  -0.06757  -0.05790  -0.04465  -0.03403
 Alpha virt. eigenvalues --   -0.03098  -0.02334  -0.01614  -0.00890   0.00192
 Alpha virt. eigenvalues --    0.01140   0.01858   0.01997   0.02775   0.03233

 Mulliken charges:
               1
     1  Mg   0.709364
     2  C    0.033195
     3  C   -0.067729
     4  C   -0.058035
     5  C   -0.068836
     6  N   -0.191883
     7  C   -0.080486
     8  C   -0.064235
     9  C   -0.013949
    10  C    0.015558
    11  C    0.166536
    12  C    0.125886
    13  C    0.165971
    14  C    0.045895
    15  O   -0.196806
    16  O   -0.245195
    17  N   -0.310264
    18  C    0.132639
    19  C   -0.128837
    20  C    0.037705
    21  C    0.144495
    22  C    0.144112
    23  C   -0.106376
    24  O   -0.178416
    25  C    0.168604
    26  N   -0.166877
    27  C   -0.032532
    28  C   -0.008353
    29  C    0.038907
    30  C   -0.010743
    31  C    0.124839
    32  C    0.100525
    33  C    0.060347
    34  N   -0.205672
    35  C    0.069339
    36  C   -0.189627
    37  C    0.150891
    38  C    0.050922
    39  C    0.184954
    40  C   -0.083888
    41  O   -0.167070
    42  C    0.141003
    43  C    0.113729
    44  O   -0.190327
    45  O   -0.287527
    46  C    0.208801
    47  C    0.326974
    48  C   -0.120412
    49  C   -0.160738
    50  C    0.110149
    51  C    0.169651
    52  C    0.069188
    53  C    0.029972
    54  C   -0.017651
    55  C    0.121630
    56  C    0.084513
    57  C    0.039843
    58  C    0.082599
    59  C   -0.094068
    60  C    0.126413
    61  C    0.130617
    62  C    0.036924
    63  C    0.110829
    64  C   -0.056988
    65  C    0.102804
    66  C    0.065126
    67  H   -0.070874
    68  H   -0.042672
    69  H   -0.063989
    70  H   -0.027886
    71  H   -0.040086
    72  H   -0.015705
    73  H    0.000011
    74  H    0.007841
    75  H   -0.017293
    76  H    0.005932
    77  H   -0.002150
    78  H   -0.001730
    79  H    0.000256
    80  H   -0.005792
    81  H    0.004262
    82  H    0.005884
    83  H    0.010193
    84  H   -0.010442
    85  H   -0.012923
    86  H   -0.020043
    87  H   -0.010139
    88  H   -0.014321
    89  H    0.001643
    90  H   -0.015275
    91  H   -0.009948
    92  H   -0.008904
    93  H   -0.005028
    94  H   -0.010503
    95  H    0.011291
    96  H   -0.011463
    97  H    0.004212
    98  H   -0.004156
    99  H    0.017267
   100  H    0.012031
   101  H    0.019098
   102  H    0.027819
   103  H    0.004535
   104  H   -0.039534
   105  H   -0.006315
   106  H   -0.008449
   107  H   -0.001346
   108  H   -0.022186
   109  H   -0.035656
   110  H   -0.022849
   111  H   -0.026402
   112  H   -0.027426
   113  H   -0.030896
   114  H   -0.051459
   115  H   -0.023144
   116  H   -0.015126
   117  H   -0.017506
   118  H   -0.023865
   119  H   -0.037562
   120  H   -0.023129
   121  H   -0.029825
   122  H   -0.046466
   123  H   -0.036466
   124  H   -0.041396
   125  H   -0.020249
   126  H   -0.031529
   127  H   -0.021605
   128  H   -0.022210
   129  H   -0.028790
   130  H   -0.031134
   131  H   -0.021305
   132  H   -0.033122
   133  H   -0.033254
   134  H   -0.023428
   135  H   -0.028339
   136  H   -0.016943
   137  H   -0.005442
   138  H   -0.029106
   139  H   -0.020322
   140  H   -0.015102
 Sum of Mulliken charges =  -0.00000

 Dipole moment (field-independent basis, Debye):
    X=              4.2440    Y=              2.7649    Z=              0.0102  Tot=              5.0652
 Quadrupole moment (field-independent basis, Debye-Ang):
   XX=           -383.7987   YY=           -439.0148   ZZ=           -403.3509
   XY=            -27.4542   XZ=             -9.0961   YZ=              3.4864

 Normal termination of Gaussian 16 at Thu Apr 28 22:22:46 2022.
