 Gaussian 16, Revision A.03,
 Gaussian 16:  ES64L-G16RevA.03 25-Dec-2016

 -----------------------------------
 #p cam-b3lyp/Def2SVP td=(nstates=5)
 -----------------------------------

 --------------------------------------------------------
 step_1751_chromophore_15 TDDFT with cam-b3lyp functional
 --------------------------------------------------------
 Symbolic Z-matrix:
 Charge =  0 Multiplicity = 1

                         Standard orientation:
 ---------------------------------------------------------------------
 Center     Atomic      Atomic             Coordinates (Angstroms)
 Number     Number       Type             X           Y           Z
 ---------------------------------------------------------------------
      1         12           0       -4.591489    1.011142    0.163643
      2          6           0       -4.224200   -2.391340    0.585237
      3          6           0       -1.356463    1.325122   -0.073429
      4          6           0       -5.180725    4.321203   -0.165954
      5          6           0       -8.177754    0.509185    0.545991
      6          7           0       -3.048113   -0.392448    0.093831
      7          6           0       -3.111947   -1.710591    0.241256
      8          6           0       -1.708837   -2.262339   -0.005023
      9          6           0       -0.791922   -1.080637    0.431441
     10          6           0       -1.803843    0.040665    0.077066
     11          6           0       -0.453249   -1.078464    1.955859
     12          6           0       -1.491221   -2.726433   -1.488886
     13          6           0       -0.457748   -3.855872   -1.809861
     14          6           0        0.644869   -4.160691   -0.819817
     15          8           0        0.619351   -4.990063    0.083739
     16          8           0        1.710222   -3.473035   -1.221812
     17          7           0       -3.500841    2.608100   -0.214526
     18          6           0       -2.134271    2.518567   -0.262979
     19          6           0       -1.572664    3.818091   -0.633871
     20          6           0       -2.691202    4.696670   -0.561780
     21          6           0       -3.869113    3.880835   -0.253109
     22          6           0        0.007401    4.045636   -0.805867
     23          6           0       -2.728558    6.175052   -0.759702
     24          8           0       -3.768163    6.834107   -0.701487
     25          6           0       -1.584517    6.883150   -1.126781
     26          7           0       -6.512010    2.259893    0.002113
     27          6           0       -6.390593    3.575800   -0.105685
     28          6           0       -7.768468    4.272201   -0.053608
     29          6           0       -8.786316    3.086395    0.281210
     30          6           0       -7.823675    1.866724    0.278552
     31          6           0       -7.916858    5.477200    0.951924
     32          6           0       -9.981996    2.994331   -0.726006
     33          6           0      -11.288285    2.423571   -0.120969
     34          7           0       -5.953618   -0.532800    0.418940
     35          6           0       -7.319838   -0.625776    0.555788
     36          6           0       -7.771609   -2.050697    0.709004
     37          6           0       -6.581211   -2.640654    0.862374
     38          6           0       -5.495138   -1.741945    0.612716
     39          6           0       -9.094934   -2.597967    0.781916
     40          6           0       -6.026795   -3.909385    1.148197
     41          8           0       -6.571815   -5.018711    1.359984
     42          6           0       -4.472959   -3.768653    1.127468
     43          6           0       -3.892621   -4.901954    0.416151
     44          8           0       -4.121426   -5.149081   -0.773549
     45          8           0       -3.082372   -5.632861    1.297749
     46          6           0       -2.686645   -7.012224    1.085085
     47          6           0        2.982435   -4.040953   -0.851994
     48          6           0        4.050185   -3.648139   -1.873141
     49          6           0        5.406454   -3.521761   -1.688095
     50          6           0        6.082500   -3.742495   -0.280464
     51          6           0        6.411959   -3.076961   -2.810676
     52          6           0        6.456004   -1.581288   -3.111699
     53          6           0        7.718943   -0.893929   -2.431409
     54          6           0        8.060339    0.474413   -3.046047
     55          6           0        8.761962    0.416982   -4.405676
     56          6           0        8.738413    1.391081   -2.023255
     57          6           0       10.275499    0.999042   -1.761843
     58          6           0       11.124786    2.201417   -1.460301
     59          6           0       11.223982    2.613815    0.035996
     60          6           0       11.971032    3.926125    0.146122
     61          6           0       11.963846    1.507294    0.888328
     62          6           0       10.961994    0.768289    1.869339
     63          6           0       10.613891    1.566583    3.233883
     64          6           0       10.659595    0.753834    4.523817
     65          6           0        9.571299    1.160543    5.563874
     66          6           0       12.082606    0.880349    5.264117
     67          1           0       -0.280274    1.450667   -0.210923
     68          1           0       -5.430027    5.383189   -0.221588
     69          1           0       -9.197403    0.300776    0.877747
     70          1           0       -1.426488   -3.105387    0.625987
     71          1           0        0.040066   -1.045774   -0.271503
     72          1           0       -0.420929   -0.059815    2.341608
     73          1           0        0.564200   -1.465227    2.006420
     74          1           0       -1.197665   -1.648568    2.511502
     75          1           0       -1.220434   -1.774110   -1.947070
     76          1           0       -2.458163   -3.143606   -1.770765
     77          1           0        0.011022   -3.792610   -2.791594
     78          1           0       -1.101608   -4.733978   -1.767370
     79          1           0        0.654276    3.243504   -0.452939
     80          1           0        0.297857    4.941044   -0.256758
     81          1           0        0.268458    4.261823   -1.842174
     82          1           0       -1.261701    6.346898   -2.019052
     83          1           0       -0.841197    6.907537   -0.329660
     84          1           0       -1.856600    7.915706   -1.346975
     85          1           0       -7.911184    4.650447   -1.065555
     86          1           0       -9.124381    3.228464    1.306948
     87          1           0       -6.974167    5.637122    1.474757
     88          1           0       -8.582838    5.244809    1.783146
     89          1           0       -8.152960    6.402948    0.426544
     90          1           0       -9.628263    2.263771   -1.453558
     91          1           0      -10.171065    3.962081   -1.189138
     92          1           0      -12.124750    3.120184   -0.173468
     93          1           0      -11.125309    2.116422    0.911779
     94          1           0      -11.632570    1.546382   -0.667951
     95          1           0       -9.100349   -3.683710    0.694039
     96          1           0       -9.743405   -2.244789   -0.021047
     97          1           0       -9.567698   -2.272661    1.708401
     98          1           0       -4.166451   -3.878204    2.168213
     99          1           0       -1.668907   -6.929544    1.466399
    100          1           0       -2.561039   -7.407044    0.076048
    101          1           0       -3.218405   -7.786751    1.637670
    102          1           0        3.079866   -5.122680   -0.760326
    103          1           0        3.297358   -3.508176    0.044514
    104          1           0        3.718535   -3.300137   -2.851281
    105          1           0        6.793980   -4.565137   -0.350478
    106          1           0        5.396965   -4.008069    0.523954
    107          1           0        6.729511   -2.903866   -0.024036
    108          1           0        6.176209   -3.552741   -3.762009
    109          1           0        7.392073   -3.394616   -2.453979
    110          1           0        5.599233   -1.052054   -2.694341
    111          1           0        6.514886   -1.360719   -4.177924
    112          1           0        8.528220   -1.623369   -2.469828
    113          1           0        7.472407   -0.672599   -1.393060
    114          1           0        7.063193    0.876235   -3.227993
    115          1           0        8.614590   -0.586352   -4.806512
    116          1           0        9.826458    0.632048   -4.308321
    117          1           0        8.337763    1.105156   -5.136295
    118          1           0        8.232251    1.402165   -1.058119
    119          1           0        8.777974    2.415852   -2.394721
    120          1           0       10.859298    0.449177   -2.498345
    121          1           0       10.131731    0.290860   -0.945853
    122          1           0       10.574971    2.986744   -1.979742
    123          1           0       12.097261    2.172565   -1.952605
    124          1           0       10.195440    2.872679    0.287774
    125          1           0       11.280523    4.701619    0.476035
    126          1           0       12.323036    4.207733   -0.846621
    127          1           0       12.855075    3.901210    0.783017
    128          1           0       12.759168    2.024085    1.426369
    129          1           0       12.294712    0.790238    0.137760
    130          1           0       11.391716   -0.200275    2.125086
    131          1           0       10.045975    0.572064    1.312261
    132          1           0        9.660985    2.055256    3.033130
    133          1           0       11.312195    2.402683    3.265159
    134          1           0       10.553709   -0.313600    4.328872
    135          1           0        8.834464    1.796746    5.074934
    136          1           0       10.078502    1.792337    6.293110
    137          1           0        9.056541    0.334861    6.055911
    138          1           0       12.653556    1.767111    4.989705
    139          1           0       12.809419    0.107695    5.014372
    140          1           0       12.101247    0.965410    6.350385
 ---------------------------------------------------------------------

 SCF Done:  E(RCAM-B3LYP) =  -3007.17214980     A.U. after   16 cycles

 Excitation energies and oscillator strengths:

 Excited State   1:      Singlet-A      1.7080 eV  725.91 nm  f=0.3828  <S**2>=0.000
     245 -> 248        0.17523
     246 -> 247        0.68567
     245 <- 248        0.10570
 This state for optimization and/or second-order correction.
 Total Energy, E(TD-HF/TD-DFT) =  -3007.10938300
 Copying the excited state density for this state as the 1-particle RhoCI density.

 Excited State   2:      Singlet-A      2.3054 eV  537.80 nm  f=0.0940  <S**2>=0.000
     245 -> 247        0.62865
     246 -> 248       -0.31152

 Excited State   3:      Singlet-A      3.4671 eV  357.60 nm  f=0.1149  <S**2>=0.000
     241 -> 247        0.16722
     241 -> 249        0.13886
     242 -> 247       -0.10882
     243 -> 247        0.45738
     243 -> 249        0.26860
     243 -> 250       -0.14234
     245 -> 247        0.12269
     246 -> 248        0.27621

 Excited State   4:      Singlet-A      3.4967 eV  354.58 nm  f=0.0399  <S**2>=0.000
     242 -> 247        0.52896
     242 -> 248        0.15551
     242 -> 249       -0.23279
     242 -> 250       -0.22866
     243 -> 247        0.16901
     246 -> 248       -0.14576

 Excited State   5:      Singlet-A      3.5567 eV  348.59 nm  f=0.5733  <S**2>=0.000
     240 -> 247        0.12740
     241 -> 247        0.11254
     241 -> 249       -0.10377
     242 -> 247        0.18158
     243 -> 247       -0.23063
     245 -> 247        0.26185
     246 -> 248        0.52509

 The electronic state is 1-A.
 Alpha  occ. eigenvalues --  -46.88053 -19.26081 -19.24334 -19.20046 -19.19492
 Alpha  occ. eigenvalues --  -19.18151 -19.17937 -14.41655 -14.41599 -14.39802
 Alpha  occ. eigenvalues --  -14.39774 -10.39375 -10.39036 -10.34070 -10.33829
 Alpha  occ. eigenvalues --  -10.32870 -10.30807 -10.30680 -10.30532 -10.30317
 Alpha  occ. eigenvalues --  -10.30290 -10.30253 -10.29942 -10.29795 -10.29504
 Alpha  occ. eigenvalues --  -10.28625 -10.28372 -10.28331 -10.27766 -10.27542
 Alpha  occ. eigenvalues --  -10.27538 -10.27535 -10.27440 -10.27332 -10.27298
 Alpha  occ. eigenvalues --  -10.27186 -10.27044 -10.26997 -10.26872 -10.26692
 Alpha  occ. eigenvalues --  -10.26600 -10.26586 -10.26500 -10.26377 -10.26370
 Alpha  occ. eigenvalues --  -10.26287 -10.25896 -10.25866 -10.25846 -10.25777
 Alpha  occ. eigenvalues --  -10.25642 -10.25642 -10.25548 -10.25394 -10.25385
 Alpha  occ. eigenvalues --  -10.25370 -10.25306 -10.25301 -10.25299 -10.24858
 Alpha  occ. eigenvalues --  -10.24762 -10.24606 -10.24537 -10.24533 -10.24096
 Alpha  occ. eigenvalues --  -10.23932  -3.16852  -1.91747  -1.91278  -1.91205
 Alpha  occ. eigenvalues --   -1.18507  -1.14177  -1.09603  -1.08440  -1.07740
 Alpha  occ. eigenvalues --   -1.06772  -1.06242  -1.04642  -1.04416  -1.02511
 Alpha  occ. eigenvalues --   -0.92837  -0.90590  -0.89691  -0.89153  -0.88990
 Alpha  occ. eigenvalues --   -0.88353  -0.88139  -0.87710  -0.87310  -0.87258
 Alpha  occ. eigenvalues --   -0.86783  -0.85795  -0.84421  -0.83639  -0.83333
 Alpha  occ. eigenvalues --   -0.82739  -0.82404  -0.81442  -0.80869  -0.80668
 Alpha  occ. eigenvalues --   -0.80161  -0.78845  -0.78139  -0.77100  -0.76638
 Alpha  occ. eigenvalues --   -0.76050  -0.75120  -0.75106  -0.75009  -0.74504
 Alpha  occ. eigenvalues --   -0.73629  -0.73053  -0.71615  -0.70450  -0.69058
 Alpha  occ. eigenvalues --   -0.68751  -0.68557  -0.67439  -0.67013  -0.66617
 Alpha  occ. eigenvalues --   -0.65918  -0.65330  -0.64845  -0.64598  -0.64261
 Alpha  occ. eigenvalues --   -0.63905  -0.63264  -0.62116  -0.61695  -0.60810
 Alpha  occ. eigenvalues --   -0.60573  -0.59704  -0.59276  -0.58517  -0.57795
 Alpha  occ. eigenvalues --   -0.57344  -0.56973  -0.56484  -0.55800  -0.55619
 Alpha  occ. eigenvalues --   -0.55349  -0.54916  -0.54640  -0.54132  -0.53997
 Alpha  occ. eigenvalues --   -0.53814  -0.53761  -0.53549  -0.53087  -0.53028
 Alpha  occ. eigenvalues --   -0.52585  -0.52294  -0.52220  -0.51907  -0.51370
 Alpha  occ. eigenvalues --   -0.51299  -0.51005  -0.50903  -0.50864  -0.50663
 Alpha  occ. eigenvalues --   -0.50373  -0.50242  -0.49948  -0.49840  -0.49562
 Alpha  occ. eigenvalues --   -0.49372  -0.49215  -0.49169  -0.48717  -0.48598
 Alpha  occ. eigenvalues --   -0.48457  -0.48341  -0.48233  -0.47897  -0.47809
 Alpha  occ. eigenvalues --   -0.47606  -0.47429  -0.47309  -0.46953  -0.46804
 Alpha  occ. eigenvalues --   -0.46613  -0.46370  -0.46275  -0.46118  -0.46083
 Alpha  occ. eigenvalues --   -0.45928  -0.45568  -0.45268  -0.44817  -0.44781
 Alpha  occ. eigenvalues --   -0.44543  -0.44324  -0.44216  -0.44044  -0.43814
 Alpha  occ. eigenvalues --   -0.43774  -0.43495  -0.43336  -0.43089  -0.43012
 Alpha  occ. eigenvalues --   -0.42895  -0.42721  -0.42357  -0.42200  -0.42003
 Alpha  occ. eigenvalues --   -0.41526  -0.41349  -0.41263  -0.41183  -0.40991
 Alpha  occ. eigenvalues --   -0.40863  -0.40700  -0.40479  -0.40418  -0.40084
 Alpha  occ. eigenvalues --   -0.39959  -0.39754  -0.39643  -0.39102  -0.39005
 Alpha  occ. eigenvalues --   -0.38746  -0.38257  -0.38192  -0.37811  -0.37345
 Alpha  occ. eigenvalues --   -0.37209  -0.37017  -0.36998  -0.36865  -0.36047
 Alpha  occ. eigenvalues --   -0.35949  -0.35814  -0.35508  -0.34494  -0.34065
 Alpha  occ. eigenvalues --   -0.33872  -0.33734  -0.32768  -0.31625  -0.31013
 Alpha  occ. eigenvalues --   -0.30808  -0.30621  -0.30072  -0.29923  -0.24087
 Alpha  occ. eigenvalues --   -0.20841
 Alpha virt. eigenvalues --   -0.08328  -0.01529   0.00695   0.02459   0.03237
 Alpha virt. eigenvalues --    0.04452   0.04792   0.05141   0.05607   0.06561
 Alpha virt. eigenvalues --    0.07971   0.08378   0.08812   0.09247   0.09381

 Mulliken charges:
               1
     1  Mg   0.847282
     2  C   -0.000345
     3  C   -0.082087
     4  C   -0.072754
     5  C   -0.069762
     6  N   -0.271462
     7  C   -0.032660
     8  C   -0.118291
     9  C   -0.067778
    10  C    0.030604
    11  C    0.109945
    12  C    0.082966
    13  C    0.098610
    14  C    0.121211
    15  O   -0.237745
    16  O   -0.306944
    17  N   -0.403491
    18  C    0.142549
    19  C   -0.131997
    20  C   -0.035034
    21  C    0.164985
    22  C    0.095835
    23  C   -0.018447
    24  O   -0.220102
    25  C    0.075294
    26  N   -0.233666
    27  C   -0.005063
    28  C   -0.063225
    29  C   -0.011581
    30  C    0.003147
    31  C    0.062262
    32  C    0.043971
    33  C   -0.001849
    34  N   -0.294655
    35  C    0.069456
    36  C   -0.173618
    37  C    0.057967
    38  C    0.086157
    39  C    0.122620
    40  C    0.020311
    41  O   -0.208035
    42  C    0.062604
    43  C    0.204815
    44  O   -0.226855
    45  O   -0.353788
    46  C    0.173444
    47  C    0.291520
    48  C   -0.136623
    49  C   -0.185234
    50  C    0.051301
    51  C    0.107549
    52  C    0.016540
    53  C   -0.015132
    54  C   -0.080913
    55  C    0.063578
    56  C    0.039955
    57  C   -0.017898
    58  C    0.028133
    59  C   -0.147329
    60  C    0.066961
    61  C    0.075662
    62  C   -0.009844
    63  C    0.059056
    64  C   -0.121132
    65  C    0.044816
    66  C    0.007423
    67  H   -0.037077
    68  H    0.000963
    69  H   -0.028006
    70  H    0.007352
    71  H   -0.003403
    72  H    0.010479
    73  H    0.024344
    74  H    0.031250
    75  H    0.009956
    76  H    0.037669
    77  H    0.031135
    78  H    0.028830
    79  H    0.028052
    80  H    0.018894
    81  H    0.030974
    82  H    0.032748
    83  H    0.038999
    84  H    0.027816
    85  H    0.021062
    86  H    0.012404
    87  H    0.015272
    88  H    0.011115
    89  H    0.026339
    90  H    0.014500
    91  H    0.017549
    92  H    0.015664
    93  H    0.015290
    94  H    0.013310
    95  H    0.041282
    96  H    0.015669
    97  H    0.030206
    98  H    0.041544
    99  H    0.039913
   100  H    0.035501
   101  H    0.039297
   102  H    0.056692
   103  H    0.030228
   104  H   -0.005358
   105  H    0.018280
   106  H    0.015663
   107  H    0.020826
   108  H    0.009702
   109  H   -0.005230
   110  H    0.005755
   111  H    0.001656
   112  H   -0.001835
   113  H   -0.005297
   114  H   -0.017330
   115  H    0.000438
   116  H    0.008532
   117  H    0.008070
   118  H    0.003152
   119  H   -0.009299
   120  H    0.005509
   121  H   -0.005038
   122  H   -0.017109
   123  H   -0.006193
   124  H   -0.011689
   125  H    0.004404
   126  H   -0.005595
   127  H    0.002819
   128  H    0.004316
   129  H    0.000828
   130  H   -0.003049
   131  H    0.001617
   132  H   -0.005069
   133  H   -0.006782
   134  H    0.007924
   135  H   -0.003889
   136  H    0.006286
   137  H    0.018735
   138  H   -0.005671
   139  H    0.003783
   140  H    0.009137
 Sum of Mulliken charges =  -0.00000

 Dipole moment (field-independent basis, Debye):
    X=              4.7772    Y=              3.4301    Z=             -0.0935  Tot=              5.8819
 Quadrupole moment (field-independent basis, Debye-Ang):
   XX=           -383.3382   YY=           -435.3858   ZZ=           -403.2213
   XY=            -28.3395   XZ=             -9.6766   YZ=              3.1715

 Normal termination of Gaussian 16 at Thu Apr 28 20:56:22 2022.
