 Gaussian 16, Revision A.03,
 Gaussian 16:  ES64L-G16RevA.03 25-Dec-2016

 ---------------------------------
 #p PBE1PBE/Def2SVP td=(nstates=5)
 ---------------------------------

 ------------------------------------------------------
 step_1751_chromophore_15 TDDFT with PBE1PBE functional
 ------------------------------------------------------
 Symbolic Z-matrix:
 Charge =  0 Multiplicity = 1

                         Standard orientation:
 ---------------------------------------------------------------------
 Center     Atomic      Atomic             Coordinates (Angstroms)
 Number     Number       Type             X           Y           Z
 ---------------------------------------------------------------------
      1         12           0       -4.591489    1.011142    0.163643
      2          6           0       -4.224200   -2.391340    0.585237
      3          6           0       -1.356463    1.325122   -0.073429
      4          6           0       -5.180725    4.321203   -0.165954
      5          6           0       -8.177754    0.509185    0.545991
      6          7           0       -3.048113   -0.392448    0.093831
      7          6           0       -3.111947   -1.710591    0.241256
      8          6           0       -1.708837   -2.262339   -0.005023
      9          6           0       -0.791922   -1.080637    0.431441
     10          6           0       -1.803843    0.040665    0.077066
     11          6           0       -0.453249   -1.078464    1.955859
     12          6           0       -1.491221   -2.726433   -1.488886
     13          6           0       -0.457748   -3.855872   -1.809861
     14          6           0        0.644869   -4.160691   -0.819817
     15          8           0        0.619351   -4.990063    0.083739
     16          8           0        1.710222   -3.473035   -1.221812
     17          7           0       -3.500841    2.608100   -0.214526
     18          6           0       -2.134271    2.518567   -0.262979
     19          6           0       -1.572664    3.818091   -0.633871
     20          6           0       -2.691202    4.696670   -0.561780
     21          6           0       -3.869113    3.880835   -0.253109
     22          6           0        0.007401    4.045636   -0.805867
     23          6           0       -2.728558    6.175052   -0.759702
     24          8           0       -3.768163    6.834107   -0.701487
     25          6           0       -1.584517    6.883150   -1.126781
     26          7           0       -6.512010    2.259893    0.002113
     27          6           0       -6.390593    3.575800   -0.105685
     28          6           0       -7.768468    4.272201   -0.053608
     29          6           0       -8.786316    3.086395    0.281210
     30          6           0       -7.823675    1.866724    0.278552
     31          6           0       -7.916858    5.477200    0.951924
     32          6           0       -9.981996    2.994331   -0.726006
     33          6           0      -11.288285    2.423571   -0.120969
     34          7           0       -5.953618   -0.532800    0.418940
     35          6           0       -7.319838   -0.625776    0.555788
     36          6           0       -7.771609   -2.050697    0.709004
     37          6           0       -6.581211   -2.640654    0.862374
     38          6           0       -5.495138   -1.741945    0.612716
     39          6           0       -9.094934   -2.597967    0.781916
     40          6           0       -6.026795   -3.909385    1.148197
     41          8           0       -6.571815   -5.018711    1.359984
     42          6           0       -4.472959   -3.768653    1.127468
     43          6           0       -3.892621   -4.901954    0.416151
     44          8           0       -4.121426   -5.149081   -0.773549
     45          8           0       -3.082372   -5.632861    1.297749
     46          6           0       -2.686645   -7.012224    1.085085
     47          6           0        2.982435   -4.040953   -0.851994
     48          6           0        4.050185   -3.648139   -1.873141
     49          6           0        5.406454   -3.521761   -1.688095
     50          6           0        6.082500   -3.742495   -0.280464
     51          6           0        6.411959   -3.076961   -2.810676
     52          6           0        6.456004   -1.581288   -3.111699
     53          6           0        7.718943   -0.893929   -2.431409
     54          6           0        8.060339    0.474413   -3.046047
     55          6           0        8.761962    0.416982   -4.405676
     56          6           0        8.738413    1.391081   -2.023255
     57          6           0       10.275499    0.999042   -1.761843
     58          6           0       11.124786    2.201417   -1.460301
     59          6           0       11.223982    2.613815    0.035996
     60          6           0       11.971032    3.926125    0.146122
     61          6           0       11.963846    1.507294    0.888328
     62          6           0       10.961994    0.768289    1.869339
     63          6           0       10.613891    1.566583    3.233883
     64          6           0       10.659595    0.753834    4.523817
     65          6           0        9.571299    1.160543    5.563874
     66          6           0       12.082606    0.880349    5.264117
     67          1           0       -0.280274    1.450667   -0.210923
     68          1           0       -5.430027    5.383189   -0.221588
     69          1           0       -9.197403    0.300776    0.877747
     70          1           0       -1.426488   -3.105387    0.625987
     71          1           0        0.040066   -1.045774   -0.271503
     72          1           0       -0.420929   -0.059815    2.341608
     73          1           0        0.564200   -1.465227    2.006420
     74          1           0       -1.197665   -1.648568    2.511502
     75          1           0       -1.220434   -1.774110   -1.947070
     76          1           0       -2.458163   -3.143606   -1.770765
     77          1           0        0.011022   -3.792610   -2.791594
     78          1           0       -1.101608   -4.733978   -1.767370
     79          1           0        0.654276    3.243504   -0.452939
     80          1           0        0.297857    4.941044   -0.256758
     81          1           0        0.268458    4.261823   -1.842174
     82          1           0       -1.261701    6.346898   -2.019052
     83          1           0       -0.841197    6.907537   -0.329660
     84          1           0       -1.856600    7.915706   -1.346975
     85          1           0       -7.911184    4.650447   -1.065555
     86          1           0       -9.124381    3.228464    1.306948
     87          1           0       -6.974167    5.637122    1.474757
     88          1           0       -8.582838    5.244809    1.783146
     89          1           0       -8.152960    6.402948    0.426544
     90          1           0       -9.628263    2.263771   -1.453558
     91          1           0      -10.171065    3.962081   -1.189138
     92          1           0      -12.124750    3.120184   -0.173468
     93          1           0      -11.125309    2.116422    0.911779
     94          1           0      -11.632570    1.546382   -0.667951
     95          1           0       -9.100349   -3.683710    0.694039
     96          1           0       -9.743405   -2.244789   -0.021047
     97          1           0       -9.567698   -2.272661    1.708401
     98          1           0       -4.166451   -3.878204    2.168213
     99          1           0       -1.668907   -6.929544    1.466399
    100          1           0       -2.561039   -7.407044    0.076048
    101          1           0       -3.218405   -7.786751    1.637670
    102          1           0        3.079866   -5.122680   -0.760326
    103          1           0        3.297358   -3.508176    0.044514
    104          1           0        3.718535   -3.300137   -2.851281
    105          1           0        6.793980   -4.565137   -0.350478
    106          1           0        5.396965   -4.008069    0.523954
    107          1           0        6.729511   -2.903866   -0.024036
    108          1           0        6.176209   -3.552741   -3.762009
    109          1           0        7.392073   -3.394616   -2.453979
    110          1           0        5.599233   -1.052054   -2.694341
    111          1           0        6.514886   -1.360719   -4.177924
    112          1           0        8.528220   -1.623369   -2.469828
    113          1           0        7.472407   -0.672599   -1.393060
    114          1           0        7.063193    0.876235   -3.227993
    115          1           0        8.614590   -0.586352   -4.806512
    116          1           0        9.826458    0.632048   -4.308321
    117          1           0        8.337763    1.105156   -5.136295
    118          1           0        8.232251    1.402165   -1.058119
    119          1           0        8.777974    2.415852   -2.394721
    120          1           0       10.859298    0.449177   -2.498345
    121          1           0       10.131731    0.290860   -0.945853
    122          1           0       10.574971    2.986744   -1.979742
    123          1           0       12.097261    2.172565   -1.952605
    124          1           0       10.195440    2.872679    0.287774
    125          1           0       11.280523    4.701619    0.476035
    126          1           0       12.323036    4.207733   -0.846621
    127          1           0       12.855075    3.901210    0.783017
    128          1           0       12.759168    2.024085    1.426369
    129          1           0       12.294712    0.790238    0.137760
    130          1           0       11.391716   -0.200275    2.125086
    131          1           0       10.045975    0.572064    1.312261
    132          1           0        9.660985    2.055256    3.033130
    133          1           0       11.312195    2.402683    3.265159
    134          1           0       10.553709   -0.313600    4.328872
    135          1           0        8.834464    1.796746    5.074934
    136          1           0       10.078502    1.792337    6.293110
    137          1           0        9.056541    0.334861    6.055911
    138          1           0       12.653556    1.767111    4.989705
    139          1           0       12.809419    0.107695    5.014372
    140          1           0       12.101247    0.965410    6.350385
 ---------------------------------------------------------------------

 SCF Done:  E(RPBE1PBE) =  -3005.35954261     A.U. after   15 cycles

 Excitation energies and oscillator strengths:

 Excited State   1:      Singlet-A      1.8643 eV  665.04 nm  f=0.3744  <S**2>=0.000
     245 -> 248        0.16616
     246 -> 247        0.69296
     246 <- 247       -0.10697
 This state for optimization and/or second-order correction.
 Total Energy, E(TD-HF/TD-DFT) =  -3005.29103087
 Copying the excited state density for this state as the 1-particle RhoCI density.

 Excited State   2:      Singlet-A      2.2946 eV  540.33 nm  f=0.0972  <S**2>=0.000
     245 -> 247        0.64298
     246 -> 248       -0.27795

 Excited State   3:      Singlet-A      2.9630 eV  418.44 nm  f=0.0003  <S**2>=0.000
     243 -> 247        0.54459
     243 -> 249       -0.11541
     243 -> 250       -0.10855
     244 -> 247        0.39486

 Excited State   4:      Singlet-A      2.9845 eV  415.43 nm  f=0.0020  <S**2>=0.000
     242 -> 247       -0.10305
     243 -> 247       -0.37672
     244 -> 247        0.52936
     244 -> 249        0.16622
     246 -> 248        0.10258

 Excited State   5:      Singlet-A      3.3688 eV  368.04 nm  f=0.3469  <S**2>=0.000
     241 -> 247        0.33303
     245 -> 247        0.21520
     245 -> 250       -0.10212
     246 -> 248        0.54404
     246 -> 249       -0.10261

 The electronic state is 1-A.
 Alpha  occ. eigenvalues --  -46.91451 -19.26762 -19.25044 -19.20344 -19.19741
 Alpha  occ. eigenvalues --  -19.18511 -19.18038 -14.41202 -14.41076 -14.39434
 Alpha  occ. eigenvalues --  -14.39364 -10.36422 -10.36064 -10.31308 -10.30770
 Alpha  occ. eigenvalues --  -10.30276 -10.28743 -10.28078 -10.28007 -10.27998
 Alpha  occ. eigenvalues --  -10.27926 -10.27909 -10.27745 -10.27529 -10.27112
 Alpha  occ. eigenvalues --  -10.26401 -10.26100 -10.25698 -10.25669 -10.25379
 Alpha  occ. eigenvalues --  -10.25342 -10.25233 -10.25101 -10.25082 -10.24925
 Alpha  occ. eigenvalues --  -10.24875 -10.24826 -10.24656 -10.24399 -10.24367
 Alpha  occ. eigenvalues --  -10.24156 -10.24098 -10.24066 -10.24041 -10.24012
 Alpha  occ. eigenvalues --  -10.23745 -10.23539 -10.23434 -10.23416 -10.23241
 Alpha  occ. eigenvalues --  -10.23240 -10.23136 -10.23111 -10.22993 -10.22967
 Alpha  occ. eigenvalues --  -10.22878 -10.22853 -10.22830 -10.22546 -10.22439
 Alpha  occ. eigenvalues --  -10.22149 -10.22105 -10.22026 -10.21922 -10.21906
 Alpha  occ. eigenvalues --  -10.21320  -3.13823  -1.86662  -1.86170  -1.86101
 Alpha  occ. eigenvalues --   -1.13368  -1.08957  -1.04183  -1.03311  -1.02536
 Alpha  occ. eigenvalues --   -1.01618  -1.00919  -0.99442  -0.99028  -0.97127
 Alpha  occ. eigenvalues --   -0.87286  -0.84676  -0.83837  -0.83424  -0.83285
 Alpha  occ. eigenvalues --   -0.82499  -0.82440  -0.82018  -0.81445  -0.81400
 Alpha  occ. eigenvalues --   -0.81082  -0.80036  -0.78666  -0.77901  -0.77562
 Alpha  occ. eigenvalues --   -0.76917  -0.76598  -0.75773  -0.75078  -0.75051
 Alpha  occ. eigenvalues --   -0.74325  -0.73090  -0.72365  -0.71445  -0.70999
 Alpha  occ. eigenvalues --   -0.70176  -0.69396  -0.69218  -0.69196  -0.68650
 Alpha  occ. eigenvalues --   -0.68010  -0.67475  -0.66058  -0.64786  -0.63479
 Alpha  occ. eigenvalues --   -0.63122  -0.62862  -0.61837  -0.61268  -0.60797
 Alpha  occ. eigenvalues --   -0.60419  -0.59742  -0.59403  -0.59134  -0.58758
 Alpha  occ. eigenvalues --   -0.58062  -0.57424  -0.56725  -0.55917  -0.55378
 Alpha  occ. eigenvalues --   -0.55071  -0.54157  -0.53792  -0.53157  -0.52280
 Alpha  occ. eigenvalues --   -0.51790  -0.51529  -0.51118  -0.50296  -0.50177
 Alpha  occ. eigenvalues --   -0.49918  -0.49474  -0.48994  -0.48540  -0.48481
 Alpha  occ. eigenvalues --   -0.48266  -0.48162  -0.47993  -0.47633  -0.47572
 Alpha  occ. eigenvalues --   -0.47158  -0.46782  -0.46662  -0.46497  -0.45895
 Alpha  occ. eigenvalues --   -0.45837  -0.45594  -0.45474  -0.45426  -0.45154
 Alpha  occ. eigenvalues --   -0.45029  -0.44760  -0.44582  -0.44393  -0.44128
 Alpha  occ. eigenvalues --   -0.43937  -0.43786  -0.43750  -0.43351  -0.43205
 Alpha  occ. eigenvalues --   -0.43053  -0.42960  -0.42893  -0.42506  -0.42440
 Alpha  occ. eigenvalues --   -0.42204  -0.42113  -0.41979  -0.41597  -0.41489
 Alpha  occ. eigenvalues --   -0.41404  -0.41043  -0.40941  -0.40843  -0.40778
 Alpha  occ. eigenvalues --   -0.40525  -0.40299  -0.40094  -0.39598  -0.39352
 Alpha  occ. eigenvalues --   -0.39333  -0.39133  -0.39009  -0.38757  -0.38538
 Alpha  occ. eigenvalues --   -0.38522  -0.38222  -0.38139  -0.37878  -0.37698
 Alpha  occ. eigenvalues --   -0.37670  -0.37472  -0.37093  -0.37056  -0.36866
 Alpha  occ. eigenvalues --   -0.36409  -0.36098  -0.36030  -0.35960  -0.35743
 Alpha  occ. eigenvalues --   -0.35669  -0.35645  -0.35315  -0.35211  -0.34984
 Alpha  occ. eigenvalues --   -0.34775  -0.34666  -0.34489  -0.33908  -0.33847
 Alpha  occ. eigenvalues --   -0.33544  -0.33248  -0.33073  -0.32832  -0.32189
 Alpha  occ. eigenvalues --   -0.32076  -0.32047  -0.31922  -0.31837  -0.31024
 Alpha  occ. eigenvalues --   -0.30959  -0.30697  -0.30495  -0.29452  -0.29092
 Alpha  occ. eigenvalues --   -0.28911  -0.28811  -0.28140  -0.27177  -0.26635
 Alpha  occ. eigenvalues --   -0.26256  -0.25210  -0.25184  -0.25132  -0.20984
 Alpha  occ. eigenvalues --   -0.18516
 Alpha virt. eigenvalues --   -0.10856  -0.05065  -0.03536  -0.01897  -0.00242
 Alpha virt. eigenvalues --    0.00002   0.00622   0.00762   0.01876   0.02727
 Alpha virt. eigenvalues --    0.04079   0.04706   0.05139   0.05668   0.06180

 Mulliken charges:
               1
     1  Mg   1.001375
     2  C   -0.006169
     3  C   -0.063863
     4  C   -0.064919
     5  C   -0.061777
     6  N   -0.381586
     7  C    0.042491
     8  C   -0.188170
     9  C   -0.143589
    10  C    0.055611
    11  C    0.053713
    12  C    0.036951
    13  C    0.020604
    14  C    0.190106
    15  O   -0.272286
    16  O   -0.337890
    17  N   -0.528953
    18  C    0.158432
    19  C   -0.137153
    20  C   -0.102715
    21  C    0.199618
    22  C    0.036528
    23  C    0.034794
    24  O   -0.259472
    25  C    0.000722
    26  N   -0.338274
    27  C    0.043842
    28  C   -0.138511
    29  C   -0.087917
    30  C    0.044910
    31  C    0.002836
    32  C   -0.017043
    33  C   -0.072717
    34  N   -0.430480
    35  C    0.087132
    36  C   -0.179797
    37  C   -0.003794
    38  C    0.141262
    39  C    0.066374
    40  C    0.119108
    41  O   -0.252402
    42  C   -0.051231
    43  C    0.301533
    44  O   -0.263486
    45  O   -0.388760
    46  C    0.121733
    47  C    0.247008
    48  C   -0.143561
    49  C   -0.227615
    50  C   -0.013447
    51  C    0.041202
    52  C   -0.044866
    53  C   -0.066673
    54  C   -0.172397
    55  C    0.006494
    56  C   -0.017315
    57  C   -0.072806
    58  C   -0.035657
    59  C   -0.228251
    60  C    0.011044
    61  C    0.015348
    62  C   -0.074200
    63  C    0.010250
    64  C   -0.217089
    65  C   -0.016108
    66  C   -0.050000
    67  H   -0.004055
    68  H    0.032671
    69  H    0.005369
    70  H    0.047529
    71  H    0.032318
    72  H    0.039283
    73  H    0.052568
    74  H    0.057700
    75  H    0.043079
    76  H    0.071575
    77  H    0.062328
    78  H    0.063133
    79  H    0.052761
    80  H    0.046589
    81  H    0.057773
    82  H    0.059922
    83  H    0.064794
    84  H    0.054847
    85  H    0.058318
    86  H    0.050164
    87  H    0.043291
    88  H    0.038167
    89  H    0.053381
    90  H    0.048307
    91  H    0.049901
    92  H    0.043797
    93  H    0.041456
    94  H    0.040738
    95  H    0.068409
    96  H    0.043625
    97  H    0.057991
    98  H    0.079126
    99  H    0.061288
   100  H    0.056028
   101  H    0.060877
   102  H    0.082571
   103  H    0.057129
   104  H    0.025204
   105  H    0.046769
   106  H    0.041542
   107  H    0.049724
   108  H    0.042040
   109  H    0.027117
   110  H    0.038736
   111  H    0.033939
   112  H    0.029702
   113  H    0.028532
   114  H    0.022897
   115  H    0.027917
   116  H    0.036177
   117  H    0.035924
   118  H    0.035110
   119  H    0.023680
   120  H    0.035487
   121  H    0.030054
   122  H    0.017720
   123  H    0.025893
   124  H    0.026709
   125  H    0.031879
   126  H    0.021797
   127  H    0.028904
   128  H    0.036071
   129  H    0.034611
   130  H    0.029623
   131  H    0.034813
   132  H    0.026049
   133  H    0.025956
   134  H    0.044935
   135  H    0.024002
   136  H    0.033996
   137  H    0.045671
   138  H    0.021047
   139  H    0.031484
   140  H    0.035456
 Sum of Mulliken charges =  -0.00000

 Dipole moment (field-independent basis, Debye):
    X=              4.5959    Y=              3.2524    Z=             -0.0470  Tot=              5.6305
 Quadrupole moment (field-independent basis, Debye-Ang):
   XX=           -376.3717   YY=           -433.1372   ZZ=           -400.6755
   XY=            -28.1492   XZ=             -9.9833   YZ=              3.0956

 Normal termination of Gaussian 16 at Thu Apr 28 21:28:41 2022.
