 Gaussian 16, Revision A.03,
 Gaussian 16:  ES64L-G16RevA.03 25-Dec-2016

 --------------------------------
 #p wB97XD/Def2SVP td=(nstates=5)
 --------------------------------

 -----------------------------------------------------
 step_1751_chromophore_15 TDDFT with wB97XD functional
 -----------------------------------------------------
 Symbolic Z-matrix:
 Charge =  0 Multiplicity = 1

                         Standard orientation:
 ---------------------------------------------------------------------
 Center     Atomic      Atomic             Coordinates (Angstroms)
 Number     Number       Type             X           Y           Z
 ---------------------------------------------------------------------
      1         12           0       -4.591489    1.011142    0.163643
      2          6           0       -4.224200   -2.391340    0.585237
      3          6           0       -1.356463    1.325122   -0.073429
      4          6           0       -5.180725    4.321203   -0.165954
      5          6           0       -8.177754    0.509185    0.545991
      6          7           0       -3.048113   -0.392448    0.093831
      7          6           0       -3.111947   -1.710591    0.241256
      8          6           0       -1.708837   -2.262339   -0.005023
      9          6           0       -0.791922   -1.080637    0.431441
     10          6           0       -1.803843    0.040665    0.077066
     11          6           0       -0.453249   -1.078464    1.955859
     12          6           0       -1.491221   -2.726433   -1.488886
     13          6           0       -0.457748   -3.855872   -1.809861
     14          6           0        0.644869   -4.160691   -0.819817
     15          8           0        0.619351   -4.990063    0.083739
     16          8           0        1.710222   -3.473035   -1.221812
     17          7           0       -3.500841    2.608100   -0.214526
     18          6           0       -2.134271    2.518567   -0.262979
     19          6           0       -1.572664    3.818091   -0.633871
     20          6           0       -2.691202    4.696670   -0.561780
     21          6           0       -3.869113    3.880835   -0.253109
     22          6           0        0.007401    4.045636   -0.805867
     23          6           0       -2.728558    6.175052   -0.759702
     24          8           0       -3.768163    6.834107   -0.701487
     25          6           0       -1.584517    6.883150   -1.126781
     26          7           0       -6.512010    2.259893    0.002113
     27          6           0       -6.390593    3.575800   -0.105685
     28          6           0       -7.768468    4.272201   -0.053608
     29          6           0       -8.786316    3.086395    0.281210
     30          6           0       -7.823675    1.866724    0.278552
     31          6           0       -7.916858    5.477200    0.951924
     32          6           0       -9.981996    2.994331   -0.726006
     33          6           0      -11.288285    2.423571   -0.120969
     34          7           0       -5.953618   -0.532800    0.418940
     35          6           0       -7.319838   -0.625776    0.555788
     36          6           0       -7.771609   -2.050697    0.709004
     37          6           0       -6.581211   -2.640654    0.862374
     38          6           0       -5.495138   -1.741945    0.612716
     39          6           0       -9.094934   -2.597967    0.781916
     40          6           0       -6.026795   -3.909385    1.148197
     41          8           0       -6.571815   -5.018711    1.359984
     42          6           0       -4.472959   -3.768653    1.127468
     43          6           0       -3.892621   -4.901954    0.416151
     44          8           0       -4.121426   -5.149081   -0.773549
     45          8           0       -3.082372   -5.632861    1.297749
     46          6           0       -2.686645   -7.012224    1.085085
     47          6           0        2.982435   -4.040953   -0.851994
     48          6           0        4.050185   -3.648139   -1.873141
     49          6           0        5.406454   -3.521761   -1.688095
     50          6           0        6.082500   -3.742495   -0.280464
     51          6           0        6.411959   -3.076961   -2.810676
     52          6           0        6.456004   -1.581288   -3.111699
     53          6           0        7.718943   -0.893929   -2.431409
     54          6           0        8.060339    0.474413   -3.046047
     55          6           0        8.761962    0.416982   -4.405676
     56          6           0        8.738413    1.391081   -2.023255
     57          6           0       10.275499    0.999042   -1.761843
     58          6           0       11.124786    2.201417   -1.460301
     59          6           0       11.223982    2.613815    0.035996
     60          6           0       11.971032    3.926125    0.146122
     61          6           0       11.963846    1.507294    0.888328
     62          6           0       10.961994    0.768289    1.869339
     63          6           0       10.613891    1.566583    3.233883
     64          6           0       10.659595    0.753834    4.523817
     65          6           0        9.571299    1.160543    5.563874
     66          6           0       12.082606    0.880349    5.264117
     67          1           0       -0.280274    1.450667   -0.210923
     68          1           0       -5.430027    5.383189   -0.221588
     69          1           0       -9.197403    0.300776    0.877747
     70          1           0       -1.426488   -3.105387    0.625987
     71          1           0        0.040066   -1.045774   -0.271503
     72          1           0       -0.420929   -0.059815    2.341608
     73          1           0        0.564200   -1.465227    2.006420
     74          1           0       -1.197665   -1.648568    2.511502
     75          1           0       -1.220434   -1.774110   -1.947070
     76          1           0       -2.458163   -3.143606   -1.770765
     77          1           0        0.011022   -3.792610   -2.791594
     78          1           0       -1.101608   -4.733978   -1.767370
     79          1           0        0.654276    3.243504   -0.452939
     80          1           0        0.297857    4.941044   -0.256758
     81          1           0        0.268458    4.261823   -1.842174
     82          1           0       -1.261701    6.346898   -2.019052
     83          1           0       -0.841197    6.907537   -0.329660
     84          1           0       -1.856600    7.915706   -1.346975
     85          1           0       -7.911184    4.650447   -1.065555
     86          1           0       -9.124381    3.228464    1.306948
     87          1           0       -6.974167    5.637122    1.474757
     88          1           0       -8.582838    5.244809    1.783146
     89          1           0       -8.152960    6.402948    0.426544
     90          1           0       -9.628263    2.263771   -1.453558
     91          1           0      -10.171065    3.962081   -1.189138
     92          1           0      -12.124750    3.120184   -0.173468
     93          1           0      -11.125309    2.116422    0.911779
     94          1           0      -11.632570    1.546382   -0.667951
     95          1           0       -9.100349   -3.683710    0.694039
     96          1           0       -9.743405   -2.244789   -0.021047
     97          1           0       -9.567698   -2.272661    1.708401
     98          1           0       -4.166451   -3.878204    2.168213
     99          1           0       -1.668907   -6.929544    1.466399
    100          1           0       -2.561039   -7.407044    0.076048
    101          1           0       -3.218405   -7.786751    1.637670
    102          1           0        3.079866   -5.122680   -0.760326
    103          1           0        3.297358   -3.508176    0.044514
    104          1           0        3.718535   -3.300137   -2.851281
    105          1           0        6.793980   -4.565137   -0.350478
    106          1           0        5.396965   -4.008069    0.523954
    107          1           0        6.729511   -2.903866   -0.024036
    108          1           0        6.176209   -3.552741   -3.762009
    109          1           0        7.392073   -3.394616   -2.453979
    110          1           0        5.599233   -1.052054   -2.694341
    111          1           0        6.514886   -1.360719   -4.177924
    112          1           0        8.528220   -1.623369   -2.469828
    113          1           0        7.472407   -0.672599   -1.393060
    114          1           0        7.063193    0.876235   -3.227993
    115          1           0        8.614590   -0.586352   -4.806512
    116          1           0        9.826458    0.632048   -4.308321
    117          1           0        8.337763    1.105156   -5.136295
    118          1           0        8.232251    1.402165   -1.058119
    119          1           0        8.777974    2.415852   -2.394721
    120          1           0       10.859298    0.449177   -2.498345
    121          1           0       10.131731    0.290860   -0.945853
    122          1           0       10.574971    2.986744   -1.979742
    123          1           0       12.097261    2.172565   -1.952605
    124          1           0       10.195440    2.872679    0.287774
    125          1           0       11.280523    4.701619    0.476035
    126          1           0       12.323036    4.207733   -0.846621
    127          1           0       12.855075    3.901210    0.783017
    128          1           0       12.759168    2.024085    1.426369
    129          1           0       12.294712    0.790238    0.137760
    130          1           0       11.391716   -0.200275    2.125086
    131          1           0       10.045975    0.572064    1.312261
    132          1           0        9.660985    2.055256    3.033130
    133          1           0       11.312195    2.402683    3.265159
    134          1           0       10.553709   -0.313600    4.328872
    135          1           0        8.834464    1.796746    5.074934
    136          1           0       10.078502    1.792337    6.293110
    137          1           0        9.056541    0.334861    6.055911
    138          1           0       12.653556    1.767111    4.989705
    139          1           0       12.809419    0.107695    5.014372
    140          1           0       12.101247    0.965410    6.350385
 ---------------------------------------------------------------------

 SCF Done:  E(RwB97XD) =  -3007.86938969     A.U. after   17 cycles

 Excitation energies and oscillator strengths:

 Excited State   1:      Singlet-A      1.6528 eV  750.17 nm  f=0.3809  <S**2>=0.000
     245 -> 248        0.18111
     246 -> 247        0.68320
     245 <- 248        0.11475
 This state for optimization and/or second-order correction.
 Total Energy, E(TD-HF/TD-DFT) =  -3007.80865214
 Copying the excited state density for this state as the 1-particle RhoCI density.

 Excited State   2:      Singlet-A      2.2556 eV  549.68 nm  f=0.0927  <S**2>=0.000
     245 -> 247        0.62723
     246 -> 248       -0.31305

 Excited State   3:      Singlet-A      3.4920 eV  355.05 nm  f=0.1612  <S**2>=0.000
     242 -> 247        0.39811
     242 -> 248        0.10807
     242 -> 249       -0.15766
     242 -> 250       -0.18788
     243 -> 247       -0.25494
     243 -> 249       -0.20765
     245 -> 247       -0.14379
     246 -> 248       -0.30976

 Excited State   4:      Singlet-A      3.5019 eV  354.05 nm  f=0.0178  <S**2>=0.000
     242 -> 247        0.36287
     242 -> 248        0.12114
     242 -> 249       -0.20205
     242 -> 250       -0.17495
     243 -> 247        0.39077
     243 -> 249        0.21900
     243 -> 250       -0.13864
     246 -> 248        0.10905

 Excited State   5:      Singlet-A      3.5691 eV  347.39 nm  f=0.5521  <S**2>=0.000
     240 -> 247        0.15843
     241 -> 247        0.11428
     241 -> 249       -0.10855
     242 -> 247        0.15017
     243 -> 247       -0.25845
     243 -> 249       -0.11879
     245 -> 247        0.25220
     246 -> 248        0.50874

 The electronic state is 1-A.
 Alpha  occ. eigenvalues --  -46.94404 -19.31294 -19.29552 -19.24972 -19.24424
 Alpha  occ. eigenvalues --  -19.23201 -19.22996 -14.46267 -14.46152 -14.44418
 Alpha  occ. eigenvalues --  -14.44347 -10.43174 -10.42884 -10.38074 -10.37770
 Alpha  occ. eigenvalues --  -10.36761 -10.34810 -10.34629 -10.34378 -10.34332
 Alpha  occ. eigenvalues --  -10.34324 -10.34249 -10.33993 -10.33797 -10.33724
 Alpha  occ. eigenvalues --  -10.32599 -10.32428 -10.32314 -10.31816 -10.31610
 Alpha  occ. eigenvalues --  -10.31590 -10.31584 -10.31449 -10.31434 -10.31380
 Alpha  occ. eigenvalues --  -10.31265 -10.31100 -10.30974 -10.30773 -10.30658
 Alpha  occ. eigenvalues --  -10.30541 -10.30455 -10.30452 -10.30413 -10.30298
 Alpha  occ. eigenvalues --  -10.30141 -10.30008 -10.29832 -10.29813 -10.29624
 Alpha  occ. eigenvalues --  -10.29605 -10.29518 -10.29487 -10.29339 -10.29279
 Alpha  occ. eigenvalues --  -10.29246 -10.29244 -10.29236 -10.29186 -10.28814
 Alpha  occ. eigenvalues --  -10.28600 -10.28476 -10.28445 -10.28354 -10.28083
 Alpha  occ. eigenvalues --  -10.27750  -3.20605  -1.94199  -1.93710  -1.93631
 Alpha  occ. eigenvalues --   -1.20703  -1.16330  -1.11827  -1.10617  -1.09928
 Alpha  occ. eigenvalues --   -1.08960  -1.08245  -1.06681  -1.06486  -1.04521
 Alpha  occ. eigenvalues --   -0.94807  -0.92361  -0.91501  -0.90999  -0.90901
 Alpha  occ. eigenvalues --   -0.90165  -0.90059  -0.89593  -0.89223  -0.89082
 Alpha  occ. eigenvalues --   -0.88708  -0.87668  -0.86320  -0.85539  -0.85255
 Alpha  occ. eigenvalues --   -0.84643  -0.84253  -0.83358  -0.82721  -0.82639
 Alpha  occ. eigenvalues --   -0.81995  -0.80803  -0.80038  -0.79027  -0.78567
 Alpha  occ. eigenvalues --   -0.77878  -0.76993  -0.76905  -0.76885  -0.76336
 Alpha  occ. eigenvalues --   -0.75572  -0.75022  -0.73586  -0.72383  -0.70976
 Alpha  occ. eigenvalues --   -0.70694  -0.70482  -0.69439  -0.68909  -0.68467
 Alpha  occ. eigenvalues --   -0.67864  -0.67243  -0.66828  -0.66589  -0.66217
 Alpha  occ. eigenvalues --   -0.65729  -0.65096  -0.64084  -0.63550  -0.62775
 Alpha  occ. eigenvalues --   -0.62591  -0.61633  -0.61235  -0.60505  -0.59737
 Alpha  occ. eigenvalues --   -0.59235  -0.58948  -0.58459  -0.57717  -0.57612
 Alpha  occ. eigenvalues --   -0.57342  -0.56842  -0.56490  -0.56024  -0.55904
 Alpha  occ. eigenvalues --   -0.55716  -0.55668  -0.55468  -0.55003  -0.54958
 Alpha  occ. eigenvalues --   -0.54493  -0.54186  -0.54071  -0.53829  -0.53274
 Alpha  occ. eigenvalues --   -0.53214  -0.52907  -0.52832  -0.52754  -0.52530
 Alpha  occ. eigenvalues --   -0.52312  -0.52211  -0.51878  -0.51742  -0.51499
 Alpha  occ. eigenvalues --   -0.51300  -0.51135  -0.51068  -0.50630  -0.50531
 Alpha  occ. eigenvalues --   -0.50369  -0.50230  -0.50145  -0.49799  -0.49701
 Alpha  occ. eigenvalues --   -0.49586  -0.49350  -0.49214  -0.48831  -0.48719
 Alpha  occ. eigenvalues --   -0.48543  -0.48275  -0.48169  -0.48043  -0.47974
 Alpha  occ. eigenvalues --   -0.47793  -0.47483  -0.47166  -0.46721  -0.46613
 Alpha  occ. eigenvalues --   -0.46487  -0.46269  -0.46122  -0.45928  -0.45698
 Alpha  occ. eigenvalues --   -0.45682  -0.45417  -0.45270  -0.44986  -0.44878
 Alpha  occ. eigenvalues --   -0.44789  -0.44617  -0.44223  -0.44129  -0.43952
 Alpha  occ. eigenvalues --   -0.43472  -0.43395  -0.43129  -0.43115  -0.42861
 Alpha  occ. eigenvalues --   -0.42779  -0.42638  -0.42341  -0.42329  -0.41965
 Alpha  occ. eigenvalues --   -0.41822  -0.41640  -0.41511  -0.40940  -0.40883
 Alpha  occ. eigenvalues --   -0.40596  -0.40157  -0.40077  -0.39734  -0.39195
 Alpha  occ. eigenvalues --   -0.39134  -0.39063  -0.38904  -0.38807  -0.37893
 Alpha  occ. eigenvalues --   -0.37884  -0.37676  -0.37492  -0.36349  -0.35968
 Alpha  occ. eigenvalues --   -0.35896  -0.35709  -0.34951  -0.33825  -0.33185
 Alpha  occ. eigenvalues --   -0.32953  -0.32555  -0.32084  -0.31963  -0.26021
 Alpha  occ. eigenvalues --   -0.22663
 Alpha virt. eigenvalues --   -0.06675   0.00389   0.02733   0.04581   0.06219
 Alpha virt. eigenvalues --    0.06719   0.07006   0.07406   0.08496   0.08969
 Alpha virt. eigenvalues --    0.10810   0.11371   0.11993   0.12379   0.12971

 Mulliken charges:
               1
     1  Mg   0.990800
     2  C   -0.015312
     3  C   -0.088191
     4  C   -0.079007
     5  C   -0.074682
     6  N   -0.347291
     7  C    0.007913
     8  C   -0.157952
     9  C   -0.117860
    10  C    0.048021
    11  C    0.062098
    12  C    0.044346
    13  C    0.040480
    14  C    0.173741
    15  O   -0.268429
    16  O   -0.336071
    17  N   -0.494296
    18  C    0.156886
    19  C   -0.139988
    20  C   -0.087947
    21  C    0.188585
    22  C    0.051438
    23  C    0.034037
    24  O   -0.252516
    25  C    0.009124
    26  N   -0.301311
    27  C    0.025353
    28  C   -0.115567
    29  C   -0.058770
    30  C    0.026483
    31  C    0.014537
    32  C   -0.003456
    33  C   -0.057393
    34  N   -0.388334
    35  C    0.077312
    36  C   -0.176389
    37  C    0.003498
    38  C    0.123248
    39  C    0.074536
    40  C    0.097307
    41  O   -0.243001
    42  C   -0.006472
    43  C    0.270750
    44  O   -0.255616
    45  O   -0.385917
    46  C    0.135436
    47  C    0.262056
    48  C   -0.154566
    49  C   -0.216728
    50  C    0.002944
    51  C    0.061927
    52  C   -0.029880
    53  C   -0.051212
    54  C   -0.139883
    55  C    0.015527
    56  C    0.003251
    57  C   -0.062634
    58  C   -0.010517
    59  C   -0.204160
    60  C    0.021532
    61  C    0.034623
    62  C   -0.054608
    63  C    0.023316
    64  C   -0.188583
    65  C   -0.002117
    66  C   -0.038361
    67  H   -0.012689
    68  H    0.027396
    69  H   -0.000708
    70  H    0.031983
    71  H    0.023935
    72  H    0.032607
    73  H    0.047590
    74  H    0.052170
    75  H    0.033574
    76  H    0.062728
    77  H    0.058191
    78  H    0.056871
    79  H    0.050584
    80  H    0.039838
    81  H    0.053746
    82  H    0.053607
    83  H    0.060935
    84  H    0.054705
    85  H    0.048208
    86  H    0.036443
    87  H    0.035517
    88  H    0.032830
    89  H    0.048967
    90  H    0.039048
    91  H    0.042397
    92  H    0.038758
    93  H    0.034202
    94  H    0.035160
    95  H    0.065565
    96  H    0.038441
    97  H    0.053140
    98  H    0.072687
    99  H    0.058772
   100  H    0.052332
   101  H    0.056716
   102  H    0.078648
   103  H    0.049979
   104  H    0.022204
   105  H    0.040549
   106  H    0.036765
   107  H    0.042315
   108  H    0.036579
   109  H    0.017276
   110  H    0.029399
   111  H    0.025295
   112  H    0.019319
   113  H    0.016734
   114  H    0.010720
   115  H    0.020975
   116  H    0.028846
   117  H    0.031413
   118  H    0.026331
   119  H    0.013341
   120  H    0.028207
   121  H    0.015297
   122  H    0.004504
   123  H    0.018180
   124  H    0.013102
   125  H    0.026986
   126  H    0.015347
   127  H    0.023151
   128  H    0.025810
   129  H    0.025246
   130  H    0.021425
   131  H    0.023009
   132  H    0.017911
   133  H    0.013811
   134  H    0.034721
   135  H    0.017283
   136  H    0.026471
   137  H    0.041268
   138  H    0.013914
   139  H    0.025822
   140  H    0.029511
 Sum of Mulliken charges =  -0.00000

 Dipole moment (field-independent basis, Debye):
    X=              4.8664    Y=              3.5785    Z=             -0.0889  Tot=              6.0411
 Quadrupole moment (field-independent basis, Debye-Ang):
   XX=           -378.6125   YY=           -431.1874   ZZ=           -400.1880
   XY=            -28.3601   XZ=             -9.8645   YZ=              2.8759

 Normal termination of Gaussian 16 at Thu Apr 28 22:03:04 2022.
