 Gaussian 16, Revision A.03,
 Gaussian 16:  ES64L-G16RevA.03 25-Dec-2016

 --------------------
 #p ZINDO=(nstates=5)
 --------------------

 ------------------------------
 step_1751_chromophore_15 ZINDO
 ------------------------------
 Symbolic Z-matrix:
 Charge =  0 Multiplicity = 1

                         Standard orientation:
 ---------------------------------------------------------------------
 Center     Atomic      Atomic             Coordinates (Angstroms)
 Number     Number       Type             X           Y           Z
 ---------------------------------------------------------------------
      1         12           0       -4.591489    1.011142    0.163643
      2          6           0       -4.224200   -2.391340    0.585237
      3          6           0       -1.356463    1.325122   -0.073429
      4          6           0       -5.180725    4.321203   -0.165954
      5          6           0       -8.177754    0.509185    0.545991
      6          7           0       -3.048113   -0.392448    0.093831
      7          6           0       -3.111947   -1.710591    0.241256
      8          6           0       -1.708837   -2.262339   -0.005023
      9          6           0       -0.791922   -1.080637    0.431441
     10          6           0       -1.803843    0.040665    0.077066
     11          6           0       -0.453249   -1.078464    1.955859
     12          6           0       -1.491221   -2.726433   -1.488886
     13          6           0       -0.457748   -3.855872   -1.809861
     14          6           0        0.644869   -4.160691   -0.819817
     15          8           0        0.619351   -4.990063    0.083739
     16          8           0        1.710222   -3.473035   -1.221812
     17          7           0       -3.500841    2.608100   -0.214526
     18          6           0       -2.134271    2.518567   -0.262979
     19          6           0       -1.572664    3.818091   -0.633871
     20          6           0       -2.691202    4.696670   -0.561780
     21          6           0       -3.869113    3.880835   -0.253109
     22          6           0        0.007401    4.045636   -0.805867
     23          6           0       -2.728558    6.175052   -0.759702
     24          8           0       -3.768163    6.834107   -0.701487
     25          6           0       -1.584517    6.883150   -1.126781
     26          7           0       -6.512010    2.259893    0.002113
     27          6           0       -6.390593    3.575800   -0.105685
     28          6           0       -7.768468    4.272201   -0.053608
     29          6           0       -8.786316    3.086395    0.281210
     30          6           0       -7.823675    1.866724    0.278552
     31          6           0       -7.916858    5.477200    0.951924
     32          6           0       -9.981996    2.994331   -0.726006
     33          6           0      -11.288285    2.423571   -0.120969
     34          7           0       -5.953618   -0.532800    0.418940
     35          6           0       -7.319838   -0.625776    0.555788
     36          6           0       -7.771609   -2.050697    0.709004
     37          6           0       -6.581211   -2.640654    0.862374
     38          6           0       -5.495138   -1.741945    0.612716
     39          6           0       -9.094934   -2.597967    0.781916
     40          6           0       -6.026795   -3.909385    1.148197
     41          8           0       -6.571815   -5.018711    1.359984
     42          6           0       -4.472959   -3.768653    1.127468
     43          6           0       -3.892621   -4.901954    0.416151
     44          8           0       -4.121426   -5.149081   -0.773549
     45          8           0       -3.082372   -5.632861    1.297749
     46          6           0       -2.686645   -7.012224    1.085085
     47          6           0        2.982435   -4.040953   -0.851994
     48          6           0        4.050185   -3.648139   -1.873141
     49          6           0        5.406454   -3.521761   -1.688095
     50          6           0        6.082500   -3.742495   -0.280464
     51          6           0        6.411959   -3.076961   -2.810676
     52          6           0        6.456004   -1.581288   -3.111699
     53          6           0        7.718943   -0.893929   -2.431409
     54          6           0        8.060339    0.474413   -3.046047
     55          6           0        8.761962    0.416982   -4.405676
     56          6           0        8.738413    1.391081   -2.023255
     57          6           0       10.275499    0.999042   -1.761843
     58          6           0       11.124786    2.201417   -1.460301
     59          6           0       11.223982    2.613815    0.035996
     60          6           0       11.971032    3.926125    0.146122
     61          6           0       11.963846    1.507294    0.888328
     62          6           0       10.961994    0.768289    1.869339
     63          6           0       10.613891    1.566583    3.233883
     64          6           0       10.659595    0.753834    4.523817
     65          6           0        9.571299    1.160543    5.563874
     66          6           0       12.082606    0.880349    5.264117
     67          1           0       -0.280274    1.450667   -0.210923
     68          1           0       -5.430027    5.383189   -0.221588
     69          1           0       -9.197403    0.300776    0.877747
     70          1           0       -1.426488   -3.105387    0.625987
     71          1           0        0.040066   -1.045774   -0.271503
     72          1           0       -0.420929   -0.059815    2.341608
     73          1           0        0.564200   -1.465227    2.006420
     74          1           0       -1.197665   -1.648568    2.511502
     75          1           0       -1.220434   -1.774110   -1.947070
     76          1           0       -2.458163   -3.143606   -1.770765
     77          1           0        0.011022   -3.792610   -2.791594
     78          1           0       -1.101608   -4.733978   -1.767370
     79          1           0        0.654276    3.243504   -0.452939
     80          1           0        0.297857    4.941044   -0.256758
     81          1           0        0.268458    4.261823   -1.842174
     82          1           0       -1.261701    6.346898   -2.019052
     83          1           0       -0.841197    6.907537   -0.329660
     84          1           0       -1.856600    7.915706   -1.346975
     85          1           0       -7.911184    4.650447   -1.065555
     86          1           0       -9.124381    3.228464    1.306948
     87          1           0       -6.974167    5.637122    1.474757
     88          1           0       -8.582838    5.244809    1.783146
     89          1           0       -8.152960    6.402948    0.426544
     90          1           0       -9.628263    2.263771   -1.453558
     91          1           0      -10.171065    3.962081   -1.189138
     92          1           0      -12.124750    3.120184   -0.173468
     93          1           0      -11.125309    2.116422    0.911779
     94          1           0      -11.632570    1.546382   -0.667951
     95          1           0       -9.100349   -3.683710    0.694039
     96          1           0       -9.743405   -2.244789   -0.021047
     97          1           0       -9.567698   -2.272661    1.708401
     98          1           0       -4.166451   -3.878204    2.168213
     99          1           0       -1.668907   -6.929544    1.466399
    100          1           0       -2.561039   -7.407044    0.076048
    101          1           0       -3.218405   -7.786751    1.637670
    102          1           0        3.079866   -5.122680   -0.760326
    103          1           0        3.297358   -3.508176    0.044514
    104          1           0        3.718535   -3.300137   -2.851281
    105          1           0        6.793980   -4.565137   -0.350478
    106          1           0        5.396965   -4.008069    0.523954
    107          1           0        6.729511   -2.903866   -0.024036
    108          1           0        6.176209   -3.552741   -3.762009
    109          1           0        7.392073   -3.394616   -2.453979
    110          1           0        5.599233   -1.052054   -2.694341
    111          1           0        6.514886   -1.360719   -4.177924
    112          1           0        8.528220   -1.623369   -2.469828
    113          1           0        7.472407   -0.672599   -1.393060
    114          1           0        7.063193    0.876235   -3.227993
    115          1           0        8.614590   -0.586352   -4.806512
    116          1           0        9.826458    0.632048   -4.308321
    117          1           0        8.337763    1.105156   -5.136295
    118          1           0        8.232251    1.402165   -1.058119
    119          1           0        8.777974    2.415852   -2.394721
    120          1           0       10.859298    0.449177   -2.498345
    121          1           0       10.131731    0.290860   -0.945853
    122          1           0       10.574971    2.986744   -1.979742
    123          1           0       12.097261    2.172565   -1.952605
    124          1           0       10.195440    2.872679    0.287774
    125          1           0       11.280523    4.701619    0.476035
    126          1           0       12.323036    4.207733   -0.846621
    127          1           0       12.855075    3.901210    0.783017
    128          1           0       12.759168    2.024085    1.426369
    129          1           0       12.294712    0.790238    0.137760
    130          1           0       11.391716   -0.200275    2.125086
    131          1           0       10.045975    0.572064    1.312261
    132          1           0        9.660985    2.055256    3.033130
    133          1           0       11.312195    2.402683    3.265159
    134          1           0       10.553709   -0.313600    4.328872
    135          1           0        8.834464    1.796746    5.074934
    136          1           0       10.078502    1.792337    6.293110
    137          1           0        9.056541    0.334861    6.055911
    138          1           0       12.653556    1.767111    4.989705
    139          1           0       12.809419    0.107695    5.014372
    140          1           0       12.101247    0.965410    6.350385
 ---------------------------------------------------------------------

 SCF Done:  E(RZINDO/S) =  -474.456171875     A.U. after   19 cycles

 Excitation energies and oscillator strengths:

 Excited State   1:      Singlet-A      1.2458 eV  995.24 nm  f=0.6143  <S**2>=0.000
     175 ->178         0.19281
     176 ->177         0.66283
 This state for optimization and/or second-order correction.
 Total Energy, E(CIS/TDA) =  -474.410390813
 Copying the excited state density for this state as the 1-particle RhoCI density.

 Excited State   2:      Singlet-A      1.9759 eV  627.49 nm  f=0.0229  <S**2>=0.000
     175 ->177         0.52675
     176 ->178        -0.45156

 Excited State   3:      Singlet-A      2.7966 eV  443.34 nm  f=0.0020  <S**2>=0.000
     169 ->177         0.20102
     169 ->179        -0.16807
     169 ->180        -0.22092
     169 ->186        -0.12318
     170 ->177         0.28040
     170 ->178        -0.10210
     170 ->179        -0.23346
     170 ->180        -0.30638
     170 ->186        -0.16937
     170 ->187        -0.11174

 Excited State   4:      Singlet-A      2.9018 eV  427.27 nm  f=0.0125  <S**2>=0.000
     168 ->177         0.18364
     168 ->179         0.28096
     168 ->180        -0.16843
     168 ->186         0.10770
     169 ->177         0.18998
     169 ->179         0.26991
     169 ->180        -0.16578
     171 ->177         0.10153
     171 ->179         0.12722
     172 ->179         0.10098
     176 ->179         0.16155

 Excited State   5:      Singlet-A      3.0011 eV  413.13 nm  f=0.0836  <S**2>=0.000
     176 ->178         0.12278
     176 ->179         0.64720

 The electronic state is 1-A.
 Alpha  occ. eigenvalues --   -1.88629  -1.84313  -1.80661  -1.75750  -1.72061
 Alpha  occ. eigenvalues --   -1.69562  -1.66068  -1.62381  -1.59675  -1.57394
 Alpha  occ. eigenvalues --   -1.53397  -1.50663  -1.47669  -1.47553  -1.46026
 Alpha  occ. eigenvalues --   -1.44936  -1.42881  -1.39174  -1.38054  -1.37413
 Alpha  occ. eigenvalues --   -1.35969  -1.35216  -1.33134  -1.31775  -1.28195
 Alpha  occ. eigenvalues --   -1.27633  -1.25130  -1.22539  -1.20687  -1.19369
 Alpha  occ. eigenvalues --   -1.18025  -1.15925  -1.15469  -1.14528  -1.13051
 Alpha  occ. eigenvalues --   -1.12282  -1.11231  -1.10721  -1.06081  -1.04946
 Alpha  occ. eigenvalues --   -1.02623  -1.01607  -0.98687  -0.97833  -0.96890
 Alpha  occ. eigenvalues --   -0.96384  -0.94986  -0.94292  -0.92959  -0.92173
 Alpha  occ. eigenvalues --   -0.91334  -0.90569  -0.89461  -0.88577  -0.86314
 Alpha  occ. eigenvalues --   -0.85611  -0.84472  -0.83737  -0.83276  -0.80336
 Alpha  occ. eigenvalues --   -0.79961  -0.79473  -0.77258  -0.77077  -0.76077
 Alpha  occ. eigenvalues --   -0.75916  -0.75250  -0.74272  -0.73193  -0.73038
 Alpha  occ. eigenvalues --   -0.72850  -0.72213  -0.71840  -0.71178  -0.70887
 Alpha  occ. eigenvalues --   -0.70349  -0.69774  -0.68774  -0.68485  -0.67793
 Alpha  occ. eigenvalues --   -0.67129  -0.66615  -0.66324  -0.66003  -0.65850
 Alpha  occ. eigenvalues --   -0.65365  -0.64747  -0.64147  -0.63523  -0.63274
 Alpha  occ. eigenvalues --   -0.62903  -0.62430  -0.62228  -0.62019  -0.61663
 Alpha  occ. eigenvalues --   -0.61404  -0.61070  -0.60350  -0.60221  -0.60045
 Alpha  occ. eigenvalues --   -0.59773  -0.59095  -0.58335  -0.58146  -0.57864
 Alpha  occ. eigenvalues --   -0.57734  -0.57438  -0.57391  -0.57289  -0.56558
 Alpha  occ. eigenvalues --   -0.56396  -0.55545  -0.55226  -0.54783  -0.54731
 Alpha  occ. eigenvalues --   -0.54504  -0.54046  -0.53444  -0.53183  -0.52997
 Alpha  occ. eigenvalues --   -0.52758  -0.52544  -0.52259  -0.52126  -0.51801
 Alpha  occ. eigenvalues --   -0.51510  -0.50922  -0.50710  -0.50285  -0.50104
 Alpha  occ. eigenvalues --   -0.50097  -0.49867  -0.49229  -0.48903  -0.48789
 Alpha  occ. eigenvalues --   -0.48556  -0.48467  -0.48225  -0.47960  -0.47850
 Alpha  occ. eigenvalues --   -0.47679  -0.47386  -0.47077  -0.46713  -0.46578
 Alpha  occ. eigenvalues --   -0.46153  -0.46015  -0.45776  -0.45540  -0.45430
 Alpha  occ. eigenvalues --   -0.44942  -0.44423  -0.44365  -0.44191  -0.44077
 Alpha  occ. eigenvalues --   -0.43920  -0.43677  -0.43292  -0.42268  -0.41968
 Alpha  occ. eigenvalues --   -0.41907  -0.41458  -0.40784  -0.39019  -0.38714
 Alpha  occ. eigenvalues --   -0.37785  -0.36711  -0.34964  -0.34270  -0.34116
 Alpha  occ. eigenvalues --   -0.33778  -0.33283  -0.32684  -0.32140  -0.26708
 Alpha  occ. eigenvalues --   -0.21427
 Alpha virt. eigenvalues --   -0.08147  -0.01727  -0.00288   0.01390   0.01948
 Alpha virt. eigenvalues --    0.02695   0.03005   0.03122   0.04166   0.05180
 Alpha virt. eigenvalues --    0.06694   0.06850   0.07466   0.07950   0.08494

 Mulliken charges:
               1
     1  Mg   0.427400
     2  C   -0.052618
     3  C   -0.108254
     4  C   -0.058390
     5  C   -0.059664
     6  N   -0.282275
     7  C    0.144095
     8  C   -0.003264
     9  C   -0.013293
    10  C    0.145517
    11  C   -0.043919
    12  C   -0.020371
    13  C   -0.000419
    14  C    0.477330
    15  O   -0.529318
    16  O   -0.259097
    17  N   -0.302721
    18  C    0.106724
    19  C   -0.020199
    20  C   -0.038725
    21  C    0.139966
    22  C   -0.044505
    23  C    0.337482
    24  O   -0.549873
    25  C   -0.020701
    26  N   -0.265181
    27  C    0.136399
    28  C   -0.004769
    29  C    0.001241
    30  C    0.091419
    31  C   -0.056886
    32  C   -0.027371
    33  C   -0.059136
    34  N   -0.293844
    35  C    0.068950
    36  C    0.058209
    37  C   -0.044986
    38  C    0.117970
    39  C   -0.024367
    40  C    0.326281
    41  O   -0.540773
    42  C    0.065172
    43  C    0.496502
    44  O   -0.524316
    45  O   -0.277226
    46  C    0.076409
    47  C    0.109866
    48  C   -0.090506
    49  C   -0.029120
    50  C   -0.050916
    51  C   -0.016955
    52  C   -0.034808
    53  C   -0.039415
    54  C   -0.006902
    55  C   -0.054980
    56  C   -0.032890
    57  C   -0.046885
    58  C   -0.034646
    59  C   -0.017305
    60  C   -0.060785
    61  C   -0.037412
    62  C   -0.047330
    63  C   -0.030504
    64  C    0.001763
    65  C   -0.059580
    66  C   -0.069079
    67  H    0.024545
    68  H    0.049909
    69  H    0.028125
    70  H    0.023606
    71  H    0.032274
    72  H    0.020613
    73  H    0.024582
    74  H    0.033355
    75  H    0.028028
    76  H    0.039321
    77  H    0.042369
    78  H    0.040251
    79  H    0.032730
    80  H    0.021339
    81  H    0.029241
    82  H    0.040736
    83  H    0.039990
    84  H    0.036147
    85  H    0.035006
    86  H    0.033754
    87  H    0.020420
    88  H    0.022630
    89  H    0.028560
    90  H    0.024430
    91  H    0.027884
    92  H    0.019788
    93  H    0.020491
    94  H    0.017004
    95  H    0.039035
    96  H    0.025182
    97  H    0.035178
    98  H    0.054461
    99  H    0.028024
   100  H    0.048169
   101  H    0.045821
   102  H    0.067180
   103  H    0.045693
   104  H    0.030135
   105  H    0.021108
   106  H    0.026505
   107  H    0.028257
   108  H    0.023659
   109  H    0.023679
   110  H    0.021169
   111  H    0.023011
   112  H    0.022013
   113  H    0.014945
   114  H    0.008026
   115  H    0.015703
   116  H    0.024332
   117  H    0.017717
   118  H    0.021673
   119  H    0.014653
   120  H    0.024544
   121  H    0.012079
   122  H    0.008211
   123  H    0.018522
   124  H    0.025534
   125  H    0.014255
   126  H    0.012897
   127  H    0.020335
   128  H    0.032092
   129  H    0.024828
   130  H    0.014752
   131  H    0.020962
   132  H    0.017650
   133  H    0.019487
   134  H    0.023541
   135  H    0.014439
   136  H    0.020007
   137  H    0.025229
   138  H    0.012118
   139  H    0.012935
   140  H    0.020909
 Sum of Mulliken charges =  -0.00000

 Dipole moment (field-independent basis, Debye):
    X=              6.3953    Y=              4.4219    Z=              0.5137  Tot=              7.7921
 N-N= 4.350430689370D+03 E-N= 0.000000000000D+00  KE=-9.375375422159D+03
 Leave Link  601 at Thu Apr 28 22:22:52 2022, MaxMem=  6710886400 cpu:               0.7 elap:               0.0
 (Enter /sw/apps/gaussian-16.0/g16/l9999.exe)
 1\1\GINC-BP1-COMPUTE190\SP\RZINDO CIS\STO-3G\C55H74Mg1N4O6\OF15641\28-
 Apr-2022\0\\#p ZINDO=(nstates=5)\\step_1751_chromophore_15 ZINDO\\0,1\
 Mg,0,46.591,35.567,28.304\C,0,45.542,33.419,30.789\C,0,46.902,37.951,3
 0.504\C,0,47.531,37.511,25.706\C,0,46.1,32.83,25.953\N,0,46.406,35.589
 ,30.383\C,0,46.014,34.615,31.196\C,0,46.161,35.132,32.626\C,0,45.959,3
 6.668,32.46\C,0,46.511,36.742,31.012\C,0,44.464,37.115,32.521\C,0,47.5
 33,34.734,33.277\C,0,47.643,34.573,34.829\C,0,46.62,35.24,35.722\O,0,4

 Normal termination of Gaussian 16 at Thu Apr 28 22:22:52 2022.
