 Gaussian 16, Revision A.03,
 Gaussian 16:  ES64L-G16RevA.03 25-Dec-2016

 ------------------------------
 #p blyp/Def2SVP td=(nstates=5)
 ------------------------------

 --------------------------------------------------
 step_901_chromophore_15 TDDFT with blyp functional
 --------------------------------------------------
 Symbolic Z-matrix:
 Charge =  0 Multiplicity = 1

                         Standard orientation:
 ---------------------------------------------------------------------
 Center     Atomic      Atomic             Coordinates (Angstroms)
 Number     Number       Type             X           Y           Z
 ---------------------------------------------------------------------
      1         12           0       -4.612661    0.897634   -0.104319
      2          6           0       -4.255438   -2.564330    0.240424
      3          6           0       -1.194663    1.275487    0.020395
      4          6           0       -5.047905    4.241380    0.454253
      5          6           0       -8.091547    0.456646    0.901430
      6          7           0       -3.012265   -0.558000   -0.172086
      7          6           0       -3.090579   -1.914370   -0.112521
      8          6           0       -1.730980   -2.501491   -0.299155
      9          6           0       -0.777725   -1.302305    0.131135
     10          6           0       -1.701937   -0.071995    0.020430
     11          6           0        0.032767   -1.414728    1.442368
     12          6           0       -1.525737   -2.847865   -1.770490
     13          6           0       -0.436997   -3.904480   -2.074732
     14          6           0        0.751587   -4.076644   -1.147288
     15          8           0        0.803004   -4.810026   -0.153481
     16          8           0        1.843135   -3.356808   -1.584280
     17          7           0       -3.284486    2.501255   -0.066736
     18          6           0       -1.902134    2.436513   -0.080241
     19          6           0       -1.428664    3.808763   -0.239631
     20          6           0       -2.523737    4.688759   -0.027173
     21          6           0       -3.692834    3.811693    0.160771
     22          6           0        0.068354    4.048061   -0.439762
     23          6           0       -2.484660    6.174534   -0.038875
     24          8           0       -3.493157    6.883041    0.037622
     25          6           0       -1.101261    6.938832   -0.177151
     26          7           0       -6.341362    2.204175    0.668753
     27          6           0       -6.254589    3.505762    0.545030
     28          6           0       -7.653893    4.182679    0.830401
     29          6           0       -8.593617    2.912571    0.714429
     30          6           0       -7.633533    1.771608    0.756641
     31          6           0       -7.649316    4.878804    2.242603
     32          6           0       -9.423917    2.937934   -0.597461
     33          6           0      -10.871873    2.434846   -0.519912
     34          7           0       -5.986147   -0.682511    0.357099
     35          6           0       -7.346931   -0.704206    0.684063
     36          6           0       -7.731028   -2.114419    0.707470
     37          6           0       -6.546827   -2.821559    0.498040
     38          6           0       -5.523837   -1.921045    0.405636
     39          6           0       -9.186957   -2.521111    0.882149
     40          6           0       -6.025737   -4.172831    0.407332
     41          8           0       -6.594634   -5.203339    0.308762
     42          6           0       -4.499129   -4.060804    0.663790
     43          6           0       -3.726515   -5.173384   -0.066777
     44          8           0       -4.061460   -5.679750   -1.135389
     45          8           0       -2.796347   -5.635544    0.771312
     46          6           0       -2.011645   -6.807383    0.515055
     47          6           0        3.086423   -3.651091   -0.888299
     48          6           0        4.033874   -2.511250   -1.399675
     49          6           0        5.426099   -2.446043   -1.496592
     50          6           0        6.353697   -3.350329   -0.774412
     51          6           0        6.143599   -1.467727   -2.384043
     52          6           0        5.845430    0.025138   -2.242358
     53          6           0        6.543011    0.898350   -3.259607
     54          6           0        7.259159    2.148824   -2.550120
     55          6           0        6.682798    3.516748   -3.021073
     56          6           0        8.757083    2.111259   -2.927779
     57          6           0        9.347130    0.900673   -2.180861
     58          6           0       10.659585    1.314107   -1.388935
     59          6           0       10.403266    2.092163   -0.063712
     60          6           0       10.640200    3.601640   -0.283416
     61          6           0       11.351716    1.552015    1.038400
     62          6           0       10.683757    0.391148    1.845766
     63          6           0       11.687261   -0.359236    2.762806
     64          6           0       11.226386   -0.735254    4.227999
     65          6           0       10.728037    0.447289    5.102558
     66          6           0       12.295894   -1.605381    5.000821
     67          1           0       -0.138386    1.291422    0.297831
     68          1           0       -5.076352    5.324754    0.591697
     69          1           0       -9.173657    0.362910    1.012049
     70          1           0       -1.668129   -3.404595    0.306962
     71          1           0        0.017849   -1.377959   -0.608995
     72          1           0        1.115439   -1.490805    1.338696
     73          1           0       -0.359964   -2.345778    1.852194
     74          1           0        0.037157   -0.579266    2.140842
     75          1           0       -1.485612   -1.960066   -2.399902
     76          1           0       -2.444643   -3.325566   -2.112264
     77          1           0       -0.026522   -3.664972   -3.054820
     78          1           0       -0.914525   -4.872654   -2.228900
     79          1           0        0.543281    3.107736   -0.719452
     80          1           0        0.500848    4.575571    0.411054
     81          1           0        0.119819    4.701381   -1.311537
     82          1           0       -1.369670    7.982752   -0.021443
     83          1           0       -0.704424    6.809232   -1.184379
     84          1           0       -0.395950    6.599843    0.583103
     85          1           0       -7.943150    4.963502    0.127178
     86          1           0       -9.348484    2.812985    1.493878
     87          1           0       -8.189858    4.406228    3.062665
     88          1           0       -7.810483    5.948206    2.107870
     89          1           0       -6.593461    4.836653    2.512769
     90          1           0       -8.897390    2.366723   -1.362190
     91          1           0       -9.428032    3.954486   -0.990560
     92          1           0      -11.194054    2.435369    0.521589
     93          1           0      -11.019418    1.469875   -1.004489
     94          1           0      -11.431849    3.232760   -1.006313
     95          1           0       -9.783810   -1.988339    0.142022
     96          1           0       -9.610897   -2.273002    1.855217
     97          1           0       -9.285621   -3.588762    0.688335
     98          1           0       -4.172985   -4.133854    1.701262
     99          1           0       -1.953563   -7.456970    1.388484
    100          1           0       -1.036664   -6.513358    0.126032
    101          1           0       -2.533328   -7.241163   -0.337948
    102          1           0        3.435715   -4.634391   -1.201679
    103          1           0        2.937123   -3.645422    0.192174
    104          1           0        3.482496   -1.667267   -1.814629
    105          1           0        6.897510   -2.645117   -0.145044
    106          1           0        6.890959   -3.940372   -1.516534
    107          1           0        5.803295   -3.983765   -0.079680
    108          1           0        5.930227   -1.672284   -3.433124
    109          1           0        7.224039   -1.552830   -2.274606
    110          1           0        6.071409    0.340041   -1.224210
    111          1           0        4.789096    0.051452   -2.509212
    112          1           0        5.743175    1.290110   -3.888693
    113          1           0        7.151382    0.295901   -3.935468
    114          1           0        7.130672    2.178435   -1.467505
    115          1           0        5.872713    3.774894   -2.338868
    116          1           0        6.322183    3.347958   -4.035424
    117          1           0        7.356527    4.368261   -3.116467
    118          1           0        9.336682    3.021036   -2.773321
    119          1           0        8.725245    1.835532   -3.982697
    120          1           0        9.695581    0.174015   -2.914751
    121          1           0        8.639755    0.442678   -1.489934
    122          1           0       11.356705    1.886905   -2.000108
    123          1           0       11.203258    0.407172   -1.124492
    124          1           0        9.360962    1.911649    0.199573
    125          1           0       11.125583    3.906451   -1.210087
    126          1           0       11.343679    3.948196    0.473156
    127          1           0        9.700288    4.151905   -0.240504
    128          1           0       11.529393    2.312551    1.798527
    129          1           0       12.252505    1.119436    0.601877
    130          1           0       10.173641   -0.346957    1.225812
    131          1           0        9.934511    0.836667    2.501234
    132          1           0       12.637778    0.167100    2.851422
    133          1           0       11.855060   -1.347574    2.336078
    134          1           0       10.433632   -1.475809    4.122147
    135          1           0       11.086343    0.358922    6.128499
    136          1           0        9.652524    0.362858    5.254685
    137          1           0       10.961501    1.449515    4.744972
    138          1           0       12.200044   -1.493002    6.080222
    139          1           0       13.300870   -1.321424    4.685418
    140          1           0       12.184027   -2.683137    4.888103
 ---------------------------------------------------------------------

 SCF Done:  E(RB-LYP) =  -3007.38328640     A.U. after   21 cycles

 Excitation energies and oscillator strengths:

 Excited State   1:      Singlet-A      1.8101 eV  684.96 nm  f=0.2650  <S**2>=0.000
     245 -> 248       -0.20132
     246 -> 247        0.67877
     246 <- 247       -0.13999
 This state for optimization and/or second-order correction.
 Total Energy, E(TD-HF/TD-DFT) =  -3007.31676660
 Copying the excited state density for this state as the 1-particle RhoCI density.

 Excited State   2:      Singlet-A      1.9261 eV  643.71 nm  f=0.0582  <S**2>=0.000
     244 -> 247       -0.40577
     245 -> 247        0.53167
     246 -> 248        0.16805

 Excited State   3:      Singlet-A      2.0391 eV  608.02 nm  f=0.0058  <S**2>=0.000
     243 -> 247        0.51937
     244 -> 247       -0.41249
     245 -> 247       -0.20860
     246 -> 248       -0.11055

 Excited State   4:      Singlet-A      2.0665 eV  599.97 nm  f=0.0134  <S**2>=0.000
     243 -> 247        0.47328
     244 -> 247        0.38834
     245 -> 247        0.29299
     246 -> 248        0.17651

 Excited State   5:      Singlet-A      2.2743 eV  545.15 nm  f=0.0000  <S**2>=0.000
     242 -> 247        0.70710

 The electronic state is 1-A.
 Alpha  occ. eigenvalues --  -46.27945 -18.83257 -18.82062 -18.78196 -18.76218
 Alpha  occ. eigenvalues --  -18.75790 -18.75392 -14.03347 -14.02802 -14.01306
 Alpha  occ. eigenvalues --  -14.00439 -10.05313 -10.03742 -10.00110  -9.99071
 Alpha  occ. eigenvalues --   -9.98888  -9.97432  -9.96861  -9.96555  -9.96359
 Alpha  occ. eigenvalues --   -9.95983  -9.95926  -9.95601  -9.94972  -9.94262
 Alpha  occ. eigenvalues --   -9.94161  -9.93978  -9.93885  -9.93874  -9.93865
 Alpha  occ. eigenvalues --   -9.93842  -9.93593  -9.93575  -9.93506  -9.93384
 Alpha  occ. eigenvalues --   -9.93378  -9.93124  -9.93076  -9.93018  -9.92759
 Alpha  occ. eigenvalues --   -9.92689  -9.92669  -9.92589  -9.92513  -9.92481
 Alpha  occ. eigenvalues --   -9.92212  -9.92155  -9.92107  -9.92089  -9.92057
 Alpha  occ. eigenvalues --   -9.92035  -9.92031  -9.91886  -9.91748  -9.91746
 Alpha  occ. eigenvalues --   -9.91587  -9.91489  -9.91480  -9.91401  -9.91188
 Alpha  occ. eigenvalues --   -9.91091  -9.90971  -9.90945  -9.90935  -9.90824
 Alpha  occ. eigenvalues --   -9.90136  -2.92366  -1.72792  -1.72249  -1.72075
 Alpha  occ. eigenvalues --   -0.98875  -0.98548  -0.93181  -0.91052  -0.90597
 Alpha  occ. eigenvalues --   -0.89491  -0.86800  -0.86096  -0.85228  -0.84482
 Alpha  occ. eigenvalues --   -0.75030  -0.74256  -0.73225  -0.72955  -0.72364
 Alpha  occ. eigenvalues --   -0.71962  -0.71368  -0.70497  -0.70493  -0.70209
 Alpha  occ. eigenvalues --   -0.69505  -0.69160  -0.68335  -0.67540  -0.67236
 Alpha  occ. eigenvalues --   -0.66522  -0.66181  -0.65421  -0.65120  -0.64471
 Alpha  occ. eigenvalues --   -0.63929  -0.62737  -0.62539  -0.61817  -0.60713
 Alpha  occ. eigenvalues --   -0.60638  -0.60094  -0.59735  -0.59531  -0.58912
 Alpha  occ. eigenvalues --   -0.58286  -0.57370  -0.56661  -0.55719  -0.53938
 Alpha  occ. eigenvalues --   -0.53716  -0.53609  -0.52887  -0.52275  -0.51591
 Alpha  occ. eigenvalues --   -0.51391  -0.51082  -0.50742  -0.50604  -0.50377
 Alpha  occ. eigenvalues --   -0.50210  -0.49577  -0.48791  -0.48289  -0.46781
 Alpha  occ. eigenvalues --   -0.46231  -0.46153  -0.45620  -0.45133  -0.44510
 Alpha  occ. eigenvalues --   -0.43565  -0.43521  -0.43151  -0.42687  -0.42580
 Alpha  occ. eigenvalues --   -0.42473  -0.42068  -0.42022  -0.41673  -0.41427
 Alpha  occ. eigenvalues --   -0.41119  -0.40944  -0.40518  -0.40271  -0.39973
 Alpha  occ. eigenvalues --   -0.39921  -0.39695  -0.39670  -0.39515  -0.39470
 Alpha  occ. eigenvalues --   -0.38954  -0.38816  -0.38626  -0.38606  -0.38389
 Alpha  occ. eigenvalues --   -0.38298  -0.38124  -0.38059  -0.37847  -0.37270
 Alpha  occ. eigenvalues --   -0.37188  -0.37018  -0.36821  -0.36659  -0.36463
 Alpha  occ. eigenvalues --   -0.36323  -0.36144  -0.35971  -0.35807  -0.35667
 Alpha  occ. eigenvalues --   -0.35471  -0.35312  -0.35115  -0.35015  -0.34872
 Alpha  occ. eigenvalues --   -0.34819  -0.34422  -0.34409  -0.34156  -0.33932
 Alpha  occ. eigenvalues --   -0.33859  -0.33636  -0.33584  -0.33306  -0.33155
 Alpha  occ. eigenvalues --   -0.33013  -0.32841  -0.32675  -0.32600  -0.32353
 Alpha  occ. eigenvalues --   -0.32211  -0.32120  -0.32061  -0.31694  -0.31679
 Alpha  occ. eigenvalues --   -0.31540  -0.31426  -0.31041  -0.30930  -0.30778
 Alpha  occ. eigenvalues --   -0.30669  -0.30582  -0.30162  -0.29701  -0.29638
 Alpha  occ. eigenvalues --   -0.29380  -0.29242  -0.29069  -0.29004  -0.28818
 Alpha  occ. eigenvalues --   -0.28757  -0.28547  -0.28237  -0.28041  -0.27643
 Alpha  occ. eigenvalues --   -0.27568  -0.27557  -0.27312  -0.26716  -0.26656
 Alpha  occ. eigenvalues --   -0.26392  -0.26113  -0.26094  -0.25886  -0.25582
 Alpha  occ. eigenvalues --   -0.25025  -0.24979  -0.24772  -0.24117  -0.23987
 Alpha  occ. eigenvalues --   -0.22990  -0.22838  -0.22255  -0.21300  -0.20598
 Alpha  occ. eigenvalues --   -0.20000  -0.19723  -0.18801  -0.18536  -0.17143
 Alpha  occ. eigenvalues --   -0.15743
 Alpha virt. eigenvalues --   -0.11365  -0.07183  -0.06001  -0.04610  -0.04237
 Alpha virt. eigenvalues --   -0.03112  -0.03012  -0.02486  -0.01805   0.00145
 Alpha virt. eigenvalues --    0.01136   0.01516   0.02158   0.02693   0.02890

 Mulliken charges:
               1
     1  Mg   0.677777
     2  C   -0.036246
     3  C   -0.092856
     4  C   -0.019753
     5  C   -0.069204
     6  N   -0.256516
     7  C   -0.053055
     8  C   -0.022592
     9  C    0.003286
    10  C    0.052250
    11  C    0.110223
    12  C    0.102996
    13  C    0.172709
    14  C    0.082440
    15  O   -0.205569
    16  O   -0.273102
    17  N   -0.327562
    18  C    0.191865
    19  C   -0.169557
    20  C    0.076271
    21  C    0.075366
    22  C    0.192641
    23  C   -0.101457
    24  O   -0.172393
    25  C    0.107499
    26  N   -0.149270
    27  C    0.029903
    28  C   -0.015820
    29  C    0.024481
    30  C    0.024206
    31  C    0.133733
    32  C    0.067803
    33  C    0.081634
    34  N   -0.246378
    35  C    0.106051
    36  C   -0.189095
    37  C    0.081079
    38  C    0.102287
    39  C    0.169203
    40  C   -0.042878
    41  O   -0.075828
    42  C    0.063066
    43  C    0.082831
    44  O   -0.177615
    45  O   -0.246767
    46  C    0.193144
    47  C    0.303121
    48  C   -0.130307
    49  C   -0.150802
    50  C    0.165199
    51  C    0.098350
    52  C    0.061271
    53  C    0.132296
    54  C   -0.117756
    55  C    0.110021
    56  C    0.111641
    57  C    0.060933
    58  C    0.085314
    59  C   -0.068600
    60  C    0.123587
    61  C    0.098276
    62  C    0.051291
    63  C    0.095929
    64  C   -0.085071
    65  C    0.107644
    66  C    0.074949
    67  H   -0.042733
    68  H   -0.040583
    69  H   -0.061883
    70  H   -0.016324
    71  H   -0.024384
    72  H   -0.016723
    73  H    0.003558
    74  H   -0.011300
    75  H   -0.019835
    76  H   -0.012111
    77  H   -0.014163
    78  H    0.007912
    79  H   -0.008100
    80  H    0.013867
    81  H   -0.008269
    82  H   -0.005367
    83  H    0.011424
    84  H    0.003990
    85  H   -0.021081
    86  H   -0.033863
    87  H    0.001519
    88  H   -0.006295
    89  H   -0.018220
    90  H   -0.026611
    91  H   -0.027108
    92  H   -0.015850
    93  H    0.008606
    94  H   -0.009664
    95  H   -0.006732
    96  H   -0.000574
    97  H    0.003982
    98  H    0.014958
    99  H    0.026052
   100  H    0.023053
   101  H    0.005870
   102  H    0.004363
   103  H    0.017508
   104  H   -0.022805
   105  H    0.009090
   106  H    0.014953
   107  H   -0.025727
   108  H   -0.017780
   109  H   -0.043157
   110  H   -0.019950
   111  H   -0.028816
   112  H   -0.039483
   113  H   -0.024197
   114  H   -0.022447
   115  H   -0.018693
   116  H   -0.025307
   117  H   -0.017093
   118  H   -0.024284
   119  H   -0.037204
   120  H   -0.034401
   121  H   -0.009623
   122  H   -0.035131
   123  H   -0.046946
   124  H   -0.037767
   125  H   -0.018027
   126  H   -0.032187
   127  H   -0.014178
   128  H   -0.024745
   129  H   -0.016615
   130  H   -0.031987
   131  H   -0.034395
   132  H   -0.027445
   133  H   -0.034146
   134  H   -0.037902
   135  H   -0.027651
   136  H   -0.019753
   137  H   -0.006563
   138  H   -0.022711
   139  H   -0.013466
   140  H   -0.018871
 Sum of Mulliken charges =  -0.00000

 Dipole moment (field-independent basis, Debye):
    X=              4.7761    Y=              2.1783    Z=             -0.6731  Tot=              5.2924
 Quadrupole moment (field-independent basis, Debye-Ang):
   XX=           -391.7127   YY=           -445.7467   ZZ=           -400.9733
   XY=            -30.3903   XZ=             -7.9454   YZ=             -4.4720

 Normal termination of Gaussian 16 at Sat Apr 30 21:46:01 2022.
