 Gaussian 16, Revision A.03,
 Gaussian 16:  ES64L-G16RevA.03 25-Dec-2016

 -----------------------------------
 #p cam-b3lyp/Def2SVP td=(nstates=5)
 -----------------------------------

 -------------------------------------------------------
 step_901_chromophore_15 TDDFT with cam-b3lyp functional
 -------------------------------------------------------
 Symbolic Z-matrix:
 Charge =  0 Multiplicity = 1

                         Standard orientation:
 ---------------------------------------------------------------------
 Center     Atomic      Atomic             Coordinates (Angstroms)
 Number     Number       Type             X           Y           Z
 ---------------------------------------------------------------------
      1         12           0       -4.612661    0.897634   -0.104319
      2          6           0       -4.255438   -2.564330    0.240424
      3          6           0       -1.194663    1.275487    0.020395
      4          6           0       -5.047905    4.241380    0.454253
      5          6           0       -8.091547    0.456646    0.901430
      6          7           0       -3.012265   -0.558000   -0.172086
      7          6           0       -3.090579   -1.914370   -0.112521
      8          6           0       -1.730980   -2.501491   -0.299155
      9          6           0       -0.777725   -1.302305    0.131135
     10          6           0       -1.701937   -0.071995    0.020430
     11          6           0        0.032767   -1.414728    1.442368
     12          6           0       -1.525737   -2.847865   -1.770490
     13          6           0       -0.436997   -3.904480   -2.074732
     14          6           0        0.751587   -4.076644   -1.147288
     15          8           0        0.803004   -4.810026   -0.153481
     16          8           0        1.843135   -3.356808   -1.584280
     17          7           0       -3.284486    2.501255   -0.066736
     18          6           0       -1.902134    2.436513   -0.080241
     19          6           0       -1.428664    3.808763   -0.239631
     20          6           0       -2.523737    4.688759   -0.027173
     21          6           0       -3.692834    3.811693    0.160771
     22          6           0        0.068354    4.048061   -0.439762
     23          6           0       -2.484660    6.174534   -0.038875
     24          8           0       -3.493157    6.883041    0.037622
     25          6           0       -1.101261    6.938832   -0.177151
     26          7           0       -6.341362    2.204175    0.668753
     27          6           0       -6.254589    3.505762    0.545030
     28          6           0       -7.653893    4.182679    0.830401
     29          6           0       -8.593617    2.912571    0.714429
     30          6           0       -7.633533    1.771608    0.756641
     31          6           0       -7.649316    4.878804    2.242603
     32          6           0       -9.423917    2.937934   -0.597461
     33          6           0      -10.871873    2.434846   -0.519912
     34          7           0       -5.986147   -0.682511    0.357099
     35          6           0       -7.346931   -0.704206    0.684063
     36          6           0       -7.731028   -2.114419    0.707470
     37          6           0       -6.546827   -2.821559    0.498040
     38          6           0       -5.523837   -1.921045    0.405636
     39          6           0       -9.186957   -2.521111    0.882149
     40          6           0       -6.025737   -4.172831    0.407332
     41          8           0       -6.594634   -5.203339    0.308762
     42          6           0       -4.499129   -4.060804    0.663790
     43          6           0       -3.726515   -5.173384   -0.066777
     44          8           0       -4.061460   -5.679750   -1.135389
     45          8           0       -2.796347   -5.635544    0.771312
     46          6           0       -2.011645   -6.807383    0.515055
     47          6           0        3.086423   -3.651091   -0.888299
     48          6           0        4.033874   -2.511250   -1.399675
     49          6           0        5.426099   -2.446043   -1.496592
     50          6           0        6.353697   -3.350329   -0.774412
     51          6           0        6.143599   -1.467727   -2.384043
     52          6           0        5.845430    0.025138   -2.242358
     53          6           0        6.543011    0.898350   -3.259607
     54          6           0        7.259159    2.148824   -2.550120
     55          6           0        6.682798    3.516748   -3.021073
     56          6           0        8.757083    2.111259   -2.927779
     57          6           0        9.347130    0.900673   -2.180861
     58          6           0       10.659585    1.314107   -1.388935
     59          6           0       10.403266    2.092163   -0.063712
     60          6           0       10.640200    3.601640   -0.283416
     61          6           0       11.351716    1.552015    1.038400
     62          6           0       10.683757    0.391148    1.845766
     63          6           0       11.687261   -0.359236    2.762806
     64          6           0       11.226386   -0.735254    4.227999
     65          6           0       10.728037    0.447289    5.102558
     66          6           0       12.295894   -1.605381    5.000821
     67          1           0       -0.138386    1.291422    0.297831
     68          1           0       -5.076352    5.324754    0.591697
     69          1           0       -9.173657    0.362910    1.012049
     70          1           0       -1.668129   -3.404595    0.306962
     71          1           0        0.017849   -1.377959   -0.608995
     72          1           0        1.115439   -1.490805    1.338696
     73          1           0       -0.359964   -2.345778    1.852194
     74          1           0        0.037157   -0.579266    2.140842
     75          1           0       -1.485612   -1.960066   -2.399902
     76          1           0       -2.444643   -3.325566   -2.112264
     77          1           0       -0.026522   -3.664972   -3.054820
     78          1           0       -0.914525   -4.872654   -2.228900
     79          1           0        0.543281    3.107736   -0.719452
     80          1           0        0.500848    4.575571    0.411054
     81          1           0        0.119819    4.701381   -1.311537
     82          1           0       -1.369670    7.982752   -0.021443
     83          1           0       -0.704424    6.809232   -1.184379
     84          1           0       -0.395950    6.599843    0.583103
     85          1           0       -7.943150    4.963502    0.127178
     86          1           0       -9.348484    2.812985    1.493878
     87          1           0       -8.189858    4.406228    3.062665
     88          1           0       -7.810483    5.948206    2.107870
     89          1           0       -6.593461    4.836653    2.512769
     90          1           0       -8.897390    2.366723   -1.362190
     91          1           0       -9.428032    3.954486   -0.990560
     92          1           0      -11.194054    2.435369    0.521589
     93          1           0      -11.019418    1.469875   -1.004489
     94          1           0      -11.431849    3.232760   -1.006313
     95          1           0       -9.783810   -1.988339    0.142022
     96          1           0       -9.610897   -2.273002    1.855217
     97          1           0       -9.285621   -3.588762    0.688335
     98          1           0       -4.172985   -4.133854    1.701262
     99          1           0       -1.953563   -7.456970    1.388484
    100          1           0       -1.036664   -6.513358    0.126032
    101          1           0       -2.533328   -7.241163   -0.337948
    102          1           0        3.435715   -4.634391   -1.201679
    103          1           0        2.937123   -3.645422    0.192174
    104          1           0        3.482496   -1.667267   -1.814629
    105          1           0        6.897510   -2.645117   -0.145044
    106          1           0        6.890959   -3.940372   -1.516534
    107          1           0        5.803295   -3.983765   -0.079680
    108          1           0        5.930227   -1.672284   -3.433124
    109          1           0        7.224039   -1.552830   -2.274606
    110          1           0        6.071409    0.340041   -1.224210
    111          1           0        4.789096    0.051452   -2.509212
    112          1           0        5.743175    1.290110   -3.888693
    113          1           0        7.151382    0.295901   -3.935468
    114          1           0        7.130672    2.178435   -1.467505
    115          1           0        5.872713    3.774894   -2.338868
    116          1           0        6.322183    3.347958   -4.035424
    117          1           0        7.356527    4.368261   -3.116467
    118          1           0        9.336682    3.021036   -2.773321
    119          1           0        8.725245    1.835532   -3.982697
    120          1           0        9.695581    0.174015   -2.914751
    121          1           0        8.639755    0.442678   -1.489934
    122          1           0       11.356705    1.886905   -2.000108
    123          1           0       11.203258    0.407172   -1.124492
    124          1           0        9.360962    1.911649    0.199573
    125          1           0       11.125583    3.906451   -1.210087
    126          1           0       11.343679    3.948196    0.473156
    127          1           0        9.700288    4.151905   -0.240504
    128          1           0       11.529393    2.312551    1.798527
    129          1           0       12.252505    1.119436    0.601877
    130          1           0       10.173641   -0.346957    1.225812
    131          1           0        9.934511    0.836667    2.501234
    132          1           0       12.637778    0.167100    2.851422
    133          1           0       11.855060   -1.347574    2.336078
    134          1           0       10.433632   -1.475809    4.122147
    135          1           0       11.086343    0.358922    6.128499
    136          1           0        9.652524    0.362858    5.254685
    137          1           0       10.961501    1.449515    4.744972
    138          1           0       12.200044   -1.493002    6.080222
    139          1           0       13.300870   -1.321424    4.685418
    140          1           0       12.184027   -2.683137    4.888103
 ---------------------------------------------------------------------

 SCF Done:  E(RCAM-B3LYP) =  -3007.17736325     A.U. after   19 cycles

 Excitation energies and oscillator strengths:

 Excited State   1:      Singlet-A      1.7175 eV  721.87 nm  f=0.3550  <S**2>=0.000
     245 -> 248       -0.19183
     246 -> 247        0.68222
     245 <- 248       -0.10885
 This state for optimization and/or second-order correction.
 Total Energy, E(TD-HF/TD-DFT) =  -3007.11424470
 Copying the excited state density for this state as the 1-particle RhoCI density.

 Excited State   2:      Singlet-A      2.2255 eV  557.11 nm  f=0.0772  <S**2>=0.000
     245 -> 247        0.62311
     246 -> 248        0.32134

 Excited State   3:      Singlet-A      3.3796 eV  366.86 nm  f=0.1406  <S**2>=0.000
     241 -> 247        0.17408
     242 -> 247        0.30815
     244 -> 247        0.51370
     245 -> 247       -0.13849
     246 -> 248        0.26780

 Excited State   4:      Singlet-A      3.3917 eV  365.55 nm  f=0.2949  <S**2>=0.000
     241 -> 247        0.18221
     242 -> 247        0.10991
     244 -> 247       -0.41776
     245 -> 247       -0.20061
     246 -> 248        0.47588

 Excited State   5:      Singlet-A      3.5676 eV  347.53 nm  f=0.3278  <S**2>=0.000
     240 -> 247       -0.12918
     241 -> 247        0.13432
     241 -> 251        0.10608
     242 -> 247        0.52771
     244 -> 247       -0.16212
     245 -> 247        0.19948
     246 -> 248       -0.27468

 The electronic state is 1-A.
 Alpha  occ. eigenvalues --  -46.89569 -19.26117 -19.24890 -19.21175 -19.19338
 Alpha  occ. eigenvalues --  -19.19146 -19.18261 -14.42228 -14.41651 -14.39880
 Alpha  occ. eigenvalues --  -14.38650 -10.40646 -10.39074 -10.35697 -10.33765
 Alpha  occ. eigenvalues --  -10.33139 -10.32310 -10.31318 -10.30938 -10.30773
 Alpha  occ. eigenvalues --  -10.30290 -10.30206 -10.30016 -10.29301 -10.28804
 Alpha  occ. eigenvalues --  -10.28076 -10.28059 -10.28043 -10.28028 -10.27852
 Alpha  occ. eigenvalues --  -10.27830 -10.27822 -10.27737 -10.27583 -10.27561
 Alpha  occ. eigenvalues --  -10.27475 -10.27408 -10.27180 -10.26845 -10.26777
 Alpha  occ. eigenvalues --  -10.26723 -10.26676 -10.26558 -10.26529 -10.26313
 Alpha  occ. eigenvalues --  -10.26310 -10.25886 -10.25821 -10.25820 -10.25790
 Alpha  occ. eigenvalues --  -10.25783 -10.25521 -10.25453 -10.25411 -10.25406
 Alpha  occ. eigenvalues --  -10.25312 -10.25226 -10.25213 -10.25135 -10.24927
 Alpha  occ. eigenvalues --  -10.24804 -10.24610 -10.24609 -10.24592 -10.24462
 Alpha  occ. eigenvalues --  -10.23839  -3.17882  -1.92787  -1.92327  -1.92174
 Alpha  occ. eigenvalues --   -1.17291  -1.16985  -1.11377  -1.09752  -1.08427
 Alpha  occ. eigenvalues --   -1.07351  -1.04472  -1.03615  -1.02878  -1.02118
 Alpha  occ. eigenvalues --   -0.91927  -0.91190  -0.90010  -0.89750  -0.89002
 Alpha  occ. eigenvalues --   -0.88684  -0.88076  -0.87310  -0.87083  -0.86840
 Alpha  occ. eigenvalues --   -0.85885  -0.85398  -0.84608  -0.83553  -0.83360
 Alpha  occ. eigenvalues --   -0.82471  -0.82190  -0.81276  -0.81041  -0.80373
 Alpha  occ. eigenvalues --   -0.80141  -0.78554  -0.78249  -0.77325  -0.76087
 Alpha  occ. eigenvalues --   -0.76000  -0.75474  -0.75094  -0.74750  -0.74172
 Alpha  occ. eigenvalues --   -0.73322  -0.72300  -0.71532  -0.70510  -0.68430
 Alpha  occ. eigenvalues --   -0.68376  -0.68254  -0.67395  -0.66671  -0.65920
 Alpha  occ. eigenvalues --   -0.65481  -0.65202  -0.64710  -0.64482  -0.64440
 Alpha  occ. eigenvalues --   -0.64166  -0.63590  -0.62438  -0.62163  -0.60439
 Alpha  occ. eigenvalues --   -0.59914  -0.59673  -0.58977  -0.58474  -0.57822
 Alpha  occ. eigenvalues --   -0.57013  -0.56781  -0.56451  -0.55966  -0.55787
 Alpha  occ. eigenvalues --   -0.55545  -0.55251  -0.55076  -0.54763  -0.54413
 Alpha  occ. eigenvalues --   -0.53875  -0.53627  -0.53296  -0.53038  -0.52822
 Alpha  occ. eigenvalues --   -0.52717  -0.52514  -0.52431  -0.52281  -0.51726
 Alpha  occ. eigenvalues --   -0.51441  -0.51218  -0.51082  -0.50923  -0.50852
 Alpha  occ. eigenvalues --   -0.50783  -0.50606  -0.50364  -0.50269  -0.49695
 Alpha  occ. eigenvalues --   -0.49515  -0.49466  -0.49171  -0.49040  -0.48728
 Alpha  occ. eigenvalues --   -0.48672  -0.48487  -0.48346  -0.48081  -0.48024
 Alpha  occ. eigenvalues --   -0.47751  -0.47490  -0.47235  -0.46952  -0.46879
 Alpha  occ. eigenvalues --   -0.46561  -0.46286  -0.46272  -0.45967  -0.45686
 Alpha  occ. eigenvalues --   -0.45644  -0.45509  -0.45389  -0.45022  -0.44874
 Alpha  occ. eigenvalues --   -0.44667  -0.44653  -0.44398  -0.44241  -0.44103
 Alpha  occ. eigenvalues --   -0.43832  -0.43624  -0.43601  -0.43346  -0.43283
 Alpha  occ. eigenvalues --   -0.43093  -0.43041  -0.42612  -0.42351  -0.42287
 Alpha  occ. eigenvalues --   -0.42095  -0.41987  -0.41341  -0.40781  -0.40707
 Alpha  occ. eigenvalues --   -0.40552  -0.40523  -0.40280  -0.40114  -0.40064
 Alpha  occ. eigenvalues --   -0.39839  -0.39759  -0.39529  -0.39157  -0.38683
 Alpha  occ. eigenvalues --   -0.38534  -0.38514  -0.38112  -0.37721  -0.37505
 Alpha  occ. eigenvalues --   -0.37443  -0.37240  -0.36730  -0.36680  -0.36265
 Alpha  occ. eigenvalues --   -0.36159  -0.35871  -0.35483  -0.35026  -0.34606
 Alpha  occ. eigenvalues --   -0.34184  -0.33699  -0.33050  -0.31395  -0.31072
 Alpha  occ. eigenvalues --   -0.30509  -0.29829  -0.29295  -0.29047  -0.24003
 Alpha  occ. eigenvalues --   -0.21001
 Alpha virt. eigenvalues --   -0.08402  -0.02128   0.00366   0.01904   0.02952
 Alpha virt. eigenvalues --    0.03234   0.04423   0.05277   0.05643   0.06702
 Alpha virt. eigenvalues --    0.07444   0.07875   0.08796   0.09047   0.09136

 Mulliken charges:
               1
     1  Mg   0.806136
     2  C   -0.063718
     3  C   -0.109898
     4  C   -0.040544
     5  C   -0.068499
     6  N   -0.327705
     7  C   -0.009149
     8  C   -0.085323
     9  C   -0.050303
    10  C    0.074598
    11  C    0.054638
    12  C    0.052647
    13  C    0.108240
    14  C    0.155289
    15  O   -0.247253
    16  O   -0.336945
    17  N   -0.415321
    18  C    0.197139
    19  C   -0.168188
    20  C    0.002857
    21  C    0.106569
    22  C    0.133616
    23  C   -0.023485
    24  O   -0.212486
    25  C    0.034229
    26  N   -0.214455
    27  C    0.043249
    28  C   -0.060309
    29  C   -0.038363
    30  C    0.038392
    31  C    0.072950
    32  C    0.018046
    33  C    0.017544
    34  N   -0.333056
    35  C    0.102651
    36  C   -0.179783
    37  C   -0.007306
    38  C    0.135958
    39  C    0.117117
    40  C    0.056664
    41  O   -0.115967
    42  C   -0.006486
    43  C    0.170254
    44  O   -0.216716
    45  O   -0.311827
    46  C    0.157871
    47  C    0.274981
    48  C   -0.149324
    49  C   -0.174196
    50  C    0.099716
    51  C    0.048863
    52  C    0.007751
    53  C    0.071977
    54  C   -0.170769
    55  C    0.055283
    56  C    0.058632
    57  C    0.011316
    58  C    0.037138
    59  C   -0.124948
    60  C    0.062945
    61  C    0.044418
    62  C    0.001647
    63  C    0.042931
    64  C   -0.142215
    65  C    0.042300
    66  C    0.019333
    67  H   -0.008598
    68  H    0.000615
    69  H   -0.026389
    70  H    0.019399
    71  H    0.010960
    72  H    0.006763
    73  H    0.028361
    74  H    0.014775
    75  H    0.011591
    76  H    0.021644
    77  H    0.022026
    78  H    0.038472
    79  H    0.022253
    80  H    0.040532
    81  H    0.018813
    82  H    0.030812
    83  H    0.038902
    84  H    0.030584
    85  H    0.013564
    86  H    0.000904
    87  H    0.027184
    88  H    0.018151
    89  H    0.007592
    90  H    0.002897
    91  H    0.000605
    92  H    0.006311
    93  H    0.030780
    94  H    0.014389
    95  H    0.016446
    96  H    0.024196
    97  H    0.031077
    98  H    0.057684
    99  H    0.047908
   100  H    0.043598
   101  H    0.033339
   102  H    0.030923
   103  H    0.045112
   104  H    0.008331
   105  H    0.031429
   106  H    0.038903
   107  H   -0.000143
   108  H    0.011688
   109  H   -0.014142
   110  H    0.006178
   111  H   -0.001930
   112  H   -0.007702
   113  H    0.004481
   114  H    0.005134
   115  H    0.005272
   116  H   -0.002266
   117  H    0.007926
   118  H    0.002802
   119  H   -0.007730
   120  H   -0.004721
   121  H    0.010123
   122  H   -0.006893
   123  H   -0.017238
   124  H   -0.007143
   125  H    0.005250
   126  H   -0.005360
   127  H    0.009000
   128  H    0.002441
   129  H    0.010300
   130  H   -0.005592
   131  H   -0.006650
   132  H   -0.000806
   133  H   -0.005342
   134  H   -0.006256
   135  H   -0.001724
   136  H    0.004816
   137  H    0.015615
   138  H    0.001887
   139  H    0.009166
   140  H    0.005377
 Sum of Mulliken charges =  -0.00000

 Dipole moment (field-independent basis, Debye):
    X=              5.6276    Y=              3.1142    Z=             -0.7240  Tot=              6.4724
 Quadrupole moment (field-independent basis, Debye-Ang):
   XX=           -394.9901   YY=           -441.3079   ZZ=           -400.8140
   XY=            -33.0708   XZ=             -7.7508   YZ=             -4.7962

 Normal termination of Gaussian 16 at Sat Apr 30 20:22:56 2022.
