 Gaussian 16, Revision A.03,
 Gaussian 16:  ES64L-G16RevA.03 25-Dec-2016

 ---------------------------------
 #p PBE1PBE/Def2SVP td=(nstates=5)
 ---------------------------------

 -----------------------------------------------------
 step_901_chromophore_15 TDDFT with PBE1PBE functional
 -----------------------------------------------------
 Symbolic Z-matrix:
 Charge =  0 Multiplicity = 1

                         Standard orientation:
 ---------------------------------------------------------------------
 Center     Atomic      Atomic             Coordinates (Angstroms)
 Number     Number       Type             X           Y           Z
 ---------------------------------------------------------------------
      1         12           0       -4.612661    0.897634   -0.104319
      2          6           0       -4.255438   -2.564330    0.240424
      3          6           0       -1.194663    1.275487    0.020395
      4          6           0       -5.047905    4.241380    0.454253
      5          6           0       -8.091547    0.456646    0.901430
      6          7           0       -3.012265   -0.558000   -0.172086
      7          6           0       -3.090579   -1.914370   -0.112521
      8          6           0       -1.730980   -2.501491   -0.299155
      9          6           0       -0.777725   -1.302305    0.131135
     10          6           0       -1.701937   -0.071995    0.020430
     11          6           0        0.032767   -1.414728    1.442368
     12          6           0       -1.525737   -2.847865   -1.770490
     13          6           0       -0.436997   -3.904480   -2.074732
     14          6           0        0.751587   -4.076644   -1.147288
     15          8           0        0.803004   -4.810026   -0.153481
     16          8           0        1.843135   -3.356808   -1.584280
     17          7           0       -3.284486    2.501255   -0.066736
     18          6           0       -1.902134    2.436513   -0.080241
     19          6           0       -1.428664    3.808763   -0.239631
     20          6           0       -2.523737    4.688759   -0.027173
     21          6           0       -3.692834    3.811693    0.160771
     22          6           0        0.068354    4.048061   -0.439762
     23          6           0       -2.484660    6.174534   -0.038875
     24          8           0       -3.493157    6.883041    0.037622
     25          6           0       -1.101261    6.938832   -0.177151
     26          7           0       -6.341362    2.204175    0.668753
     27          6           0       -6.254589    3.505762    0.545030
     28          6           0       -7.653893    4.182679    0.830401
     29          6           0       -8.593617    2.912571    0.714429
     30          6           0       -7.633533    1.771608    0.756641
     31          6           0       -7.649316    4.878804    2.242603
     32          6           0       -9.423917    2.937934   -0.597461
     33          6           0      -10.871873    2.434846   -0.519912
     34          7           0       -5.986147   -0.682511    0.357099
     35          6           0       -7.346931   -0.704206    0.684063
     36          6           0       -7.731028   -2.114419    0.707470
     37          6           0       -6.546827   -2.821559    0.498040
     38          6           0       -5.523837   -1.921045    0.405636
     39          6           0       -9.186957   -2.521111    0.882149
     40          6           0       -6.025737   -4.172831    0.407332
     41          8           0       -6.594634   -5.203339    0.308762
     42          6           0       -4.499129   -4.060804    0.663790
     43          6           0       -3.726515   -5.173384   -0.066777
     44          8           0       -4.061460   -5.679750   -1.135389
     45          8           0       -2.796347   -5.635544    0.771312
     46          6           0       -2.011645   -6.807383    0.515055
     47          6           0        3.086423   -3.651091   -0.888299
     48          6           0        4.033874   -2.511250   -1.399675
     49          6           0        5.426099   -2.446043   -1.496592
     50          6           0        6.353697   -3.350329   -0.774412
     51          6           0        6.143599   -1.467727   -2.384043
     52          6           0        5.845430    0.025138   -2.242358
     53          6           0        6.543011    0.898350   -3.259607
     54          6           0        7.259159    2.148824   -2.550120
     55          6           0        6.682798    3.516748   -3.021073
     56          6           0        8.757083    2.111259   -2.927779
     57          6           0        9.347130    0.900673   -2.180861
     58          6           0       10.659585    1.314107   -1.388935
     59          6           0       10.403266    2.092163   -0.063712
     60          6           0       10.640200    3.601640   -0.283416
     61          6           0       11.351716    1.552015    1.038400
     62          6           0       10.683757    0.391148    1.845766
     63          6           0       11.687261   -0.359236    2.762806
     64          6           0       11.226386   -0.735254    4.227999
     65          6           0       10.728037    0.447289    5.102558
     66          6           0       12.295894   -1.605381    5.000821
     67          1           0       -0.138386    1.291422    0.297831
     68          1           0       -5.076352    5.324754    0.591697
     69          1           0       -9.173657    0.362910    1.012049
     70          1           0       -1.668129   -3.404595    0.306962
     71          1           0        0.017849   -1.377959   -0.608995
     72          1           0        1.115439   -1.490805    1.338696
     73          1           0       -0.359964   -2.345778    1.852194
     74          1           0        0.037157   -0.579266    2.140842
     75          1           0       -1.485612   -1.960066   -2.399902
     76          1           0       -2.444643   -3.325566   -2.112264
     77          1           0       -0.026522   -3.664972   -3.054820
     78          1           0       -0.914525   -4.872654   -2.228900
     79          1           0        0.543281    3.107736   -0.719452
     80          1           0        0.500848    4.575571    0.411054
     81          1           0        0.119819    4.701381   -1.311537
     82          1           0       -1.369670    7.982752   -0.021443
     83          1           0       -0.704424    6.809232   -1.184379
     84          1           0       -0.395950    6.599843    0.583103
     85          1           0       -7.943150    4.963502    0.127178
     86          1           0       -9.348484    2.812985    1.493878
     87          1           0       -8.189858    4.406228    3.062665
     88          1           0       -7.810483    5.948206    2.107870
     89          1           0       -6.593461    4.836653    2.512769
     90          1           0       -8.897390    2.366723   -1.362190
     91          1           0       -9.428032    3.954486   -0.990560
     92          1           0      -11.194054    2.435369    0.521589
     93          1           0      -11.019418    1.469875   -1.004489
     94          1           0      -11.431849    3.232760   -1.006313
     95          1           0       -9.783810   -1.988339    0.142022
     96          1           0       -9.610897   -2.273002    1.855217
     97          1           0       -9.285621   -3.588762    0.688335
     98          1           0       -4.172985   -4.133854    1.701262
     99          1           0       -1.953563   -7.456970    1.388484
    100          1           0       -1.036664   -6.513358    0.126032
    101          1           0       -2.533328   -7.241163   -0.337948
    102          1           0        3.435715   -4.634391   -1.201679
    103          1           0        2.937123   -3.645422    0.192174
    104          1           0        3.482496   -1.667267   -1.814629
    105          1           0        6.897510   -2.645117   -0.145044
    106          1           0        6.890959   -3.940372   -1.516534
    107          1           0        5.803295   -3.983765   -0.079680
    108          1           0        5.930227   -1.672284   -3.433124
    109          1           0        7.224039   -1.552830   -2.274606
    110          1           0        6.071409    0.340041   -1.224210
    111          1           0        4.789096    0.051452   -2.509212
    112          1           0        5.743175    1.290110   -3.888693
    113          1           0        7.151382    0.295901   -3.935468
    114          1           0        7.130672    2.178435   -1.467505
    115          1           0        5.872713    3.774894   -2.338868
    116          1           0        6.322183    3.347958   -4.035424
    117          1           0        7.356527    4.368261   -3.116467
    118          1           0        9.336682    3.021036   -2.773321
    119          1           0        8.725245    1.835532   -3.982697
    120          1           0        9.695581    0.174015   -2.914751
    121          1           0        8.639755    0.442678   -1.489934
    122          1           0       11.356705    1.886905   -2.000108
    123          1           0       11.203258    0.407172   -1.124492
    124          1           0        9.360962    1.911649    0.199573
    125          1           0       11.125583    3.906451   -1.210087
    126          1           0       11.343679    3.948196    0.473156
    127          1           0        9.700288    4.151905   -0.240504
    128          1           0       11.529393    2.312551    1.798527
    129          1           0       12.252505    1.119436    0.601877
    130          1           0       10.173641   -0.346957    1.225812
    131          1           0        9.934511    0.836667    2.501234
    132          1           0       12.637778    0.167100    2.851422
    133          1           0       11.855060   -1.347574    2.336078
    134          1           0       10.433632   -1.475809    4.122147
    135          1           0       11.086343    0.358922    6.128499
    136          1           0        9.652524    0.362858    5.254685
    137          1           0       10.961501    1.449515    4.744972
    138          1           0       12.200044   -1.493002    6.080222
    139          1           0       13.300870   -1.321424    4.685418
    140          1           0       12.184027   -2.683137    4.888103
 ---------------------------------------------------------------------

 SCF Done:  E(RPBE1PBE) =  -3005.36506183     A.U. after   16 cycles

 Excitation energies and oscillator strengths:

 Excited State   1:      Singlet-A      1.8667 eV  664.20 nm  f=0.3446  <S**2>=0.000
     245 -> 248       -0.18541
     246 -> 247        0.68850
 This state for optimization and/or second-order correction.
 Total Energy, E(TD-HF/TD-DFT) =  -3005.29646350
 Copying the excited state density for this state as the 1-particle RhoCI density.

 Excited State   2:      Singlet-A      2.2273 eV  556.67 nm  f=0.0794  <S**2>=0.000
     245 -> 247        0.63791
     246 -> 248        0.29144

 Excited State   3:      Singlet-A      2.9710 eV  417.31 nm  f=0.0070  <S**2>=0.000
     243 -> 247        0.69298

 Excited State   4:      Singlet-A      3.0903 eV  401.21 nm  f=0.0073  <S**2>=0.000
     240 -> 247        0.12702
     242 -> 247        0.67172

 Excited State   5:      Singlet-A      3.1317 eV  395.90 nm  f=0.0033  <S**2>=0.000
     240 -> 247        0.64451
     240 -> 249       -0.18082
     242 -> 247       -0.13956

 The electronic state is 1-A.
 Alpha  occ. eigenvalues --  -46.92942 -19.26808 -19.25632 -19.21454 -19.19495
 Alpha  occ. eigenvalues --  -19.19366 -19.18637 -14.41773 -14.41085 -14.39480
 Alpha  occ. eigenvalues --  -14.38415 -10.37704 -10.36178 -10.32654 -10.31072
 Alpha  occ. eigenvalues --  -10.30554 -10.29882 -10.28851 -10.28546 -10.28063
 Alpha  occ. eigenvalues --  -10.28045 -10.27919 -10.27697 -10.26810 -10.26723
 Alpha  occ. eigenvalues --  -10.25956 -10.25826 -10.25811 -10.25688 -10.25686
 Alpha  occ. eigenvalues --  -10.25602 -10.25456 -10.25318 -10.25202 -10.25146
 Alpha  occ. eigenvalues --  -10.25128 -10.25081 -10.24838 -10.24752 -10.24430
 Alpha  occ. eigenvalues --  -10.24327 -10.24285 -10.24265 -10.23981 -10.23685
 Alpha  occ. eigenvalues --  -10.23679 -10.23496 -10.23469 -10.23421 -10.23417
 Alpha  occ. eigenvalues --  -10.23229 -10.23106 -10.22991 -10.22903 -10.22894
 Alpha  occ. eigenvalues --  -10.22871 -10.22773 -10.22729 -10.22674 -10.22501
 Alpha  occ. eigenvalues --  -10.22347 -10.22006 -10.21993 -10.21965 -10.21846
 Alpha  occ. eigenvalues --  -10.21764  -3.14840  -1.87684  -1.87202  -1.87054
 Alpha  occ. eigenvalues --   -1.12101  -1.11876  -1.06318  -1.04289  -1.03285
 Alpha  occ. eigenvalues --   -1.02265  -0.99123  -0.98354  -0.97473  -0.96688
 Alpha  occ. eigenvalues --   -0.86410  -0.85289  -0.84188  -0.83879  -0.83335
 Alpha  occ. eigenvalues --   -0.82778  -0.82347  -0.81432  -0.81159  -0.81131
 Alpha  occ. eigenvalues --   -0.80224  -0.79770  -0.78794  -0.77917  -0.77624
 Alpha  occ. eigenvalues --   -0.76720  -0.76399  -0.75568  -0.75351  -0.74471
 Alpha  occ. eigenvalues --   -0.74234  -0.72702  -0.72552  -0.71682  -0.70441
 Alpha  occ. eigenvalues --   -0.70220  -0.69542  -0.69191  -0.69126  -0.68335
 Alpha  occ. eigenvalues --   -0.67659  -0.66763  -0.65977  -0.64838  -0.62864
 Alpha  occ. eigenvalues --   -0.62712  -0.62486  -0.61842  -0.60875  -0.60078
 Alpha  occ. eigenvalues --   -0.59933  -0.59632  -0.59283  -0.59037  -0.58687
 Alpha  occ. eigenvalues --   -0.58566  -0.57708  -0.57078  -0.56367  -0.54887
 Alpha  occ. eigenvalues --   -0.54393  -0.54221  -0.53521  -0.53115  -0.52529
 Alpha  occ. eigenvalues --   -0.51510  -0.51250  -0.50892  -0.50594  -0.50292
 Alpha  occ. eigenvalues --   -0.50019  -0.49695  -0.49462  -0.49392  -0.48791
 Alpha  occ. eigenvalues --   -0.48283  -0.48241  -0.47821  -0.47638  -0.47330
 Alpha  occ. eigenvalues --   -0.47168  -0.46987  -0.46875  -0.46796  -0.46216
 Alpha  occ. eigenvalues --   -0.46086  -0.45893  -0.45721  -0.45481  -0.45399
 Alpha  occ. eigenvalues --   -0.45326  -0.45113  -0.44993  -0.44839  -0.44118
 Alpha  occ. eigenvalues --   -0.44098  -0.44015  -0.43771  -0.43668  -0.43311
 Alpha  occ. eigenvalues --   -0.43252  -0.43156  -0.42855  -0.42705  -0.42605
 Alpha  occ. eigenvalues --   -0.42439  -0.42114  -0.41837  -0.41632  -0.41586
 Alpha  occ. eigenvalues --   -0.41244  -0.41063  -0.41008  -0.40612  -0.40369
 Alpha  occ. eigenvalues --   -0.40224  -0.40213  -0.40139  -0.39857  -0.39662
 Alpha  occ. eigenvalues --   -0.39393  -0.39340  -0.39143  -0.38973  -0.38790
 Alpha  occ. eigenvalues --   -0.38611  -0.38421  -0.38318  -0.38134  -0.38081
 Alpha  occ. eigenvalues --   -0.37961  -0.37772  -0.37344  -0.37159  -0.36999
 Alpha  occ. eigenvalues --   -0.36960  -0.36713  -0.36260  -0.35657  -0.35520
 Alpha  occ. eigenvalues --   -0.35495  -0.35336  -0.35053  -0.34939  -0.34847
 Alpha  occ. eigenvalues --   -0.34642  -0.34575  -0.34437  -0.33887  -0.33595
 Alpha  occ. eigenvalues --   -0.33523  -0.33322  -0.33051  -0.32678  -0.32313
 Alpha  occ. eigenvalues --   -0.32239  -0.32192  -0.31750  -0.31657  -0.31179
 Alpha  occ. eigenvalues --   -0.31058  -0.30940  -0.30411  -0.29882  -0.29525
 Alpha  occ. eigenvalues --   -0.29383  -0.28884  -0.28432  -0.26733  -0.25871
 Alpha  occ. eigenvalues --   -0.25848  -0.25238  -0.24693  -0.24600  -0.20897
 Alpha  occ. eigenvalues --   -0.18653
 Alpha virt. eigenvalues --   -0.10908  -0.05586  -0.03744  -0.01647  -0.01334
 Alpha virt. eigenvalues --   -0.00805  -0.00084   0.00596   0.01064   0.03109
 Alpha virt. eigenvalues --    0.03943   0.04294   0.04963   0.05591   0.05805

 Mulliken charges:
               1
     1  Mg   0.944351
     2  C   -0.064672
     3  C   -0.100210
     4  C   -0.030747
     5  C   -0.058081
     6  N   -0.427646
     7  C    0.061441
     8  C   -0.172330
     9  C   -0.121721
    10  C    0.103251
    11  C    0.000581
    12  C    0.005535
    13  C    0.040222
    14  C    0.215284
    15  O   -0.281226
    16  O   -0.367789
    17  N   -0.523403
    18  C    0.209655
    19  C   -0.188984
    20  C   -0.054945
    21  C    0.137487
    22  C    0.071761
    23  C    0.028469
    24  O   -0.249858
    25  C   -0.040555
    26  N   -0.313794
    27  C    0.072081
    28  C   -0.130080
    29  C   -0.122657
    30  C    0.077161
    31  C    0.015482
    32  C   -0.031541
    33  C   -0.057097
    34  N   -0.458303
    35  C    0.126022
    36  C   -0.188612
    37  C   -0.066998
    38  C    0.191322
    39  C    0.062777
    40  C    0.158292
    41  O   -0.161159
    42  C   -0.114000
    43  C    0.262665
    44  O   -0.254048
    45  O   -0.347267
    46  C    0.105325
    47  C    0.237467
    48  C   -0.158873
    49  C   -0.219355
    50  C    0.029953
    51  C   -0.011566
    52  C   -0.061974
    53  C    0.023852
    54  C   -0.261704
    55  C   -0.001855
    56  C    0.003450
    57  C   -0.055975
    58  C   -0.014244
    59  C   -0.208283
    60  C    0.005781
    61  C   -0.018403
    62  C   -0.057691
    63  C   -0.012897
    64  C   -0.232145
    65  C   -0.020286
    66  C   -0.040529
    67  H    0.022278
    68  H    0.032290
    69  H    0.005669
    70  H    0.060536
    71  H    0.050032
    72  H    0.033854
    73  H    0.055456
    74  H    0.041232
    75  H    0.043680
    76  H    0.056544
    77  H    0.054889
    78  H    0.069476
    79  H    0.048143
    80  H    0.067169
    81  H    0.047956
    82  H    0.057699
    83  H    0.064938
    84  H    0.057040
    85  H    0.048407
    86  H    0.037641
    87  H    0.053501
    88  H    0.045768
    89  H    0.037773
    90  H    0.036416
    91  H    0.033817
    92  H    0.033502
    93  H    0.057308
    94  H    0.043046
    95  H    0.044466
    96  H    0.052464
    97  H    0.059937
    98  H    0.094505
    99  H    0.069597
   100  H    0.068926
   101  H    0.053678
   102  H    0.057779
   103  H    0.070363
   104  H    0.038396
   105  H    0.060270
   106  H    0.066166
   107  H    0.028824
   108  H    0.045588
   109  H    0.019287
   110  H    0.037568
   111  H    0.033583
   112  H    0.025548
   113  H    0.033660
   114  H    0.042604
   115  H    0.033682
   116  H    0.025330
   117  H    0.034872
   118  H    0.035259
   119  H    0.027491
   120  H    0.028394
   121  H    0.044558
   122  H    0.025733
   123  H    0.016237
   124  H    0.030758
   125  H    0.030362
   126  H    0.022040
   127  H    0.036664
   128  H    0.035693
   129  H    0.042366
   130  H    0.026532
   131  H    0.028007
   132  H    0.030622
   133  H    0.028569
   134  H    0.032579
   135  H    0.025709
   136  H    0.032424
   137  H    0.042764
   138  H    0.028903
   139  H    0.036363
   140  H    0.032658
 Sum of Mulliken charges =  -0.00000

 Dipole moment (field-independent basis, Debye):
    X=              5.2483    Y=              2.7168    Z=             -0.7226  Tot=              5.9538
 Quadrupole moment (field-independent basis, Debye-Ang):
   XX=           -386.6691   YY=           -439.1785   ZZ=           -398.1887
   XY=            -32.6984   XZ=             -7.9944   YZ=             -4.8639

 Normal termination of Gaussian 16 at Sat Apr 30 20:46:48 2022.
