 Gaussian 16, Revision A.03,
 Gaussian 16:  ES64L-G16RevA.03 25-Dec-2016

 --------------------------------
 #p wB97XD/Def2SVP td=(nstates=5)
 --------------------------------

 ----------------------------------------------------
 step_901_chromophore_15 TDDFT with wB97XD functional
 ----------------------------------------------------
 Symbolic Z-matrix:
 Charge =  0 Multiplicity = 1

                         Standard orientation:
 ---------------------------------------------------------------------
 Center     Atomic      Atomic             Coordinates (Angstroms)
 Number     Number       Type             X           Y           Z
 ---------------------------------------------------------------------
      1         12           0       -4.612661    0.897634   -0.104319
      2          6           0       -4.255438   -2.564330    0.240424
      3          6           0       -1.194663    1.275487    0.020395
      4          6           0       -5.047905    4.241380    0.454253
      5          6           0       -8.091547    0.456646    0.901430
      6          7           0       -3.012265   -0.558000   -0.172086
      7          6           0       -3.090579   -1.914370   -0.112521
      8          6           0       -1.730980   -2.501491   -0.299155
      9          6           0       -0.777725   -1.302305    0.131135
     10          6           0       -1.701937   -0.071995    0.020430
     11          6           0        0.032767   -1.414728    1.442368
     12          6           0       -1.525737   -2.847865   -1.770490
     13          6           0       -0.436997   -3.904480   -2.074732
     14          6           0        0.751587   -4.076644   -1.147288
     15          8           0        0.803004   -4.810026   -0.153481
     16          8           0        1.843135   -3.356808   -1.584280
     17          7           0       -3.284486    2.501255   -0.066736
     18          6           0       -1.902134    2.436513   -0.080241
     19          6           0       -1.428664    3.808763   -0.239631
     20          6           0       -2.523737    4.688759   -0.027173
     21          6           0       -3.692834    3.811693    0.160771
     22          6           0        0.068354    4.048061   -0.439762
     23          6           0       -2.484660    6.174534   -0.038875
     24          8           0       -3.493157    6.883041    0.037622
     25          6           0       -1.101261    6.938832   -0.177151
     26          7           0       -6.341362    2.204175    0.668753
     27          6           0       -6.254589    3.505762    0.545030
     28          6           0       -7.653893    4.182679    0.830401
     29          6           0       -8.593617    2.912571    0.714429
     30          6           0       -7.633533    1.771608    0.756641
     31          6           0       -7.649316    4.878804    2.242603
     32          6           0       -9.423917    2.937934   -0.597461
     33          6           0      -10.871873    2.434846   -0.519912
     34          7           0       -5.986147   -0.682511    0.357099
     35          6           0       -7.346931   -0.704206    0.684063
     36          6           0       -7.731028   -2.114419    0.707470
     37          6           0       -6.546827   -2.821559    0.498040
     38          6           0       -5.523837   -1.921045    0.405636
     39          6           0       -9.186957   -2.521111    0.882149
     40          6           0       -6.025737   -4.172831    0.407332
     41          8           0       -6.594634   -5.203339    0.308762
     42          6           0       -4.499129   -4.060804    0.663790
     43          6           0       -3.726515   -5.173384   -0.066777
     44          8           0       -4.061460   -5.679750   -1.135389
     45          8           0       -2.796347   -5.635544    0.771312
     46          6           0       -2.011645   -6.807383    0.515055
     47          6           0        3.086423   -3.651091   -0.888299
     48          6           0        4.033874   -2.511250   -1.399675
     49          6           0        5.426099   -2.446043   -1.496592
     50          6           0        6.353697   -3.350329   -0.774412
     51          6           0        6.143599   -1.467727   -2.384043
     52          6           0        5.845430    0.025138   -2.242358
     53          6           0        6.543011    0.898350   -3.259607
     54          6           0        7.259159    2.148824   -2.550120
     55          6           0        6.682798    3.516748   -3.021073
     56          6           0        8.757083    2.111259   -2.927779
     57          6           0        9.347130    0.900673   -2.180861
     58          6           0       10.659585    1.314107   -1.388935
     59          6           0       10.403266    2.092163   -0.063712
     60          6           0       10.640200    3.601640   -0.283416
     61          6           0       11.351716    1.552015    1.038400
     62          6           0       10.683757    0.391148    1.845766
     63          6           0       11.687261   -0.359236    2.762806
     64          6           0       11.226386   -0.735254    4.227999
     65          6           0       10.728037    0.447289    5.102558
     66          6           0       12.295894   -1.605381    5.000821
     67          1           0       -0.138386    1.291422    0.297831
     68          1           0       -5.076352    5.324754    0.591697
     69          1           0       -9.173657    0.362910    1.012049
     70          1           0       -1.668129   -3.404595    0.306962
     71          1           0        0.017849   -1.377959   -0.608995
     72          1           0        1.115439   -1.490805    1.338696
     73          1           0       -0.359964   -2.345778    1.852194
     74          1           0        0.037157   -0.579266    2.140842
     75          1           0       -1.485612   -1.960066   -2.399902
     76          1           0       -2.444643   -3.325566   -2.112264
     77          1           0       -0.026522   -3.664972   -3.054820
     78          1           0       -0.914525   -4.872654   -2.228900
     79          1           0        0.543281    3.107736   -0.719452
     80          1           0        0.500848    4.575571    0.411054
     81          1           0        0.119819    4.701381   -1.311537
     82          1           0       -1.369670    7.982752   -0.021443
     83          1           0       -0.704424    6.809232   -1.184379
     84          1           0       -0.395950    6.599843    0.583103
     85          1           0       -7.943150    4.963502    0.127178
     86          1           0       -9.348484    2.812985    1.493878
     87          1           0       -8.189858    4.406228    3.062665
     88          1           0       -7.810483    5.948206    2.107870
     89          1           0       -6.593461    4.836653    2.512769
     90          1           0       -8.897390    2.366723   -1.362190
     91          1           0       -9.428032    3.954486   -0.990560
     92          1           0      -11.194054    2.435369    0.521589
     93          1           0      -11.019418    1.469875   -1.004489
     94          1           0      -11.431849    3.232760   -1.006313
     95          1           0       -9.783810   -1.988339    0.142022
     96          1           0       -9.610897   -2.273002    1.855217
     97          1           0       -9.285621   -3.588762    0.688335
     98          1           0       -4.172985   -4.133854    1.701262
     99          1           0       -1.953563   -7.456970    1.388484
    100          1           0       -1.036664   -6.513358    0.126032
    101          1           0       -2.533328   -7.241163   -0.337948
    102          1           0        3.435715   -4.634391   -1.201679
    103          1           0        2.937123   -3.645422    0.192174
    104          1           0        3.482496   -1.667267   -1.814629
    105          1           0        6.897510   -2.645117   -0.145044
    106          1           0        6.890959   -3.940372   -1.516534
    107          1           0        5.803295   -3.983765   -0.079680
    108          1           0        5.930227   -1.672284   -3.433124
    109          1           0        7.224039   -1.552830   -2.274606
    110          1           0        6.071409    0.340041   -1.224210
    111          1           0        4.789096    0.051452   -2.509212
    112          1           0        5.743175    1.290110   -3.888693
    113          1           0        7.151382    0.295901   -3.935468
    114          1           0        7.130672    2.178435   -1.467505
    115          1           0        5.872713    3.774894   -2.338868
    116          1           0        6.322183    3.347958   -4.035424
    117          1           0        7.356527    4.368261   -3.116467
    118          1           0        9.336682    3.021036   -2.773321
    119          1           0        8.725245    1.835532   -3.982697
    120          1           0        9.695581    0.174015   -2.914751
    121          1           0        8.639755    0.442678   -1.489934
    122          1           0       11.356705    1.886905   -2.000108
    123          1           0       11.203258    0.407172   -1.124492
    124          1           0        9.360962    1.911649    0.199573
    125          1           0       11.125583    3.906451   -1.210087
    126          1           0       11.343679    3.948196    0.473156
    127          1           0        9.700288    4.151905   -0.240504
    128          1           0       11.529393    2.312551    1.798527
    129          1           0       12.252505    1.119436    0.601877
    130          1           0       10.173641   -0.346957    1.225812
    131          1           0        9.934511    0.836667    2.501234
    132          1           0       12.637778    0.167100    2.851422
    133          1           0       11.855060   -1.347574    2.336078
    134          1           0       10.433632   -1.475809    4.122147
    135          1           0       11.086343    0.358922    6.128499
    136          1           0        9.652524    0.362858    5.254685
    137          1           0       10.961501    1.449515    4.744972
    138          1           0       12.200044   -1.493002    6.080222
    139          1           0       13.300870   -1.321424    4.685418
    140          1           0       12.184027   -2.683137    4.888103
 ---------------------------------------------------------------------

 SCF Done:  E(RwB97XD) =  -3007.87755325     A.U. after   20 cycles

 Excitation energies and oscillator strengths:

 Excited State   1:      Singlet-A      1.6675 eV  743.52 nm  f=0.3531  <S**2>=0.000
     245 -> 248       -0.19717
     246 -> 247        0.68009
     245 <- 248       -0.11785
 This state for optimization and/or second-order correction.
 Total Energy, E(TD-HF/TD-DFT) =  -3007.81627295
 Copying the excited state density for this state as the 1-particle RhoCI density.

 Excited State   2:      Singlet-A      2.1708 eV  571.15 nm  f=0.0761  <S**2>=0.000
     245 -> 247        0.62181
     246 -> 248        0.32187

 Excited State   3:      Singlet-A      3.3869 eV  366.07 nm  f=0.3670  <S**2>=0.000
     241 -> 247        0.30761
     242 -> 247        0.29911
     244 -> 247        0.11179
     245 -> 247       -0.21782
     246 -> 248        0.49025

 Excited State   4:      Singlet-A      3.4173 eV  362.81 nm  f=0.0434  <S**2>=0.000
     242 -> 247        0.15452
     244 -> 247        0.62816
     244 -> 249        0.10970
     246 -> 248       -0.21025

 Excited State   5:      Singlet-A      3.5927 eV  345.10 nm  f=0.0816  <S**2>=0.000
     239 -> 247        0.22489
     239 -> 249       -0.20555
     240 -> 247        0.44210
     240 -> 248       -0.10908
     240 -> 249       -0.27632
     241 -> 247       -0.12311
     242 -> 247       -0.16431
     245 -> 247       -0.10274
     246 -> 248        0.13614

 The electronic state is 1-A.
 Alpha  occ. eigenvalues --  -46.95907 -19.31340 -19.30104 -19.26093 -19.24418
 Alpha  occ. eigenvalues --  -19.24090 -19.23227 -14.46841 -14.46218 -14.44522
 Alpha  occ. eigenvalues --  -14.43204 -10.44463 -10.42918 -10.39727 -10.37699
 Alpha  occ. eigenvalues --  -10.37039 -10.36425 -10.35451 -10.34988 -10.34502
 Alpha  occ. eigenvalues --  -10.34392 -10.34193 -10.33959 -10.33529 -10.32757
 Alpha  occ. eigenvalues --  -10.32142 -10.32106 -10.32084 -10.31979 -10.31914
 Alpha  occ. eigenvalues --  -10.31901 -10.31842 -10.31752 -10.31623 -10.31578
 Alpha  occ. eigenvalues --  -10.31542 -10.31383 -10.31233 -10.30868 -10.30847
 Alpha  occ. eigenvalues --  -10.30767 -10.30681 -10.30549 -10.30477 -10.30272
 Alpha  occ. eigenvalues --  -10.30136 -10.29832 -10.29792 -10.29778 -10.29689
 Alpha  occ. eigenvalues --  -10.29662 -10.29398 -10.29353 -10.29276 -10.29260
 Alpha  occ. eigenvalues --  -10.29216 -10.29179 -10.29135 -10.29063 -10.28883
 Alpha  occ. eigenvalues --  -10.28752 -10.28455 -10.28436 -10.28409 -10.28308
 Alpha  occ. eigenvalues --  -10.27800  -3.21690  -1.95278  -1.94797  -1.94645
 Alpha  occ. eigenvalues --   -1.19455  -1.19171  -1.13557  -1.12014  -1.10607
 Alpha  occ. eigenvalues --   -1.09534  -1.06456  -1.05600  -1.04920  -1.04172
 Alpha  occ. eigenvalues --   -0.93873  -0.92990  -0.91829  -0.91557  -0.90884
 Alpha  occ. eigenvalues --   -0.90474  -0.90025  -0.89302  -0.88853  -0.88750
 Alpha  occ. eigenvalues --   -0.87783  -0.87289  -0.86459  -0.85466  -0.85261
 Alpha  occ. eigenvalues --   -0.84326  -0.84049  -0.83206  -0.83014  -0.82200
 Alpha  occ. eigenvalues --   -0.82084  -0.80530  -0.80146  -0.79250  -0.77983
 Alpha  occ. eigenvalues --   -0.77894  -0.77259  -0.76911  -0.76690  -0.76022
 Alpha  occ. eigenvalues --   -0.75255  -0.74276  -0.73505  -0.72448  -0.70430
 Alpha  occ. eigenvalues --   -0.70279  -0.70147  -0.69401  -0.68549  -0.67775
 Alpha  occ. eigenvalues --   -0.67436  -0.67132  -0.66695  -0.66435  -0.66298
 Alpha  occ. eigenvalues --   -0.66134  -0.65411  -0.64401  -0.64007  -0.62368
 Alpha  occ. eigenvalues --   -0.61952  -0.61615  -0.60943  -0.60462  -0.59816
 Alpha  occ. eigenvalues --   -0.58935  -0.58671  -0.58366  -0.57916  -0.57769
 Alpha  occ. eigenvalues --   -0.57452  -0.57127  -0.56949  -0.56751  -0.56275
 Alpha  occ. eigenvalues --   -0.55764  -0.55542  -0.55233  -0.54989  -0.54800
 Alpha  occ. eigenvalues --   -0.54644  -0.54452  -0.54301  -0.54200  -0.53601
 Alpha  occ. eigenvalues --   -0.53364  -0.53147  -0.53001  -0.52802  -0.52743
 Alpha  occ. eigenvalues --   -0.52672  -0.52481  -0.52284  -0.52190  -0.51677
 Alpha  occ. eigenvalues --   -0.51473  -0.51346  -0.51041  -0.50958  -0.50611
 Alpha  occ. eigenvalues --   -0.50603  -0.50389  -0.50315  -0.50040  -0.49922
 Alpha  occ. eigenvalues --   -0.49667  -0.49449  -0.49172  -0.48847  -0.48794
 Alpha  occ. eigenvalues --   -0.48453  -0.48203  -0.48161  -0.47845  -0.47552
 Alpha  occ. eigenvalues --   -0.47507  -0.47435  -0.47311  -0.46957  -0.46794
 Alpha  occ. eigenvalues --   -0.46573  -0.46544  -0.46320  -0.46179  -0.45981
 Alpha  occ. eigenvalues --   -0.45740  -0.45570  -0.45495  -0.45296  -0.45202
 Alpha  occ. eigenvalues --   -0.45032  -0.44916  -0.44521  -0.44325  -0.44143
 Alpha  occ. eigenvalues --   -0.44045  -0.43854  -0.43255  -0.42645  -0.42611
 Alpha  occ. eigenvalues --   -0.42447  -0.42385  -0.42142  -0.41997  -0.41959
 Alpha  occ. eigenvalues --   -0.41698  -0.41655  -0.41393  -0.40997  -0.40621
 Alpha  occ. eigenvalues --   -0.40453  -0.40393  -0.40032  -0.39683  -0.39373
 Alpha  occ. eigenvalues --   -0.39273  -0.39178  -0.38790  -0.38578  -0.38156
 Alpha  occ. eigenvalues --   -0.38098  -0.37803  -0.37340  -0.36928  -0.36463
 Alpha  occ. eigenvalues --   -0.36248  -0.35698  -0.35173  -0.33472  -0.33166
 Alpha  occ. eigenvalues --   -0.32610  -0.31941  -0.31355  -0.31130  -0.25924
 Alpha  occ. eigenvalues --   -0.22815
 Alpha virt. eigenvalues --   -0.06742  -0.00220   0.02435   0.04904   0.05211
 Alpha virt. eigenvalues --    0.05490   0.06629   0.07454   0.07878   0.09536
 Alpha virt. eigenvalues --    0.10464   0.10896   0.11623   0.12341   0.12497

 Mulliken charges:
               1
     1  Mg   0.937710
     2  C   -0.074318
     3  C   -0.123025
     4  C   -0.049317
     5  C   -0.071692
     6  N   -0.397400
     7  C    0.030274
     8  C   -0.132321
     9  C   -0.095788
    10  C    0.095774
    11  C    0.008252
    12  C    0.013427
    13  C    0.052913
    14  C    0.201517
    15  O   -0.276076
    16  O   -0.365434
    17  N   -0.495801
    18  C    0.211254
    19  C   -0.181987
    20  C   -0.043819
    21  C    0.130991
    22  C    0.086774
    23  C    0.022327
    24  O   -0.243245
    25  C   -0.025616
    26  N   -0.279094
    27  C    0.061389
    28  C   -0.107783
    29  C   -0.090557
    30  C    0.060333
    31  C    0.025849
    32  C   -0.022738
    33  C   -0.040147
    34  N   -0.419481
    35  C    0.112584
    36  C   -0.188724
    37  C   -0.058904
    38  C    0.170421
    39  C    0.072459
    40  C    0.138312
    41  O   -0.154149
    42  C   -0.072280
    43  C    0.234893
    44  O   -0.246797
    45  O   -0.344215
    46  C    0.124314
    47  C    0.248359
    48  C   -0.168214
    49  C   -0.203559
    50  C    0.045615
    51  C    0.009104
    52  C   -0.040211
    53  C    0.033082
    54  C   -0.225560
    55  C    0.009541
    56  C    0.020012
    57  C   -0.032820
    58  C    0.001678
    59  C   -0.182004
    60  C    0.016199
    61  C    0.004071
    62  C   -0.042592
    63  C    0.000746
    64  C   -0.203953
    65  C   -0.009707
    66  C   -0.027533
    67  H    0.017033
    68  H    0.027753
    69  H   -0.000480
    70  H    0.040066
    71  H    0.036487
    72  H    0.028856
    73  H    0.050585
    74  H    0.036007
    75  H    0.036552
    76  H    0.047842
    77  H    0.050070
    78  H    0.065002
    79  H    0.045058
    80  H    0.063309
    81  H    0.041288
    82  H    0.057057
    83  H    0.060315
    84  H    0.051183
    85  H    0.039761
    86  H    0.024999
    87  H    0.050037
    88  H    0.040868
    89  H    0.028041
    90  H    0.027508
    91  H    0.024231
    92  H    0.026328
    93  H    0.052324
    94  H    0.037292
    95  H    0.037469
    96  H    0.046908
    97  H    0.056009
    98  H    0.087726
    99  H    0.066364
   100  H    0.059897
   101  H    0.049407
   102  H    0.053038
   103  H    0.065865
   104  H    0.032737
   105  H    0.053102
   106  H    0.061293
   107  H    0.023560
   108  H    0.037446
   109  H    0.007098
   110  H    0.028099
   111  H    0.022322
   112  H    0.017328
   113  H    0.024586
   114  H    0.027493
   115  H    0.028110
   116  H    0.017387
   117  H    0.029858
   118  H    0.023820
   119  H    0.016917
   120  H    0.021141
   121  H    0.026670
   122  H    0.016166
   123  H    0.006576
   124  H    0.016768
   125  H    0.024364
   126  H    0.016384
   127  H    0.031196
   128  H    0.025227
   129  H    0.032276
   130  H    0.018474
   131  H    0.016925
   132  H    0.021066
   133  H    0.020082
   134  H    0.021522
   135  H    0.019602
   136  H    0.026746
   137  H    0.036765
   138  H    0.022436
   139  H    0.029757
   140  H    0.027329
 Sum of Mulliken charges =  -0.00000

 Dipole moment (field-independent basis, Debye):
    X=              5.7762    Y=              3.2761    Z=             -0.7706  Tot=              6.6852
 Quadrupole moment (field-independent basis, Debye-Ang):
   XX=           -390.8871   YY=           -436.9142   ZZ=           -397.9279
   XY=            -33.7548   XZ=             -7.6182   YZ=             -5.0292

 Normal termination of Gaussian 16 at Sat Apr 30 21:29:02 2022.
