 Gaussian 16, Revision A.03,
 Gaussian 16:  ES64L-G16RevA.03 25-Dec-2016

 --------------------
 #p ZINDO=(nstates=5)
 --------------------

 -----------------------------
 step_901_chromophore_15 ZINDO
 -----------------------------
 Symbolic Z-matrix:
 Charge =  0 Multiplicity = 1

                         Standard orientation:
 ---------------------------------------------------------------------
 Center     Atomic      Atomic             Coordinates (Angstroms)
 Number     Number       Type             X           Y           Z
 ---------------------------------------------------------------------
      1         12           0       -4.612661    0.897634   -0.104319
      2          6           0       -4.255438   -2.564330    0.240424
      3          6           0       -1.194663    1.275487    0.020395
      4          6           0       -5.047905    4.241380    0.454253
      5          6           0       -8.091547    0.456646    0.901430
      6          7           0       -3.012265   -0.558000   -0.172086
      7          6           0       -3.090579   -1.914370   -0.112521
      8          6           0       -1.730980   -2.501491   -0.299155
      9          6           0       -0.777725   -1.302305    0.131135
     10          6           0       -1.701937   -0.071995    0.020430
     11          6           0        0.032767   -1.414728    1.442368
     12          6           0       -1.525737   -2.847865   -1.770490
     13          6           0       -0.436997   -3.904480   -2.074732
     14          6           0        0.751587   -4.076644   -1.147288
     15          8           0        0.803004   -4.810026   -0.153481
     16          8           0        1.843135   -3.356808   -1.584280
     17          7           0       -3.284486    2.501255   -0.066736
     18          6           0       -1.902134    2.436513   -0.080241
     19          6           0       -1.428664    3.808763   -0.239631
     20          6           0       -2.523737    4.688759   -0.027173
     21          6           0       -3.692834    3.811693    0.160771
     22          6           0        0.068354    4.048061   -0.439762
     23          6           0       -2.484660    6.174534   -0.038875
     24          8           0       -3.493157    6.883041    0.037622
     25          6           0       -1.101261    6.938832   -0.177151
     26          7           0       -6.341362    2.204175    0.668753
     27          6           0       -6.254589    3.505762    0.545030
     28          6           0       -7.653893    4.182679    0.830401
     29          6           0       -8.593617    2.912571    0.714429
     30          6           0       -7.633533    1.771608    0.756641
     31          6           0       -7.649316    4.878804    2.242603
     32          6           0       -9.423917    2.937934   -0.597461
     33          6           0      -10.871873    2.434846   -0.519912
     34          7           0       -5.986147   -0.682511    0.357099
     35          6           0       -7.346931   -0.704206    0.684063
     36          6           0       -7.731028   -2.114419    0.707470
     37          6           0       -6.546827   -2.821559    0.498040
     38          6           0       -5.523837   -1.921045    0.405636
     39          6           0       -9.186957   -2.521111    0.882149
     40          6           0       -6.025737   -4.172831    0.407332
     41          8           0       -6.594634   -5.203339    0.308762
     42          6           0       -4.499129   -4.060804    0.663790
     43          6           0       -3.726515   -5.173384   -0.066777
     44          8           0       -4.061460   -5.679750   -1.135389
     45          8           0       -2.796347   -5.635544    0.771312
     46          6           0       -2.011645   -6.807383    0.515055
     47          6           0        3.086423   -3.651091   -0.888299
     48          6           0        4.033874   -2.511250   -1.399675
     49          6           0        5.426099   -2.446043   -1.496592
     50          6           0        6.353697   -3.350329   -0.774412
     51          6           0        6.143599   -1.467727   -2.384043
     52          6           0        5.845430    0.025138   -2.242358
     53          6           0        6.543011    0.898350   -3.259607
     54          6           0        7.259159    2.148824   -2.550120
     55          6           0        6.682798    3.516748   -3.021073
     56          6           0        8.757083    2.111259   -2.927779
     57          6           0        9.347130    0.900673   -2.180861
     58          6           0       10.659585    1.314107   -1.388935
     59          6           0       10.403266    2.092163   -0.063712
     60          6           0       10.640200    3.601640   -0.283416
     61          6           0       11.351716    1.552015    1.038400
     62          6           0       10.683757    0.391148    1.845766
     63          6           0       11.687261   -0.359236    2.762806
     64          6           0       11.226386   -0.735254    4.227999
     65          6           0       10.728037    0.447289    5.102558
     66          6           0       12.295894   -1.605381    5.000821
     67          1           0       -0.138386    1.291422    0.297831
     68          1           0       -5.076352    5.324754    0.591697
     69          1           0       -9.173657    0.362910    1.012049
     70          1           0       -1.668129   -3.404595    0.306962
     71          1           0        0.017849   -1.377959   -0.608995
     72          1           0        1.115439   -1.490805    1.338696
     73          1           0       -0.359964   -2.345778    1.852194
     74          1           0        0.037157   -0.579266    2.140842
     75          1           0       -1.485612   -1.960066   -2.399902
     76          1           0       -2.444643   -3.325566   -2.112264
     77          1           0       -0.026522   -3.664972   -3.054820
     78          1           0       -0.914525   -4.872654   -2.228900
     79          1           0        0.543281    3.107736   -0.719452
     80          1           0        0.500848    4.575571    0.411054
     81          1           0        0.119819    4.701381   -1.311537
     82          1           0       -1.369670    7.982752   -0.021443
     83          1           0       -0.704424    6.809232   -1.184379
     84          1           0       -0.395950    6.599843    0.583103
     85          1           0       -7.943150    4.963502    0.127178
     86          1           0       -9.348484    2.812985    1.493878
     87          1           0       -8.189858    4.406228    3.062665
     88          1           0       -7.810483    5.948206    2.107870
     89          1           0       -6.593461    4.836653    2.512769
     90          1           0       -8.897390    2.366723   -1.362190
     91          1           0       -9.428032    3.954486   -0.990560
     92          1           0      -11.194054    2.435369    0.521589
     93          1           0      -11.019418    1.469875   -1.004489
     94          1           0      -11.431849    3.232760   -1.006313
     95          1           0       -9.783810   -1.988339    0.142022
     96          1           0       -9.610897   -2.273002    1.855217
     97          1           0       -9.285621   -3.588762    0.688335
     98          1           0       -4.172985   -4.133854    1.701262
     99          1           0       -1.953563   -7.456970    1.388484
    100          1           0       -1.036664   -6.513358    0.126032
    101          1           0       -2.533328   -7.241163   -0.337948
    102          1           0        3.435715   -4.634391   -1.201679
    103          1           0        2.937123   -3.645422    0.192174
    104          1           0        3.482496   -1.667267   -1.814629
    105          1           0        6.897510   -2.645117   -0.145044
    106          1           0        6.890959   -3.940372   -1.516534
    107          1           0        5.803295   -3.983765   -0.079680
    108          1           0        5.930227   -1.672284   -3.433124
    109          1           0        7.224039   -1.552830   -2.274606
    110          1           0        6.071409    0.340041   -1.224210
    111          1           0        4.789096    0.051452   -2.509212
    112          1           0        5.743175    1.290110   -3.888693
    113          1           0        7.151382    0.295901   -3.935468
    114          1           0        7.130672    2.178435   -1.467505
    115          1           0        5.872713    3.774894   -2.338868
    116          1           0        6.322183    3.347958   -4.035424
    117          1           0        7.356527    4.368261   -3.116467
    118          1           0        9.336682    3.021036   -2.773321
    119          1           0        8.725245    1.835532   -3.982697
    120          1           0        9.695581    0.174015   -2.914751
    121          1           0        8.639755    0.442678   -1.489934
    122          1           0       11.356705    1.886905   -2.000108
    123          1           0       11.203258    0.407172   -1.124492
    124          1           0        9.360962    1.911649    0.199573
    125          1           0       11.125583    3.906451   -1.210087
    126          1           0       11.343679    3.948196    0.473156
    127          1           0        9.700288    4.151905   -0.240504
    128          1           0       11.529393    2.312551    1.798527
    129          1           0       12.252505    1.119436    0.601877
    130          1           0       10.173641   -0.346957    1.225812
    131          1           0        9.934511    0.836667    2.501234
    132          1           0       12.637778    0.167100    2.851422
    133          1           0       11.855060   -1.347574    2.336078
    134          1           0       10.433632   -1.475809    4.122147
    135          1           0       11.086343    0.358922    6.128499
    136          1           0        9.652524    0.362858    5.254685
    137          1           0       10.961501    1.449515    4.744972
    138          1           0       12.200044   -1.493002    6.080222
    139          1           0       13.300870   -1.321424    4.685418
    140          1           0       12.184027   -2.683137    4.888103
 ---------------------------------------------------------------------

 SCF Done:  E(RZINDO/S) =  -474.234050340     A.U. after   19 cycles

 Excitation energies and oscillator strengths:

 Excited State   1:      Singlet-A      1.2460 eV  995.04 nm  f=0.5715  <S**2>=0.000
     175 ->178        -0.19656
     176 ->177         0.66212
 This state for optimization and/or second-order correction.
 Total Energy, E(CIS/TDA) =  -474.188259908
 Copying the excited state density for this state as the 1-particle RhoCI density.

 Excited State   2:      Singlet-A      1.9109 eV  648.83 nm  f=0.0147  <S**2>=0.000
     175 ->177         0.51713
     176 ->178         0.45938

 Excited State   3:      Singlet-A      2.9383 eV  421.96 nm  f=0.6114  <S**2>=0.000
     168 ->177         0.11208
     168 ->179        -0.16439
     175 ->177        -0.30831
     176 ->178         0.38286
     176 ->179         0.33578
     176 ->180         0.15127
     176 ->181         0.14193

 Excited State   4:      Singlet-A      2.9480 eV  420.56 nm  f=0.0848  <S**2>=0.000
     167 ->179        -0.13160
     168 ->177         0.30188
     168 ->178        -0.12060
     168 ->179        -0.42446
     168 ->182         0.16776
     168 ->186        -0.18804
     168 ->187        -0.10818
     168 ->195         0.11299
     175 ->177         0.11501
     176 ->178        -0.14183
     176 ->179        -0.11712

 Excited State   5:      Singlet-A      3.0540 eV  405.97 nm  f=0.2638  <S**2>=0.000
     170 ->177        -0.13517
     170 ->179        -0.10052
     170 ->182        -0.23682
     170 ->186        -0.12709
     173 ->177        -0.12065
     175 ->177         0.17952
     176 ->178        -0.19486
     176 ->179         0.16516
     176 ->180         0.34850
     176 ->181         0.33005

 The electronic state is 1-A.
 Alpha  occ. eigenvalues --   -1.84676  -1.80512  -1.79842  -1.73915  -1.73097
 Alpha  occ. eigenvalues --   -1.71128  -1.66778  -1.60537  -1.60460  -1.57797
 Alpha  occ. eigenvalues --   -1.54381  -1.50867  -1.48445  -1.47184  -1.46595
 Alpha  occ. eigenvalues --   -1.44673  -1.42981  -1.39524  -1.38504  -1.38037
 Alpha  occ. eigenvalues --   -1.36528  -1.33651  -1.32815  -1.32349  -1.28886
 Alpha  occ. eigenvalues --   -1.28226  -1.24560  -1.22165  -1.20140  -1.19001
 Alpha  occ. eigenvalues --   -1.17519  -1.15605  -1.15215  -1.14566  -1.13309
 Alpha  occ. eigenvalues --   -1.12628  -1.11002  -1.10244  -1.04248  -1.03425
 Alpha  occ. eigenvalues --   -1.01962  -1.00307  -0.97325  -0.96738  -0.95945
 Alpha  occ. eigenvalues --   -0.95641  -0.95370  -0.93927  -0.92744  -0.92649
 Alpha  occ. eigenvalues --   -0.92215  -0.89873  -0.89552  -0.88672  -0.85893
 Alpha  occ. eigenvalues --   -0.85574  -0.85295  -0.83094  -0.82613  -0.80778
 Alpha  occ. eigenvalues --   -0.79937  -0.79163  -0.78159  -0.77556  -0.76256
 Alpha  occ. eigenvalues --   -0.75361  -0.74487  -0.74190  -0.73260  -0.73165
 Alpha  occ. eigenvalues --   -0.72641  -0.71666  -0.71155  -0.70917  -0.70325
 Alpha  occ. eigenvalues --   -0.69674  -0.69379  -0.68537  -0.68456  -0.67996
 Alpha  occ. eigenvalues --   -0.67378  -0.67072  -0.66931  -0.66364  -0.66347
 Alpha  occ. eigenvalues --   -0.65900  -0.65623  -0.65369  -0.64617  -0.64202
 Alpha  occ. eigenvalues --   -0.63590  -0.63544  -0.62965  -0.62537  -0.62139
 Alpha  occ. eigenvalues --   -0.61789  -0.61226  -0.60736  -0.60285  -0.60158
 Alpha  occ. eigenvalues --   -0.59828  -0.59339  -0.58969  -0.58579  -0.58549
 Alpha  occ. eigenvalues --   -0.58191  -0.57886  -0.57550  -0.57165  -0.56909
 Alpha  occ. eigenvalues --   -0.56604  -0.56189  -0.55075  -0.54945  -0.54698
 Alpha  occ. eigenvalues --   -0.54424  -0.54127  -0.53924  -0.53384  -0.52719
 Alpha  occ. eigenvalues --   -0.52419  -0.52324  -0.51938  -0.51848  -0.51508
 Alpha  occ. eigenvalues --   -0.51196  -0.51080  -0.50844  -0.50523  -0.50389
 Alpha  occ. eigenvalues --   -0.49990  -0.49700  -0.49202  -0.49077  -0.49018
 Alpha  occ. eigenvalues --   -0.48918  -0.48591  -0.48167  -0.48092  -0.47780
 Alpha  occ. eigenvalues --   -0.47558  -0.47216  -0.46845  -0.46524  -0.46415
 Alpha  occ. eigenvalues --   -0.46225  -0.46128  -0.45901  -0.45670  -0.45428
 Alpha  occ. eigenvalues --   -0.45167  -0.45118  -0.44718  -0.44568  -0.44133
 Alpha  occ. eigenvalues --   -0.44105  -0.43817  -0.43717  -0.42698  -0.42223
 Alpha  occ. eigenvalues --   -0.42194  -0.41549  -0.40435  -0.39146  -0.38940
 Alpha  occ. eigenvalues --   -0.37648  -0.36846  -0.35832  -0.34805  -0.34303
 Alpha  occ. eigenvalues --   -0.33409  -0.32226  -0.31555  -0.31427  -0.26624
 Alpha  occ. eigenvalues --   -0.21461
 Alpha virt. eigenvalues --   -0.08205  -0.02243  -0.00451   0.01242   0.01347
 Alpha virt. eigenvalues --    0.01972   0.02631   0.02912   0.03680   0.04855
 Alpha virt. eigenvalues --    0.06200   0.06836   0.07286   0.07943   0.08387

 Mulliken charges:
               1
     1  Mg   0.426950
     2  C   -0.053457
     3  C   -0.077437
     4  C   -0.075359
     5  C   -0.055868
     6  N   -0.294460
     7  C    0.120991
     8  C    0.008429
     9  C    0.001833
    10  C    0.134425
    11  C   -0.056149
    12  C   -0.010440
    13  C    0.007591
    14  C    0.469812
    15  O   -0.527162
    16  O   -0.269602
    17  N   -0.338785
    18  C    0.130116
    19  C    0.011789
    20  C   -0.030113
    21  C    0.134204
    22  C   -0.046066
    23  C    0.319835
    24  O   -0.519116
    25  C   -0.036333
    26  N   -0.257387
    27  C    0.159003
    28  C   -0.002928
    29  C    0.001618
    30  C    0.110534
    31  C   -0.061881
    32  C   -0.031186
    33  C   -0.058730
    34  N   -0.327044
    35  C    0.067304
    36  C    0.010908
    37  C   -0.047461
    38  C    0.122472
    39  C   -0.039623
    40  C    0.343405
    41  O   -0.491009
    42  C    0.043873
    43  C    0.478902
    44  O   -0.518110
    45  O   -0.269746
    46  C    0.069411
    47  C    0.111813
    48  C   -0.118507
    49  C   -0.002135
    50  C   -0.042156
    51  C   -0.018704
    52  C   -0.033732
    53  C   -0.033770
    54  C   -0.014516
    55  C   -0.066975
    56  C   -0.037094
    57  C   -0.041832
    58  C   -0.043955
    59  C   -0.011323
    60  C   -0.060409
    61  C   -0.033186
    62  C   -0.040876
    63  C   -0.036704
    64  C   -0.014340
    65  C   -0.055672
    66  C   -0.062344
    67  H    0.029625
    68  H    0.048562
    69  H    0.027492
    70  H    0.039343
    71  H    0.028695
    72  H    0.018743
    73  H    0.027932
    74  H    0.024369
    75  H    0.031292
    76  H    0.022555
    77  H    0.026142
    78  H    0.047748
    79  H    0.030811
    80  H    0.039683
    81  H    0.026490
    82  H    0.038308
    83  H    0.040175
    84  H    0.034942
    85  H    0.036159
    86  H    0.030280
    87  H    0.034402
    88  H    0.026144
    89  H    0.017596
    90  H    0.018490
    91  H    0.015646
    92  H    0.020156
    93  H    0.030272
    94  H    0.017211
    95  H    0.024344
    96  H    0.030650
    97  H    0.029467
    98  H    0.060842
    99  H    0.046665
   100  H    0.045522
   101  H    0.047329
   102  H    0.049089
   103  H    0.057278
   104  H    0.027350
   105  H    0.036028
   106  H    0.039692
   107  H    0.015895
   108  H    0.024737
   109  H    0.012291
   110  H    0.025891
   111  H    0.019031
   112  H    0.013694
   113  H    0.030052
   114  H    0.026197
   115  H    0.013530
   116  H    0.014945
   117  H    0.021876
   118  H    0.031341
   119  H    0.017131
   120  H    0.013117
   121  H    0.028578
   122  H    0.021272
   123  H    0.007190
   124  H    0.024357
   125  H    0.019049
   126  H    0.015375
   127  H    0.016462
   128  H    0.022833
   129  H    0.028602
   130  H    0.020732
   131  H    0.015449
   132  H    0.022529
   133  H    0.012542
   134  H    0.015318
   135  H    0.015608
   136  H    0.013603
   137  H    0.024429
   138  H    0.016463
   139  H    0.018365
   140  H    0.016461
 Sum of Mulliken charges =  -0.00000

 Dipole moment (field-independent basis, Debye):
    X=              8.2453    Y=              5.2843    Z=             -0.4922  Tot=              9.8057
 N-N= 4.403516902889D+03 E-N= 0.000000000000D+00  KE=-9.481152698542D+03
 Leave Link  601 at Sat Apr 30 21:46:09 2022, MaxMem=  6710886400 cpu:               0.8 elap:               0.1
 (Enter /sw/apps/gaussian-16.0/g16/l9999.exe)
 1\1\GINC-BP1-COMPUTE137\SP\RZINDO CIS\STO-3G\C55H74Mg1N4O6\OF15641\30-
 Apr-2022\0\\#p ZINDO=(nstates=5)\\step_901_chromophore_15 ZINDO\\0,1\M
 g,0,46.492,34.647,28.191\C,0,44.877,32.679,30.589\C,0,46.522,37.306,30
 .375\C,0,47.225,36.726,25.579\C,0,45.39,32.209,25.711\N,0,46.012,34.76
 9,30.298\C,0,45.449,33.826,31.1\C,0,45.404,34.328,32.505\C,0,45.455,35
 .906,32.307\C,0,46.017,36.055,30.878\C,0,44.198,36.748,32.623\C,0,46.6
 39,33.842,33.257\C,0,46.527,33.811,34.8\C,0,45.604,34.772,35.526\O,0,4

 Normal termination of Gaussian 16 at Sat Apr 30 21:46:09 2022.
