 Gaussian 16, Revision A.03,
 Gaussian 16:  ES64L-G16RevA.03 25-Dec-2016

 ------------------------------
 #p blyp/Def2SVP td=(nstates=5)
 ------------------------------

 --------------------------------------------------
 step_901_chromophore_18 TDDFT with blyp functional
 --------------------------------------------------
 Symbolic Z-matrix:
 Charge =  0 Multiplicity = 1

                         Standard orientation:
 ---------------------------------------------------------------------
 Center     Atomic      Atomic             Coordinates (Angstroms)
 Number     Number       Type             X           Y           Z
 ---------------------------------------------------------------------
      1         12           0        5.297540    1.153925    0.486623
      2          6           0        4.655218   -2.211878    0.248546
      3          6           0        1.860130    1.698580    0.142750
      4          6           0        5.866693    4.334423   -0.329446
      5          6           0        8.696650    0.466506   -0.086128
      6          7           0        3.425762   -0.151533    0.176878
      7          6           0        3.453990   -1.480386    0.183864
      8          6           0        1.959137   -2.052251    0.402762
      9          6           0        1.080495   -0.772195    0.046028
     10          6           0        2.162187    0.277819    0.201697
     11          6           0        0.317744   -0.698113   -1.283649
     12          6           0        1.711323   -2.600163    1.861002
     13          6           0        1.114120   -4.049915    1.870192
     14          6           0        0.263421   -4.443680    0.682393
     15          8           0        0.590511   -5.210278   -0.236695
     16          8           0       -1.012606   -3.855776    0.840850
     17          7           0        4.042892    2.854081    0.222407
     18          6           0        2.702370    2.869407    0.096546
     19          6           0        2.231909    4.266836   -0.067899
     20          6           0        3.440946    5.023687   -0.171031
     21          6           0        4.498269    4.139172   -0.086959
     22          6           0        0.815561    4.658573   -0.194029
     23          6           0        3.631392    6.595176   -0.407753
     24          8           0        4.770691    7.142219   -0.514766
     25          6           0        2.343312    7.430296   -0.415550
     26          7           0        7.050390    2.249059   -0.078128
     27          6           0        6.998242    3.502344   -0.393465
     28          6           0        8.468164    4.095728   -0.702902
     29          6           0        9.312931    2.872911   -0.324716
     30          6           0        8.282246    1.815831   -0.095145
     31          6           0        8.764367    4.633550   -2.143487
     32          6           0       10.265300    3.124657    0.968110
     33          6           0        9.654379    3.025759    2.434680
     34          7           0        6.486531   -0.554076    0.143026
     35          6           0        7.823828   -0.694229   -0.103491
     36          6           0        8.142858   -2.078857    0.024856
     37          6           0        6.927560   -2.730857    0.171543
     38          6           0        5.929739   -1.743677    0.122118
     39          6           0        9.515122   -2.613842   -0.003032
     40          6           0        6.274702   -4.073194    0.244054
     41          8           0        6.692969   -5.217742    0.280280
     42          6           0        4.720294   -3.777682    0.239166
     43          6           0        4.163756   -4.575959   -0.871138
     44          8           0        4.135056   -4.214459   -2.096915
     45          8           0        3.748051   -5.810664   -0.457737
     46          6           0        3.033476   -6.633405   -1.454173
     47          6           0       -1.875054   -4.305023   -0.206558
     48          6           0       -2.975405   -3.218350   -0.409350
     49          6           0       -4.139000   -3.193329   -1.025289
     50          6           0       -4.771708   -4.376493   -1.836415
     51          6           0       -5.017713   -1.958094   -1.019404
     52          6           0       -6.204125   -1.998670    0.022636
     53          6           0       -6.417423   -0.656819    0.727303
     54          6           0       -7.697251   -0.500021    1.598736
     55          6           0       -7.291499   -0.471061    3.095131
     56          6           0       -8.616017    0.754583    1.231449
     57          6           0       -9.597185    0.384748    0.138677
     58          6           0      -10.997063    0.192341    0.647693
     59          6           0      -12.113857    0.987142   -0.083181
     60          6           0      -12.171114    2.471144    0.134989
     61          6           0      -13.506978    0.266270    0.031543
     62          6           0      -14.430699    0.444142   -1.193609
     63          6           0      -15.895544    0.773576   -0.795080
     64          6           0      -16.129841    2.298324   -0.542764
     65          6           0      -16.205288    2.568917    0.959059
     66          6           0      -17.386533    2.898066   -1.266657
     67          1           0        0.779340    1.836462    0.070668
     68          1           0        6.218357    5.346775   -0.540740
     69          1           0        9.760670    0.253130   -0.208564
     70          1           0        1.852820   -2.871516   -0.307459
     71          1           0        0.401349   -0.528958    0.863141
     72          1           0        0.655562    0.205463   -1.791264
     73          1           0       -0.718067   -0.725359   -0.948813
     74          1           0        0.494225   -1.520967   -1.976281
     75          1           0        1.047159   -1.892748    2.358371
     76          1           0        2.647480   -2.454214    2.399719
     77          1           0        0.385877   -4.133028    2.677265
     78          1           0        1.980932   -4.698361    2.003124
     79          1           0        0.468933    4.917963   -1.193599
     80          1           0        0.647369    5.503304    0.473831
     81          1           0        0.042194    3.978609    0.163038
     82          1           0        2.530540    8.483309   -0.624685
     83          1           0        1.930835    7.518149    0.589117
     84          1           0        1.626357    7.025550   -1.129130
     85          1           0        8.693465    4.918390   -0.024183
     86          1           0       10.054805    2.577378   -1.067233
     87          1           0        9.086302    5.665911   -2.001832
     88          1           0        7.855428    4.698944   -2.742381
     89          1           0        9.533063    4.126425   -2.726219
     90          1           0       10.805537    4.071547    0.949937
     91          1           0       11.085302    2.410575    0.898881
     92          1           0        9.602676    2.014832    2.838758
     93          1           0        8.607157    3.314400    2.344412
     94          1           0       10.028792    3.803802    3.100680
     95          1           0       10.118690   -2.264139    0.833868
     96          1           0       10.052752   -2.418224   -0.930592
     97          1           0        9.544475   -3.677877    0.236105
     98          1           0        4.340309   -4.155883    1.188216
     99          1           0        2.224193   -6.117497   -1.970224
    100          1           0        2.669279   -7.537772   -0.967548
    101          1           0        3.727187   -6.868274   -2.262130
    102          1           0       -2.360398   -5.243602    0.058661
    103          1           0       -1.419996   -4.538624   -1.168580
    104          1           0       -2.820197   -2.295178    0.148663
    105          1           0       -4.536646   -4.456651   -2.897691
    106          1           0       -5.778084   -4.637390   -1.509277
    107          1           0       -4.285837   -5.329922   -1.626746
    108          1           0       -5.498298   -2.001338   -1.996299
    109          1           0       -4.423964   -1.044374   -1.023250
    110          1           0       -6.094672   -2.764767    0.790191
    111          1           0       -7.175958   -2.276667   -0.386040
    112          1           0       -6.478249    0.140835   -0.012985
    113          1           0       -5.526810   -0.534270    1.343144
    114          1           0       -8.243387   -1.427521    1.426829
    115          1           0       -6.589518   -1.278374    3.308034
    116          1           0       -8.149844   -0.681555    3.734103
    117          1           0       -6.890104    0.538409    3.182527
    118          1           0       -8.001160    1.542223    0.794725
    119          1           0       -9.096269    1.236485    2.083282
    120          1           0       -9.429182   -0.595212   -0.306555
    121          1           0       -9.683227    1.129407   -0.653299
    122          1           0      -11.026950    0.507528    1.691150
    123          1           0      -11.199913   -0.877456    0.584762
    124          1           0      -11.918243    1.095794   -1.150403
    125          1           0      -11.800636    2.958035   -0.766667
    126          1           0      -11.479881    2.808398    0.906830
    127          1           0      -13.115711    2.832313    0.540940
    128          1           0      -14.001098    0.671552    0.914411
    129          1           0      -13.350485   -0.797228    0.212980
    130          1           0      -14.464137   -0.435738   -1.837344
    131          1           0      -14.217597    1.220151   -1.927634
    132          1           0      -16.292213    0.236029    0.066316
    133          1           0      -16.482589    0.426158   -1.645828
    134          1           0      -15.222094    2.871269   -0.733894
    135          1           0      -16.028429    1.677204    1.560646
    136          1           0      -17.100532    3.102572    1.276954
    137          1           0      -15.406659    3.275501    1.184491
    138          1           0      -17.923151    3.693045   -0.749026
    139          1           0      -18.055061    2.062035   -1.470431
    140          1           0      -17.076257    3.314404   -2.224205
 ---------------------------------------------------------------------

 SCF Done:  E(RB-LYP) =  -3007.34318401     A.U. after   21 cycles

 Excitation energies and oscillator strengths:

 Excited State   1:      Singlet-A      1.8828 eV  658.50 nm  f=0.2967  <S**2>=0.000
     245 -> 248        0.18463
     245 -> 249        0.12443
     246 -> 247        0.67721
     246 <- 247       -0.13060
 This state for optimization and/or second-order correction.
 Total Energy, E(TD-HF/TD-DFT) =  -3007.27399139
 Copying the excited state density for this state as the 1-particle RhoCI density.

 Excited State   2:      Singlet-A      2.0016 eV  619.44 nm  f=0.0642  <S**2>=0.000
     244 -> 247        0.14794
     245 -> 247        0.63915
     246 -> 248       -0.20383
     246 -> 249       -0.12170

 Excited State   3:      Singlet-A      2.0942 eV  592.05 nm  f=0.0050  <S**2>=0.000
     244 -> 247        0.68902
     245 -> 247       -0.12774

 Excited State   4:      Singlet-A      2.2521 eV  550.53 nm  f=0.0000  <S**2>=0.000
     243 -> 247        0.70651

 Excited State   5:      Singlet-A      2.3614 eV  525.05 nm  f=0.0017  <S**2>=0.000
     242 -> 247        0.70056

 The electronic state is 1-A.
 Alpha  occ. eigenvalues --  -46.28735 -18.84001 -18.81091 -18.78997 -18.76652
 Alpha  occ. eigenvalues --  -18.75907 -18.74821 -14.03229 -14.02916 -14.00877
 Alpha  occ. eigenvalues --  -14.00441 -10.05822 -10.02950 -10.01392  -9.99925
 Alpha  occ. eigenvalues --   -9.98615  -9.96308  -9.96299  -9.95969  -9.95952
 Alpha  occ. eigenvalues --   -9.95832  -9.95785  -9.95107  -9.94961  -9.94640
 Alpha  occ. eigenvalues --   -9.94574  -9.94390  -9.94194  -9.94166  -9.93721
 Alpha  occ. eigenvalues --   -9.93640  -9.93592  -9.93319  -9.93258  -9.93220
 Alpha  occ. eigenvalues --   -9.93091  -9.93008  -9.92962  -9.92925  -9.92886
 Alpha  occ. eigenvalues --   -9.92639  -9.92635  -9.92598  -9.92553  -9.92396
 Alpha  occ. eigenvalues --   -9.92379  -9.92245  -9.92031  -9.91900  -9.91807
 Alpha  occ. eigenvalues --   -9.91735  -9.91694  -9.91648  -9.91435  -9.91405
 Alpha  occ. eigenvalues --   -9.91390  -9.91281  -9.91209  -9.91209  -9.90973
 Alpha  occ. eigenvalues --   -9.90965  -9.90945  -9.90841  -9.90805  -9.90659
 Alpha  occ. eigenvalues --   -9.90195  -2.93175  -1.73577  -1.73087  -1.72866
 Alpha  occ. eigenvalues --   -0.98873  -0.95477  -0.91424  -0.91304  -0.89756
 Alpha  occ. eigenvalues --   -0.88780  -0.87427  -0.86683  -0.85873  -0.85298
 Alpha  occ. eigenvalues --   -0.74889  -0.73747  -0.73286  -0.72848  -0.72012
 Alpha  occ. eigenvalues --   -0.71814  -0.71121  -0.70910  -0.70667  -0.70279
 Alpha  occ. eigenvalues --   -0.70065  -0.69098  -0.68337  -0.67083  -0.66559
 Alpha  occ. eigenvalues --   -0.66203  -0.65595  -0.65355  -0.64991  -0.64394
 Alpha  occ. eigenvalues --   -0.64091  -0.62740  -0.62544  -0.61537  -0.60987
 Alpha  occ. eigenvalues --   -0.60235  -0.60179  -0.60019  -0.59929  -0.59039
 Alpha  occ. eigenvalues --   -0.58593  -0.57470  -0.56823  -0.55978  -0.55140
 Alpha  occ. eigenvalues --   -0.53749  -0.53467  -0.52748  -0.52517  -0.51633
 Alpha  occ. eigenvalues --   -0.51408  -0.51149  -0.50912  -0.50151  -0.50049
 Alpha  occ. eigenvalues --   -0.49884  -0.49386  -0.48834  -0.47480  -0.47118
 Alpha  occ. eigenvalues --   -0.46715  -0.45875  -0.45716  -0.44931  -0.44251
 Alpha  occ. eigenvalues --   -0.43705  -0.43578  -0.43270  -0.43087  -0.42493
 Alpha  occ. eigenvalues --   -0.42017  -0.41803  -0.41492  -0.41373  -0.41019
 Alpha  occ. eigenvalues --   -0.40868  -0.40597  -0.40378  -0.39952  -0.39811
 Alpha  occ. eigenvalues --   -0.39777  -0.39680  -0.39173  -0.38958  -0.38913
 Alpha  occ. eigenvalues --   -0.38809  -0.38551  -0.38364  -0.38227  -0.38139
 Alpha  occ. eigenvalues --   -0.37853  -0.37788  -0.37554  -0.37408  -0.37137
 Alpha  occ. eigenvalues --   -0.37014  -0.36889  -0.36795  -0.36568  -0.36114
 Alpha  occ. eigenvalues --   -0.36054  -0.36015  -0.35838  -0.35746  -0.35633
 Alpha  occ. eigenvalues --   -0.35595  -0.35376  -0.35135  -0.34916  -0.34689
 Alpha  occ. eigenvalues --   -0.34617  -0.34482  -0.34205  -0.34089  -0.33749
 Alpha  occ. eigenvalues --   -0.33609  -0.33542  -0.33473  -0.33245  -0.32988
 Alpha  occ. eigenvalues --   -0.32984  -0.32624  -0.32511  -0.32364  -0.32235
 Alpha  occ. eigenvalues --   -0.31993  -0.31817  -0.31766  -0.31700  -0.31437
 Alpha  occ. eigenvalues --   -0.31131  -0.31052  -0.30734  -0.30713  -0.30697
 Alpha  occ. eigenvalues --   -0.30398  -0.29961  -0.29885  -0.29820  -0.29573
 Alpha  occ. eigenvalues --   -0.29482  -0.29339  -0.29285  -0.29040  -0.28598
 Alpha  occ. eigenvalues --   -0.28412  -0.28353  -0.28294  -0.28072  -0.27622
 Alpha  occ. eigenvalues --   -0.27459  -0.27255  -0.26666  -0.26616  -0.26475
 Alpha  occ. eigenvalues --   -0.26256  -0.26231  -0.26030  -0.25970  -0.25767
 Alpha  occ. eigenvalues --   -0.25422  -0.25106  -0.23873  -0.23785  -0.23679
 Alpha  occ. eigenvalues --   -0.23571  -0.23064  -0.21863  -0.21096  -0.20671
 Alpha  occ. eigenvalues --   -0.20244  -0.19710  -0.19261  -0.18636  -0.16801
 Alpha  occ. eigenvalues --   -0.15750
 Alpha virt. eigenvalues --   -0.11068  -0.06924  -0.06284  -0.05263  -0.04748
 Alpha virt. eigenvalues --   -0.04376  -0.02390  -0.01569  -0.01177   0.00137
 Alpha virt. eigenvalues --    0.01305   0.01961   0.02373   0.02414   0.02886

 Mulliken charges:
               1
     1  Mg   0.707244
     2  C   -0.030627
     3  C   -0.056376
     4  C   -0.024513
     5  C   -0.090715
     6  N   -0.147238
     7  C   -0.081307
     8  C   -0.052858
     9  C    0.013803
    10  C   -0.078247
    11  C    0.151938
    12  C    0.136861
    13  C    0.164299
    14  C    0.097100
    15  O   -0.189966
    16  O   -0.279625
    17  N   -0.277998
    18  C    0.135233
    19  C   -0.119345
    20  C    0.024352
    21  C    0.114210
    22  C    0.150879
    23  C   -0.013694
    24  O   -0.185000
    25  C    0.113016
    26  N   -0.130751
    27  C   -0.046612
    28  C    0.026647
    29  C    0.034836
    30  C    0.035469
    31  C    0.118549
    32  C    0.030454
    33  C    0.066201
    34  N   -0.247136
    35  C    0.097216
    36  C   -0.183105
    37  C    0.073596
    38  C    0.121644
    39  C    0.172373
    40  C   -0.046123
    41  O   -0.112453
    42  C    0.058374
    43  C    0.153385
    44  O   -0.252103
    45  O   -0.264892
    46  C    0.248044
    47  C    0.316722
    48  C   -0.101553
    49  C   -0.149956
    50  C    0.114742
    51  C    0.173061
    52  C    0.061078
    53  C    0.085533
    54  C   -0.071954
    55  C    0.093879
    56  C    0.124202
    57  C    0.088156
    58  C    0.101618
    59  C   -0.101669
    60  C    0.119397
    61  C    0.133642
    62  C    0.077560
    63  C    0.082256
    64  C   -0.093708
    65  C    0.086595
    66  C    0.107559
    67  H   -0.075896
    68  H   -0.050944
    69  H   -0.057134
    70  H    0.003856
    71  H   -0.024574
    72  H   -0.001409
    73  H    0.000838
    74  H    0.004753
    75  H   -0.026967
    76  H   -0.015412
    77  H   -0.000959
    78  H    0.013663
    79  H    0.013414
    80  H   -0.009365
    81  H   -0.021834
    82  H   -0.014449
    83  H    0.018600
    84  H    0.015540
    85  H   -0.015685
    86  H   -0.029542
    87  H   -0.010074
    88  H   -0.004305
    89  H   -0.003407
    90  H   -0.022171
    91  H   -0.025744
    92  H    0.001787
    93  H   -0.019627
    94  H   -0.004670
    95  H   -0.014958
    96  H    0.008089
    97  H   -0.010052
    98  H   -0.010036
    99  H    0.015092
   100  H    0.009630
   101  H    0.000144
   102  H   -0.003352
   103  H    0.013823
   104  H   -0.037022
   105  H    0.006505
   106  H    0.003177
   107  H   -0.049977
   108  H   -0.031400
   109  H   -0.021238
   110  H   -0.030164
   111  H   -0.030859
   112  H   -0.037270
   113  H   -0.033715
   114  H   -0.045103
   115  H   -0.017001
   116  H   -0.014790
   117  H   -0.002700
   118  H   -0.041250
   119  H   -0.029386
   120  H   -0.026287
   121  H   -0.041556
   122  H   -0.037669
   123  H   -0.043052
   124  H   -0.040205
   125  H   -0.013958
   126  H   -0.041323
   127  H   -0.016933
   128  H   -0.032533
   129  H   -0.037874
   130  H   -0.040007
   131  H   -0.030544
   132  H   -0.031592
   133  H   -0.047169
   134  H   -0.031305
   135  H   -0.008845
   136  H   -0.028799
   137  H   -0.023303
   138  H   -0.012738
   139  H   -0.012961
   140  H   -0.018017
 Sum of Mulliken charges =  -0.00000

 Dipole moment (field-independent basis, Debye):
    X=             -4.5829    Y=              2.4740    Z=              2.7668  Tot=              5.8974
 Quadrupole moment (field-independent basis, Debye-Ang):
   XX=           -400.0837   YY=           -431.4248   ZZ=           -405.7684
   XY=             26.0009   XZ=             17.4289   YZ=             -2.6594

 Normal termination of Gaussian 16 at Sat Apr 30 21:40:22 2022.
