 Gaussian 16, Revision A.03,
 Gaussian 16:  ES64L-G16RevA.03 25-Dec-2016

 -----------------------------------
 #p cam-b3lyp/Def2SVP td=(nstates=5)
 -----------------------------------

 -------------------------------------------------------
 step_901_chromophore_18 TDDFT with cam-b3lyp functional
 -------------------------------------------------------
 Symbolic Z-matrix:
 Charge =  0 Multiplicity = 1

                         Standard orientation:
 ---------------------------------------------------------------------
 Center     Atomic      Atomic             Coordinates (Angstroms)
 Number     Number       Type             X           Y           Z
 ---------------------------------------------------------------------
      1         12           0        5.297540    1.153925    0.486623
      2          6           0        4.655218   -2.211878    0.248546
      3          6           0        1.860130    1.698580    0.142750
      4          6           0        5.866693    4.334423   -0.329446
      5          6           0        8.696650    0.466506   -0.086128
      6          7           0        3.425762   -0.151533    0.176878
      7          6           0        3.453990   -1.480386    0.183864
      8          6           0        1.959137   -2.052251    0.402762
      9          6           0        1.080495   -0.772195    0.046028
     10          6           0        2.162187    0.277819    0.201697
     11          6           0        0.317744   -0.698113   -1.283649
     12          6           0        1.711323   -2.600163    1.861002
     13          6           0        1.114120   -4.049915    1.870192
     14          6           0        0.263421   -4.443680    0.682393
     15          8           0        0.590511   -5.210278   -0.236695
     16          8           0       -1.012606   -3.855776    0.840850
     17          7           0        4.042892    2.854081    0.222407
     18          6           0        2.702370    2.869407    0.096546
     19          6           0        2.231909    4.266836   -0.067899
     20          6           0        3.440946    5.023687   -0.171031
     21          6           0        4.498269    4.139172   -0.086959
     22          6           0        0.815561    4.658573   -0.194029
     23          6           0        3.631392    6.595176   -0.407753
     24          8           0        4.770691    7.142219   -0.514766
     25          6           0        2.343312    7.430296   -0.415550
     26          7           0        7.050390    2.249059   -0.078128
     27          6           0        6.998242    3.502344   -0.393465
     28          6           0        8.468164    4.095728   -0.702902
     29          6           0        9.312931    2.872911   -0.324716
     30          6           0        8.282246    1.815831   -0.095145
     31          6           0        8.764367    4.633550   -2.143487
     32          6           0       10.265300    3.124657    0.968110
     33          6           0        9.654379    3.025759    2.434680
     34          7           0        6.486531   -0.554076    0.143026
     35          6           0        7.823828   -0.694229   -0.103491
     36          6           0        8.142858   -2.078857    0.024856
     37          6           0        6.927560   -2.730857    0.171543
     38          6           0        5.929739   -1.743677    0.122118
     39          6           0        9.515122   -2.613842   -0.003032
     40          6           0        6.274702   -4.073194    0.244054
     41          8           0        6.692969   -5.217742    0.280280
     42          6           0        4.720294   -3.777682    0.239166
     43          6           0        4.163756   -4.575959   -0.871138
     44          8           0        4.135056   -4.214459   -2.096915
     45          8           0        3.748051   -5.810664   -0.457737
     46          6           0        3.033476   -6.633405   -1.454173
     47          6           0       -1.875054   -4.305023   -0.206558
     48          6           0       -2.975405   -3.218350   -0.409350
     49          6           0       -4.139000   -3.193329   -1.025289
     50          6           0       -4.771708   -4.376493   -1.836415
     51          6           0       -5.017713   -1.958094   -1.019404
     52          6           0       -6.204125   -1.998670    0.022636
     53          6           0       -6.417423   -0.656819    0.727303
     54          6           0       -7.697251   -0.500021    1.598736
     55          6           0       -7.291499   -0.471061    3.095131
     56          6           0       -8.616017    0.754583    1.231449
     57          6           0       -9.597185    0.384748    0.138677
     58          6           0      -10.997063    0.192341    0.647693
     59          6           0      -12.113857    0.987142   -0.083181
     60          6           0      -12.171114    2.471144    0.134989
     61          6           0      -13.506978    0.266270    0.031543
     62          6           0      -14.430699    0.444142   -1.193609
     63          6           0      -15.895544    0.773576   -0.795080
     64          6           0      -16.129841    2.298324   -0.542764
     65          6           0      -16.205288    2.568917    0.959059
     66          6           0      -17.386533    2.898066   -1.266657
     67          1           0        0.779340    1.836462    0.070668
     68          1           0        6.218357    5.346775   -0.540740
     69          1           0        9.760670    0.253130   -0.208564
     70          1           0        1.852820   -2.871516   -0.307459
     71          1           0        0.401349   -0.528958    0.863141
     72          1           0        0.655562    0.205463   -1.791264
     73          1           0       -0.718067   -0.725359   -0.948813
     74          1           0        0.494225   -1.520967   -1.976281
     75          1           0        1.047159   -1.892748    2.358371
     76          1           0        2.647480   -2.454214    2.399719
     77          1           0        0.385877   -4.133028    2.677265
     78          1           0        1.980932   -4.698361    2.003124
     79          1           0        0.468933    4.917963   -1.193599
     80          1           0        0.647369    5.503304    0.473831
     81          1           0        0.042194    3.978609    0.163038
     82          1           0        2.530540    8.483309   -0.624685
     83          1           0        1.930835    7.518149    0.589117
     84          1           0        1.626357    7.025550   -1.129130
     85          1           0        8.693465    4.918390   -0.024183
     86          1           0       10.054805    2.577378   -1.067233
     87          1           0        9.086302    5.665911   -2.001832
     88          1           0        7.855428    4.698944   -2.742381
     89          1           0        9.533063    4.126425   -2.726219
     90          1           0       10.805537    4.071547    0.949937
     91          1           0       11.085302    2.410575    0.898881
     92          1           0        9.602676    2.014832    2.838758
     93          1           0        8.607157    3.314400    2.344412
     94          1           0       10.028792    3.803802    3.100680
     95          1           0       10.118690   -2.264139    0.833868
     96          1           0       10.052752   -2.418224   -0.930592
     97          1           0        9.544475   -3.677877    0.236105
     98          1           0        4.340309   -4.155883    1.188216
     99          1           0        2.224193   -6.117497   -1.970224
    100          1           0        2.669279   -7.537772   -0.967548
    101          1           0        3.727187   -6.868274   -2.262130
    102          1           0       -2.360398   -5.243602    0.058661
    103          1           0       -1.419996   -4.538624   -1.168580
    104          1           0       -2.820197   -2.295178    0.148663
    105          1           0       -4.536646   -4.456651   -2.897691
    106          1           0       -5.778084   -4.637390   -1.509277
    107          1           0       -4.285837   -5.329922   -1.626746
    108          1           0       -5.498298   -2.001338   -1.996299
    109          1           0       -4.423964   -1.044374   -1.023250
    110          1           0       -6.094672   -2.764767    0.790191
    111          1           0       -7.175958   -2.276667   -0.386040
    112          1           0       -6.478249    0.140835   -0.012985
    113          1           0       -5.526810   -0.534270    1.343144
    114          1           0       -8.243387   -1.427521    1.426829
    115          1           0       -6.589518   -1.278374    3.308034
    116          1           0       -8.149844   -0.681555    3.734103
    117          1           0       -6.890104    0.538409    3.182527
    118          1           0       -8.001160    1.542223    0.794725
    119          1           0       -9.096269    1.236485    2.083282
    120          1           0       -9.429182   -0.595212   -0.306555
    121          1           0       -9.683227    1.129407   -0.653299
    122          1           0      -11.026950    0.507528    1.691150
    123          1           0      -11.199913   -0.877456    0.584762
    124          1           0      -11.918243    1.095794   -1.150403
    125          1           0      -11.800636    2.958035   -0.766667
    126          1           0      -11.479881    2.808398    0.906830
    127          1           0      -13.115711    2.832313    0.540940
    128          1           0      -14.001098    0.671552    0.914411
    129          1           0      -13.350485   -0.797228    0.212980
    130          1           0      -14.464137   -0.435738   -1.837344
    131          1           0      -14.217597    1.220151   -1.927634
    132          1           0      -16.292213    0.236029    0.066316
    133          1           0      -16.482589    0.426158   -1.645828
    134          1           0      -15.222094    2.871269   -0.733894
    135          1           0      -16.028429    1.677204    1.560646
    136          1           0      -17.100532    3.102572    1.276954
    137          1           0      -15.406659    3.275501    1.184491
    138          1           0      -17.923151    3.693045   -0.749026
    139          1           0      -18.055061    2.062035   -1.470431
    140          1           0      -17.076257    3.314404   -2.224205
 ---------------------------------------------------------------------

 SCF Done:  E(RCAM-B3LYP) =  -3007.13058725     A.U. after   16 cycles

 Excitation energies and oscillator strengths:

 Excited State   1:      Singlet-A      1.8090 eV  685.37 nm  f=0.3704  <S**2>=0.000
     245 -> 248        0.20994
     246 -> 247        0.67642
     245 <- 248        0.10958
 This state for optimization and/or second-order correction.
 Total Energy, E(TD-HF/TD-DFT) =  -3007.06410724
 Copying the excited state density for this state as the 1-particle RhoCI density.

 Excited State   2:      Singlet-A      2.2369 eV  554.27 nm  f=0.1065  <S**2>=0.000
     245 -> 247        0.63777
     246 -> 248       -0.29495

 Excited State   3:      Singlet-A      3.5023 eV  354.01 nm  f=0.3420  <S**2>=0.000
     243 -> 247        0.31951
     244 -> 247       -0.30896
     245 -> 247        0.20145
     246 -> 248        0.49127

 Excited State   4:      Singlet-A      3.5154 eV  352.69 nm  f=0.0894  <S**2>=0.000
     242 -> 247        0.10207
     243 -> 247        0.13859
     244 -> 247        0.59018
     245 -> 247        0.10354
     246 -> 248        0.26237

 Excited State   5:      Singlet-A      3.5948 eV  344.90 nm  f=0.0063  <S**2>=0.000
     246 -> 249        0.34907
     246 -> 250        0.59814

 The electronic state is 1-A.
 Alpha  occ. eigenvalues --  -46.90356 -19.26919 -19.24022 -19.22073 -19.19983
 Alpha  occ. eigenvalues --  -19.19105 -19.17894 -14.42070 -14.41671 -14.39286
 Alpha  occ. eigenvalues --  -14.38739 -10.41302 -10.38531 -10.36875 -10.35291
 Alpha  occ. eigenvalues --  -10.32616 -10.30804 -10.30797 -10.30403 -10.30228
 Alpha  occ. eigenvalues --  -10.29992 -10.29887 -10.29456 -10.29052 -10.28869
 Alpha  occ. eigenvalues --  -10.28799 -10.28651 -10.28377 -10.28171 -10.28029
 Alpha  occ. eigenvalues --  -10.27851 -10.27551 -10.27457 -10.27447 -10.27376
 Alpha  occ. eigenvalues --  -10.27162 -10.27160 -10.27124 -10.27029 -10.26816
 Alpha  occ. eigenvalues --  -10.26752 -10.26721 -10.26319 -10.26252 -10.26187
 Alpha  occ. eigenvalues --  -10.26047 -10.26020 -10.25945 -10.25497 -10.25468
 Alpha  occ. eigenvalues --  -10.25438 -10.25425 -10.25360 -10.25352 -10.25106
 Alpha  occ. eigenvalues --  -10.25079 -10.24991 -10.24955 -10.24918 -10.24814
 Alpha  occ. eigenvalues --  -10.24658 -10.24589 -10.24438 -10.24420 -10.24314
 Alpha  occ. eigenvalues --  -10.23811  -3.18685  -1.93567  -1.93157  -1.92957
 Alpha  occ. eigenvalues --   -1.17313  -1.13909  -1.09824  -1.09211  -1.08148
 Alpha  occ. eigenvalues --   -1.06532  -1.05152  -1.04278  -1.03740  -1.02874
 Alpha  occ. eigenvalues --   -0.91979  -0.90617  -0.90108  -0.89638  -0.88730
 Alpha  occ. eigenvalues --   -0.88445  -0.87725  -0.87507  -0.87312  -0.86879
 Alpha  occ. eigenvalues --   -0.86558  -0.85475  -0.84612  -0.83228  -0.82668
 Alpha  occ. eigenvalues --   -0.82268  -0.81737  -0.81345  -0.80938  -0.80132
 Alpha  occ. eigenvalues --   -0.79892  -0.78454  -0.78163  -0.76954  -0.76342
 Alpha  occ. eigenvalues --   -0.75562  -0.75535  -0.75396  -0.75204  -0.74288
 Alpha  occ. eigenvalues --   -0.73659  -0.72440  -0.71713  -0.70784  -0.69751
 Alpha  occ. eigenvalues --   -0.68327  -0.68024  -0.67135  -0.66917  -0.65918
 Alpha  occ. eigenvalues --   -0.65476  -0.65136  -0.65052  -0.64136  -0.64097
 Alpha  occ. eigenvalues --   -0.63901  -0.63354  -0.62782  -0.61173  -0.60783
 Alpha  occ. eigenvalues --   -0.60311  -0.59389  -0.59208  -0.58252  -0.57604
 Alpha  occ. eigenvalues --   -0.57254  -0.56971  -0.56739  -0.56469  -0.55623
 Alpha  occ. eigenvalues --   -0.55065  -0.54904  -0.54354  -0.54206  -0.53729
 Alpha  occ. eigenvalues --   -0.53547  -0.53191  -0.53013  -0.52782  -0.52605
 Alpha  occ. eigenvalues --   -0.52487  -0.52287  -0.52086  -0.51523  -0.51353
 Alpha  occ. eigenvalues --   -0.51255  -0.51047  -0.50968  -0.50798  -0.50469
 Alpha  occ. eigenvalues --   -0.50313  -0.50210  -0.50085  -0.49733  -0.49604
 Alpha  occ. eigenvalues --   -0.49299  -0.49241  -0.49038  -0.48743  -0.48505
 Alpha  occ. eigenvalues --   -0.48130  -0.48094  -0.48006  -0.47939  -0.47825
 Alpha  occ. eigenvalues --   -0.47716  -0.47554  -0.47333  -0.47156  -0.46840
 Alpha  occ. eigenvalues --   -0.46762  -0.46231  -0.46134  -0.45913  -0.45429
 Alpha  occ. eigenvalues --   -0.45368  -0.45288  -0.45188  -0.44968  -0.44770
 Alpha  occ. eigenvalues --   -0.44586  -0.44397  -0.44326  -0.44014  -0.43838
 Alpha  occ. eigenvalues --   -0.43489  -0.43449  -0.43299  -0.43118  -0.42956
 Alpha  occ. eigenvalues --   -0.42793  -0.42414  -0.42283  -0.42059  -0.41986
 Alpha  occ. eigenvalues --   -0.41757  -0.41671  -0.41487  -0.41049  -0.40900
 Alpha  occ. eigenvalues --   -0.40681  -0.40541  -0.40429  -0.40299  -0.40168
 Alpha  occ. eigenvalues --   -0.39601  -0.39435  -0.39258  -0.39132  -0.38551
 Alpha  occ. eigenvalues --   -0.38507  -0.38096  -0.37779  -0.37441  -0.37349
 Alpha  occ. eigenvalues --   -0.37272  -0.37003  -0.36792  -0.36660  -0.36412
 Alpha  occ. eigenvalues --   -0.36051  -0.35718  -0.35663  -0.34565  -0.34366
 Alpha  occ. eigenvalues --   -0.34252  -0.33299  -0.32304  -0.31498  -0.30991
 Alpha  occ. eigenvalues --   -0.30851  -0.30533  -0.30004  -0.29491  -0.23393
 Alpha  occ. eigenvalues --   -0.21100
 Alpha virt. eigenvalues --   -0.08029  -0.01677   0.00167   0.00678   0.02262
 Alpha virt. eigenvalues --    0.02567   0.05118   0.05693   0.06210   0.07336
 Alpha virt. eigenvalues --    0.07948   0.08289   0.08623   0.09039   0.09176

 Mulliken charges:
               1
     1  Mg   0.835397
     2  C   -0.055082
     3  C   -0.071802
     4  C   -0.045499
     5  C   -0.092208
     6  N   -0.215701
     7  C   -0.032882
     8  C   -0.106780
     9  C   -0.035726
    10  C   -0.054990
    11  C    0.094276
    12  C    0.090399
    13  C    0.092677
    14  C    0.172375
    15  O   -0.231774
    16  O   -0.341337
    17  N   -0.364849
    18  C    0.145746
    19  C   -0.127389
    20  C   -0.037746
    21  C    0.131785
    22  C    0.089513
    23  C    0.068710
    24  O   -0.225374
    25  C    0.030766
    26  N   -0.204972
    27  C   -0.026289
    28  C   -0.025691
    29  C   -0.022841
    30  C    0.046532
    31  C    0.061178
    32  C   -0.014758
    33  C    0.004800
    34  N   -0.334306
    35  C    0.102627
    36  C   -0.179785
    37  C   -0.007505
    38  C    0.155923
    39  C    0.113297
    40  C    0.059166
    41  O   -0.150768
    42  C   -0.016784
    43  C    0.235940
    44  O   -0.288878
    45  O   -0.326971
    46  C    0.205725
    47  C    0.286107
    48  C   -0.121577
    49  C   -0.173420
    50  C    0.054905
    51  C    0.105508
    52  C    0.014043
    53  C    0.034414
    54  C   -0.127447
    55  C    0.039709
    56  C    0.064966
    57  C    0.030389
    58  C    0.054382
    59  C   -0.155089
    60  C    0.060648
    61  C    0.080847
    62  C    0.021130
    63  C    0.026266
    64  C   -0.154128
    65  C    0.028029
    66  C    0.050801
    67  H   -0.041607
    68  H   -0.010903
    69  H   -0.021541
    70  H    0.032892
    71  H    0.010307
    72  H    0.025475
    73  H    0.021511
    74  H    0.029912
    75  H    0.004550
    76  H    0.016831
    77  H    0.034165
    78  H    0.044087
    79  H    0.039859
    80  H    0.016806
    81  H    0.008594
    82  H    0.021634
    83  H    0.046324
    84  H    0.042048
    85  H    0.018513
    86  H    0.006879
    87  H    0.013527
    88  H    0.021153
    89  H    0.020925
    90  H    0.005717
    91  H    0.001038
    92  H    0.024709
    93  H    0.000346
    94  H    0.019872
    95  H    0.011868
    96  H    0.033390
    97  H    0.019173
    98  H    0.031141
    99  H    0.038563
   100  H    0.034102
   101  H    0.025648
   102  H    0.022323
   103  H    0.043911
   104  H   -0.006563
   105  H    0.032085
   106  H    0.027127
   107  H   -0.023702
   108  H   -0.000077
   109  H    0.008860
   110  H   -0.002818
   111  H   -0.005205
   112  H   -0.009526
   113  H   -0.005871
   114  H   -0.014552
   115  H    0.006658
   116  H    0.009462
   117  H    0.018500
   118  H   -0.010931
   119  H   -0.000177
   120  H    0.000500
   121  H   -0.011342
   122  H   -0.010684
   123  H   -0.013762
   124  H   -0.008751
   125  H    0.009990
   126  H   -0.015465
   127  H    0.002898
   128  H   -0.007392
   129  H   -0.007122
   130  H   -0.009052
   131  H   -0.002848
   132  H   -0.002900
   133  H   -0.015895
   134  H   -0.000993
   135  H    0.013024
   136  H   -0.001843
   137  H   -0.000745
   138  H    0.011186
   139  H    0.009806
   140  H    0.005748
 Sum of Mulliken charges =  -0.00000

 Dipole moment (field-independent basis, Debye):
    X=             -5.0319    Y=              2.9409    Z=              2.8840  Tot=              6.5028
 Quadrupole moment (field-independent basis, Debye-Ang):
   XX=           -400.0729   YY=           -427.2736   ZZ=           -405.8037
   XY=             27.0139   XZ=             18.1201   YZ=             -3.1090

 Normal termination of Gaussian 16 at Sat Apr 30 20:39:23 2022.
