 Gaussian 16, Revision A.03,
 Gaussian 16:  ES64L-G16RevA.03 25-Dec-2016

 ---------------------------------
 #p PBE1PBE/Def2SVP td=(nstates=5)
 ---------------------------------

 -----------------------------------------------------
 step_901_chromophore_18 TDDFT with PBE1PBE functional
 -----------------------------------------------------
 Symbolic Z-matrix:
 Charge =  0 Multiplicity = 1

                         Standard orientation:
 ---------------------------------------------------------------------
 Center     Atomic      Atomic             Coordinates (Angstroms)
 Number     Number       Type             X           Y           Z
 ---------------------------------------------------------------------
      1         12           0        5.297540    1.153925    0.486623
      2          6           0        4.655218   -2.211878    0.248546
      3          6           0        1.860130    1.698580    0.142750
      4          6           0        5.866693    4.334423   -0.329446
      5          6           0        8.696650    0.466506   -0.086128
      6          7           0        3.425762   -0.151533    0.176878
      7          6           0        3.453990   -1.480386    0.183864
      8          6           0        1.959137   -2.052251    0.402762
      9          6           0        1.080495   -0.772195    0.046028
     10          6           0        2.162187    0.277819    0.201697
     11          6           0        0.317744   -0.698113   -1.283649
     12          6           0        1.711323   -2.600163    1.861002
     13          6           0        1.114120   -4.049915    1.870192
     14          6           0        0.263421   -4.443680    0.682393
     15          8           0        0.590511   -5.210278   -0.236695
     16          8           0       -1.012606   -3.855776    0.840850
     17          7           0        4.042892    2.854081    0.222407
     18          6           0        2.702370    2.869407    0.096546
     19          6           0        2.231909    4.266836   -0.067899
     20          6           0        3.440946    5.023687   -0.171031
     21          6           0        4.498269    4.139172   -0.086959
     22          6           0        0.815561    4.658573   -0.194029
     23          6           0        3.631392    6.595176   -0.407753
     24          8           0        4.770691    7.142219   -0.514766
     25          6           0        2.343312    7.430296   -0.415550
     26          7           0        7.050390    2.249059   -0.078128
     27          6           0        6.998242    3.502344   -0.393465
     28          6           0        8.468164    4.095728   -0.702902
     29          6           0        9.312931    2.872911   -0.324716
     30          6           0        8.282246    1.815831   -0.095145
     31          6           0        8.764367    4.633550   -2.143487
     32          6           0       10.265300    3.124657    0.968110
     33          6           0        9.654379    3.025759    2.434680
     34          7           0        6.486531   -0.554076    0.143026
     35          6           0        7.823828   -0.694229   -0.103491
     36          6           0        8.142858   -2.078857    0.024856
     37          6           0        6.927560   -2.730857    0.171543
     38          6           0        5.929739   -1.743677    0.122118
     39          6           0        9.515122   -2.613842   -0.003032
     40          6           0        6.274702   -4.073194    0.244054
     41          8           0        6.692969   -5.217742    0.280280
     42          6           0        4.720294   -3.777682    0.239166
     43          6           0        4.163756   -4.575959   -0.871138
     44          8           0        4.135056   -4.214459   -2.096915
     45          8           0        3.748051   -5.810664   -0.457737
     46          6           0        3.033476   -6.633405   -1.454173
     47          6           0       -1.875054   -4.305023   -0.206558
     48          6           0       -2.975405   -3.218350   -0.409350
     49          6           0       -4.139000   -3.193329   -1.025289
     50          6           0       -4.771708   -4.376493   -1.836415
     51          6           0       -5.017713   -1.958094   -1.019404
     52          6           0       -6.204125   -1.998670    0.022636
     53          6           0       -6.417423   -0.656819    0.727303
     54          6           0       -7.697251   -0.500021    1.598736
     55          6           0       -7.291499   -0.471061    3.095131
     56          6           0       -8.616017    0.754583    1.231449
     57          6           0       -9.597185    0.384748    0.138677
     58          6           0      -10.997063    0.192341    0.647693
     59          6           0      -12.113857    0.987142   -0.083181
     60          6           0      -12.171114    2.471144    0.134989
     61          6           0      -13.506978    0.266270    0.031543
     62          6           0      -14.430699    0.444142   -1.193609
     63          6           0      -15.895544    0.773576   -0.795080
     64          6           0      -16.129841    2.298324   -0.542764
     65          6           0      -16.205288    2.568917    0.959059
     66          6           0      -17.386533    2.898066   -1.266657
     67          1           0        0.779340    1.836462    0.070668
     68          1           0        6.218357    5.346775   -0.540740
     69          1           0        9.760670    0.253130   -0.208564
     70          1           0        1.852820   -2.871516   -0.307459
     71          1           0        0.401349   -0.528958    0.863141
     72          1           0        0.655562    0.205463   -1.791264
     73          1           0       -0.718067   -0.725359   -0.948813
     74          1           0        0.494225   -1.520967   -1.976281
     75          1           0        1.047159   -1.892748    2.358371
     76          1           0        2.647480   -2.454214    2.399719
     77          1           0        0.385877   -4.133028    2.677265
     78          1           0        1.980932   -4.698361    2.003124
     79          1           0        0.468933    4.917963   -1.193599
     80          1           0        0.647369    5.503304    0.473831
     81          1           0        0.042194    3.978609    0.163038
     82          1           0        2.530540    8.483309   -0.624685
     83          1           0        1.930835    7.518149    0.589117
     84          1           0        1.626357    7.025550   -1.129130
     85          1           0        8.693465    4.918390   -0.024183
     86          1           0       10.054805    2.577378   -1.067233
     87          1           0        9.086302    5.665911   -2.001832
     88          1           0        7.855428    4.698944   -2.742381
     89          1           0        9.533063    4.126425   -2.726219
     90          1           0       10.805537    4.071547    0.949937
     91          1           0       11.085302    2.410575    0.898881
     92          1           0        9.602676    2.014832    2.838758
     93          1           0        8.607157    3.314400    2.344412
     94          1           0       10.028792    3.803802    3.100680
     95          1           0       10.118690   -2.264139    0.833868
     96          1           0       10.052752   -2.418224   -0.930592
     97          1           0        9.544475   -3.677877    0.236105
     98          1           0        4.340309   -4.155883    1.188216
     99          1           0        2.224193   -6.117497   -1.970224
    100          1           0        2.669279   -7.537772   -0.967548
    101          1           0        3.727187   -6.868274   -2.262130
    102          1           0       -2.360398   -5.243602    0.058661
    103          1           0       -1.419996   -4.538624   -1.168580
    104          1           0       -2.820197   -2.295178    0.148663
    105          1           0       -4.536646   -4.456651   -2.897691
    106          1           0       -5.778084   -4.637390   -1.509277
    107          1           0       -4.285837   -5.329922   -1.626746
    108          1           0       -5.498298   -2.001338   -1.996299
    109          1           0       -4.423964   -1.044374   -1.023250
    110          1           0       -6.094672   -2.764767    0.790191
    111          1           0       -7.175958   -2.276667   -0.386040
    112          1           0       -6.478249    0.140835   -0.012985
    113          1           0       -5.526810   -0.534270    1.343144
    114          1           0       -8.243387   -1.427521    1.426829
    115          1           0       -6.589518   -1.278374    3.308034
    116          1           0       -8.149844   -0.681555    3.734103
    117          1           0       -6.890104    0.538409    3.182527
    118          1           0       -8.001160    1.542223    0.794725
    119          1           0       -9.096269    1.236485    2.083282
    120          1           0       -9.429182   -0.595212   -0.306555
    121          1           0       -9.683227    1.129407   -0.653299
    122          1           0      -11.026950    0.507528    1.691150
    123          1           0      -11.199913   -0.877456    0.584762
    124          1           0      -11.918243    1.095794   -1.150403
    125          1           0      -11.800636    2.958035   -0.766667
    126          1           0      -11.479881    2.808398    0.906830
    127          1           0      -13.115711    2.832313    0.540940
    128          1           0      -14.001098    0.671552    0.914411
    129          1           0      -13.350485   -0.797228    0.212980
    130          1           0      -14.464137   -0.435738   -1.837344
    131          1           0      -14.217597    1.220151   -1.927634
    132          1           0      -16.292213    0.236029    0.066316
    133          1           0      -16.482589    0.426158   -1.645828
    134          1           0      -15.222094    2.871269   -0.733894
    135          1           0      -16.028429    1.677204    1.560646
    136          1           0      -17.100532    3.102572    1.276954
    137          1           0      -15.406659    3.275501    1.184491
    138          1           0      -17.923151    3.693045   -0.749026
    139          1           0      -18.055061    2.062035   -1.470431
    140          1           0      -17.076257    3.314404   -2.224205
 ---------------------------------------------------------------------

 SCF Done:  E(RPBE1PBE) =  -3005.31906065     A.U. after   15 cycles

 Excitation energies and oscillator strengths:

 Excited State   1:      Singlet-A      1.9577 eV  633.31 nm  f=0.3634  <S**2>=0.000
     245 -> 248        0.19826
     246 -> 247        0.68274
 This state for optimization and/or second-order correction.
 Total Energy, E(TD-HF/TD-DFT) =  -3005.24711576
 Copying the excited state density for this state as the 1-particle RhoCI density.

 Excited State   2:      Singlet-A      2.2417 eV  553.09 nm  f=0.1021  <S**2>=0.000
     245 -> 247        0.65075
     246 -> 248       -0.26347

 Excited State   3:      Singlet-A      3.1019 eV  399.70 nm  f=0.0002  <S**2>=0.000
     242 -> 247        0.12731
     243 -> 247        0.28211
     244 -> 247        0.60526

 Excited State   4:      Singlet-A      3.2163 eV  385.49 nm  f=0.0154  <S**2>=0.000
     243 -> 247        0.57666
     244 -> 247       -0.32156
     246 -> 248        0.18096

 Excited State   5:      Singlet-A      3.2759 eV  378.47 nm  f=0.1084  <S**2>=0.000
     242 -> 247       -0.45066
     244 -> 247        0.10845
     245 -> 247        0.12874
     246 -> 248        0.45377
     246 -> 249        0.19818

 The electronic state is 1-A.
 Alpha  occ. eigenvalues --  -46.93757 -19.27594 -19.24668 -19.22333 -19.20177
 Alpha  occ. eigenvalues --  -19.19343 -19.18162 -14.41526 -14.41107 -14.38938
 Alpha  occ. eigenvalues --  -14.38403 -10.38351 -10.35545 -10.34028 -10.32485
 Alpha  occ. eigenvalues --  -10.30023 -10.28558 -10.28484 -10.28085 -10.27869
 Alpha  occ. eigenvalues --  -10.27743 -10.27136 -10.27069 -10.26855 -10.26621
 Alpha  occ. eigenvalues --  -10.26492 -10.26136 -10.25999 -10.25948 -10.25673
 Alpha  occ. eigenvalues --  -10.25526 -10.25368 -10.25257 -10.25078 -10.25034
 Alpha  occ. eigenvalues --  -10.25020 -10.24864 -10.24808 -10.24464 -10.24406
 Alpha  occ. eigenvalues --  -10.24387 -10.24059 -10.23912 -10.23895 -10.23651
 Alpha  occ. eigenvalues --  -10.23566 -10.23498 -10.23484 -10.23134 -10.23106
 Alpha  occ. eigenvalues --  -10.22936 -10.22918 -10.22913 -10.22806 -10.22797
 Alpha  occ. eigenvalues --  -10.22765 -10.22634 -10.22499 -10.22473 -10.22234
 Alpha  occ. eigenvalues --  -10.22208 -10.21983 -10.21937 -10.21854 -10.21808
 Alpha  occ. eigenvalues --  -10.21214  -3.15670  -1.88489  -1.88060  -1.87863
 Alpha  occ. eigenvalues --   -1.12097  -1.08678  -1.04593  -1.04047  -1.02808
 Alpha  occ. eigenvalues --   -1.01204  -0.99820  -0.98994  -0.98525  -0.97532
 Alpha  occ. eigenvalues --   -0.86349  -0.84721  -0.84235  -0.83791  -0.82835
 Alpha  occ. eigenvalues --   -0.82752  -0.82002  -0.81659  -0.81542  -0.81154
 Alpha  occ. eigenvalues --   -0.80916  -0.79760  -0.78778  -0.77516  -0.76909
 Alpha  occ. eigenvalues --   -0.76462  -0.75863  -0.75520  -0.75154  -0.74372
 Alpha  occ. eigenvalues --   -0.74241  -0.72766  -0.72389  -0.71271  -0.70505
 Alpha  occ. eigenvalues --   -0.69924  -0.69659  -0.69533  -0.69479  -0.68464
 Alpha  occ. eigenvalues --   -0.67963  -0.66900  -0.66104  -0.65177  -0.64061
 Alpha  occ. eigenvalues --   -0.62581  -0.62460  -0.61447  -0.61245  -0.60387
 Alpha  occ. eigenvalues --   -0.59985  -0.59516  -0.59333  -0.58692  -0.58625
 Alpha  occ. eigenvalues --   -0.58037  -0.57488  -0.56951  -0.55735  -0.55339
 Alpha  occ. eigenvalues --   -0.54718  -0.53973  -0.53765  -0.52879  -0.52212
 Alpha  occ. eigenvalues --   -0.51657  -0.51435  -0.51227  -0.51047  -0.50132
 Alpha  occ. eigenvalues --   -0.49602  -0.49502  -0.48824  -0.48586  -0.48194
 Alpha  occ. eigenvalues --   -0.48015  -0.47663  -0.47507  -0.47314  -0.47123
 Alpha  occ. eigenvalues --   -0.46829  -0.46766  -0.46704  -0.46047  -0.45978
 Alpha  occ. eigenvalues --   -0.45808  -0.45596  -0.45528  -0.45312  -0.44978
 Alpha  occ. eigenvalues --   -0.44862  -0.44767  -0.44716  -0.44274  -0.44153
 Alpha  occ. eigenvalues --   -0.43929  -0.43820  -0.43667  -0.43406  -0.43099
 Alpha  occ. eigenvalues --   -0.42742  -0.42719  -0.42613  -0.42531  -0.42424
 Alpha  occ. eigenvalues --   -0.42325  -0.42173  -0.42011  -0.41747  -0.41528
 Alpha  occ. eigenvalues --   -0.41423  -0.40978  -0.40803  -0.40686  -0.40179
 Alpha  occ. eigenvalues --   -0.40095  -0.40007  -0.39800  -0.39662  -0.39617
 Alpha  occ. eigenvalues --   -0.39216  -0.39147  -0.39124  -0.38767  -0.38697
 Alpha  occ. eigenvalues --   -0.38251  -0.38150  -0.38074  -0.37872  -0.37796
 Alpha  occ. eigenvalues --   -0.37535  -0.37240  -0.37136  -0.36875  -0.36704
 Alpha  occ. eigenvalues --   -0.36444  -0.36359  -0.36282  -0.35815  -0.35702
 Alpha  occ. eigenvalues --   -0.35437  -0.35323  -0.35282  -0.35216  -0.35065
 Alpha  occ. eigenvalues --   -0.34423  -0.34357  -0.34105  -0.34037  -0.33506
 Alpha  occ. eigenvalues --   -0.33382  -0.32886  -0.32652  -0.32446  -0.32202
 Alpha  occ. eigenvalues --   -0.32096  -0.31872  -0.31773  -0.31498  -0.31254
 Alpha  occ. eigenvalues --   -0.31158  -0.30509  -0.30484  -0.29623  -0.29470
 Alpha  occ. eigenvalues --   -0.29237  -0.28876  -0.27070  -0.26611  -0.26260
 Alpha  occ. eigenvalues --   -0.26111  -0.25737  -0.25428  -0.25041  -0.20389
 Alpha  occ. eigenvalues --   -0.18697
 Alpha virt. eigenvalues --   -0.10553  -0.05151  -0.04024  -0.02216  -0.02148
 Alpha virt. eigenvalues --   -0.01988   0.00539   0.01397   0.01756   0.03168
 Alpha virt. eigenvalues --    0.04290   0.04757   0.05138   0.05338   0.05837

 Mulliken charges:
               1
     1  Mg   0.970062
     2  C   -0.070673
     3  C   -0.066557
     4  C   -0.045692
     5  C   -0.080721
     6  N   -0.317081
     7  C    0.054820
     8  C   -0.188018
     9  C   -0.106456
    10  C   -0.012476
    11  C    0.036094
    12  C    0.047598
    13  C    0.013908
    14  C    0.228009
    15  O   -0.264008
    16  O   -0.369274
    17  N   -0.475459
    18  C    0.170828
    19  C   -0.163448
    20  C   -0.073205
    21  C    0.153149
    22  C    0.031776
    23  C    0.118703
    24  O   -0.261665
    25  C   -0.041208
    26  N   -0.319171
    27  C    0.012615
    28  C   -0.098709
    29  C   -0.098003
    30  C    0.083372
    31  C    0.005034
    32  C   -0.068116
    33  C   -0.072679
    34  N   -0.455730
    35  C    0.133163
    36  C   -0.207663
    37  C   -0.055222
    38  C    0.200806
    39  C    0.061388
    40  C    0.158904
    41  O   -0.196060
    42  C   -0.118336
    43  C    0.316512
    44  O   -0.321538
    45  O   -0.358650
    46  C    0.150644
    47  C    0.249195
    48  C   -0.129622
    49  C   -0.220792
    50  C   -0.004287
    51  C    0.035174
    52  C   -0.046840
    53  C   -0.016422
    54  C   -0.212076
    55  C   -0.025469
    56  C    0.007619
    57  C   -0.034781
    58  C    0.001959
    59  C   -0.238921
    60  C    0.001721
    61  C    0.023747
    62  C   -0.044488
    63  C   -0.031450
    64  C   -0.243669
    65  C   -0.030028
    66  C   -0.011149
    67  H   -0.008550
    68  H    0.022164
    69  H    0.008951
    70  H    0.077030
    71  H    0.046117
    72  H    0.053127
    73  H    0.049728
    74  H    0.056891
    75  H    0.036273
    76  H    0.048845
    77  H    0.066801
    78  H    0.076477
    79  H    0.066201
    80  H    0.044941
    81  H    0.035144
    82  H    0.049271
    83  H    0.072246
    84  H    0.068335
    85  H    0.054361
    86  H    0.043221
    87  H    0.040703
    88  H    0.049007
    89  H    0.046919
    90  H    0.038314
    91  H    0.033501
    92  H    0.052464
    93  H    0.032377
    94  H    0.047897
    95  H    0.039733
    96  H    0.060239
    97  H    0.047637
    98  H    0.070524
    99  H    0.060543
   100  H    0.055916
   101  H    0.048648
   102  H    0.049332
   103  H    0.069462
   104  H    0.023506
   105  H    0.058742
   106  H    0.053730
   107  H    0.004317
   108  H    0.034975
   109  H    0.038697
   110  H    0.030085
   111  H    0.026866
   112  H    0.023762
   113  H    0.027085
   114  H    0.024498
   115  H    0.035338
   116  H    0.038157
   117  H    0.046783
   118  H    0.021779
   119  H    0.030112
   120  H    0.033936
   121  H    0.022025
   122  H    0.022460
   123  H    0.017846
   124  H    0.030046
   125  H    0.035772
   126  H    0.013352
   127  H    0.033244
   128  H    0.028311
   129  H    0.025217
   130  H    0.024140
   131  H    0.029207
   132  H    0.029705
   133  H    0.017488
   134  H    0.037023
   135  H    0.038041
   136  H    0.026088
   137  H    0.027076
   138  H    0.037697
   139  H    0.037033
   140  H    0.034081
 Sum of Mulliken charges =  -0.00000

 Dipole moment (field-independent basis, Debye):
    X=             -4.9142    Y=              2.8777    Z=              2.9011  Tot=              6.3912
 Quadrupole moment (field-independent basis, Debye-Ang):
   XX=           -393.2459   YY=           -424.5904   ZZ=           -403.3591
   XY=             27.3700   XZ=             18.4436   YZ=             -2.9612

 Normal termination of Gaussian 16 at Sat Apr 30 21:00:15 2022.
