 Gaussian 16, Revision A.03,
 Gaussian 16:  ES64L-G16RevA.03 25-Dec-2016

 --------------------------------
 #p wB97XD/Def2SVP td=(nstates=5)
 --------------------------------

 ----------------------------------------------------
 step_901_chromophore_18 TDDFT with wB97XD functional
 ----------------------------------------------------
 Symbolic Z-matrix:
 Charge =  0 Multiplicity = 1

                         Standard orientation:
 ---------------------------------------------------------------------
 Center     Atomic      Atomic             Coordinates (Angstroms)
 Number     Number       Type             X           Y           Z
 ---------------------------------------------------------------------
      1         12           0        5.297540    1.153925    0.486623
      2          6           0        4.655218   -2.211878    0.248546
      3          6           0        1.860130    1.698580    0.142750
      4          6           0        5.866693    4.334423   -0.329446
      5          6           0        8.696650    0.466506   -0.086128
      6          7           0        3.425762   -0.151533    0.176878
      7          6           0        3.453990   -1.480386    0.183864
      8          6           0        1.959137   -2.052251    0.402762
      9          6           0        1.080495   -0.772195    0.046028
     10          6           0        2.162187    0.277819    0.201697
     11          6           0        0.317744   -0.698113   -1.283649
     12          6           0        1.711323   -2.600163    1.861002
     13          6           0        1.114120   -4.049915    1.870192
     14          6           0        0.263421   -4.443680    0.682393
     15          8           0        0.590511   -5.210278   -0.236695
     16          8           0       -1.012606   -3.855776    0.840850
     17          7           0        4.042892    2.854081    0.222407
     18          6           0        2.702370    2.869407    0.096546
     19          6           0        2.231909    4.266836   -0.067899
     20          6           0        3.440946    5.023687   -0.171031
     21          6           0        4.498269    4.139172   -0.086959
     22          6           0        0.815561    4.658573   -0.194029
     23          6           0        3.631392    6.595176   -0.407753
     24          8           0        4.770691    7.142219   -0.514766
     25          6           0        2.343312    7.430296   -0.415550
     26          7           0        7.050390    2.249059   -0.078128
     27          6           0        6.998242    3.502344   -0.393465
     28          6           0        8.468164    4.095728   -0.702902
     29          6           0        9.312931    2.872911   -0.324716
     30          6           0        8.282246    1.815831   -0.095145
     31          6           0        8.764367    4.633550   -2.143487
     32          6           0       10.265300    3.124657    0.968110
     33          6           0        9.654379    3.025759    2.434680
     34          7           0        6.486531   -0.554076    0.143026
     35          6           0        7.823828   -0.694229   -0.103491
     36          6           0        8.142858   -2.078857    0.024856
     37          6           0        6.927560   -2.730857    0.171543
     38          6           0        5.929739   -1.743677    0.122118
     39          6           0        9.515122   -2.613842   -0.003032
     40          6           0        6.274702   -4.073194    0.244054
     41          8           0        6.692969   -5.217742    0.280280
     42          6           0        4.720294   -3.777682    0.239166
     43          6           0        4.163756   -4.575959   -0.871138
     44          8           0        4.135056   -4.214459   -2.096915
     45          8           0        3.748051   -5.810664   -0.457737
     46          6           0        3.033476   -6.633405   -1.454173
     47          6           0       -1.875054   -4.305023   -0.206558
     48          6           0       -2.975405   -3.218350   -0.409350
     49          6           0       -4.139000   -3.193329   -1.025289
     50          6           0       -4.771708   -4.376493   -1.836415
     51          6           0       -5.017713   -1.958094   -1.019404
     52          6           0       -6.204125   -1.998670    0.022636
     53          6           0       -6.417423   -0.656819    0.727303
     54          6           0       -7.697251   -0.500021    1.598736
     55          6           0       -7.291499   -0.471061    3.095131
     56          6           0       -8.616017    0.754583    1.231449
     57          6           0       -9.597185    0.384748    0.138677
     58          6           0      -10.997063    0.192341    0.647693
     59          6           0      -12.113857    0.987142   -0.083181
     60          6           0      -12.171114    2.471144    0.134989
     61          6           0      -13.506978    0.266270    0.031543
     62          6           0      -14.430699    0.444142   -1.193609
     63          6           0      -15.895544    0.773576   -0.795080
     64          6           0      -16.129841    2.298324   -0.542764
     65          6           0      -16.205288    2.568917    0.959059
     66          6           0      -17.386533    2.898066   -1.266657
     67          1           0        0.779340    1.836462    0.070668
     68          1           0        6.218357    5.346775   -0.540740
     69          1           0        9.760670    0.253130   -0.208564
     70          1           0        1.852820   -2.871516   -0.307459
     71          1           0        0.401349   -0.528958    0.863141
     72          1           0        0.655562    0.205463   -1.791264
     73          1           0       -0.718067   -0.725359   -0.948813
     74          1           0        0.494225   -1.520967   -1.976281
     75          1           0        1.047159   -1.892748    2.358371
     76          1           0        2.647480   -2.454214    2.399719
     77          1           0        0.385877   -4.133028    2.677265
     78          1           0        1.980932   -4.698361    2.003124
     79          1           0        0.468933    4.917963   -1.193599
     80          1           0        0.647369    5.503304    0.473831
     81          1           0        0.042194    3.978609    0.163038
     82          1           0        2.530540    8.483309   -0.624685
     83          1           0        1.930835    7.518149    0.589117
     84          1           0        1.626357    7.025550   -1.129130
     85          1           0        8.693465    4.918390   -0.024183
     86          1           0       10.054805    2.577378   -1.067233
     87          1           0        9.086302    5.665911   -2.001832
     88          1           0        7.855428    4.698944   -2.742381
     89          1           0        9.533063    4.126425   -2.726219
     90          1           0       10.805537    4.071547    0.949937
     91          1           0       11.085302    2.410575    0.898881
     92          1           0        9.602676    2.014832    2.838758
     93          1           0        8.607157    3.314400    2.344412
     94          1           0       10.028792    3.803802    3.100680
     95          1           0       10.118690   -2.264139    0.833868
     96          1           0       10.052752   -2.418224   -0.930592
     97          1           0        9.544475   -3.677877    0.236105
     98          1           0        4.340309   -4.155883    1.188216
     99          1           0        2.224193   -6.117497   -1.970224
    100          1           0        2.669279   -7.537772   -0.967548
    101          1           0        3.727187   -6.868274   -2.262130
    102          1           0       -2.360398   -5.243602    0.058661
    103          1           0       -1.419996   -4.538624   -1.168580
    104          1           0       -2.820197   -2.295178    0.148663
    105          1           0       -4.536646   -4.456651   -2.897691
    106          1           0       -5.778084   -4.637390   -1.509277
    107          1           0       -4.285837   -5.329922   -1.626746
    108          1           0       -5.498298   -2.001338   -1.996299
    109          1           0       -4.423964   -1.044374   -1.023250
    110          1           0       -6.094672   -2.764767    0.790191
    111          1           0       -7.175958   -2.276667   -0.386040
    112          1           0       -6.478249    0.140835   -0.012985
    113          1           0       -5.526810   -0.534270    1.343144
    114          1           0       -8.243387   -1.427521    1.426829
    115          1           0       -6.589518   -1.278374    3.308034
    116          1           0       -8.149844   -0.681555    3.734103
    117          1           0       -6.890104    0.538409    3.182527
    118          1           0       -8.001160    1.542223    0.794725
    119          1           0       -9.096269    1.236485    2.083282
    120          1           0       -9.429182   -0.595212   -0.306555
    121          1           0       -9.683227    1.129407   -0.653299
    122          1           0      -11.026950    0.507528    1.691150
    123          1           0      -11.199913   -0.877456    0.584762
    124          1           0      -11.918243    1.095794   -1.150403
    125          1           0      -11.800636    2.958035   -0.766667
    126          1           0      -11.479881    2.808398    0.906830
    127          1           0      -13.115711    2.832313    0.540940
    128          1           0      -14.001098    0.671552    0.914411
    129          1           0      -13.350485   -0.797228    0.212980
    130          1           0      -14.464137   -0.435738   -1.837344
    131          1           0      -14.217597    1.220151   -1.927634
    132          1           0      -16.292213    0.236029    0.066316
    133          1           0      -16.482589    0.426158   -1.645828
    134          1           0      -15.222094    2.871269   -0.733894
    135          1           0      -16.028429    1.677204    1.560646
    136          1           0      -17.100532    3.102572    1.276954
    137          1           0      -15.406659    3.275501    1.184491
    138          1           0      -17.923151    3.693045   -0.749026
    139          1           0      -18.055061    2.062035   -1.470431
    140          1           0      -17.076257    3.314404   -2.224205
 ---------------------------------------------------------------------

 SCF Done:  E(RwB97XD) =  -3007.83110816     A.U. after   17 cycles

 Excitation energies and oscillator strengths:

 Excited State   1:      Singlet-A      1.7522 eV  707.60 nm  f=0.3673  <S**2>=0.000
     245 -> 248        0.21570
     246 -> 247        0.67438
     245 <- 248        0.11921
 This state for optimization and/or second-order correction.
 Total Energy, E(TD-HF/TD-DFT) =  -3007.76671721
 Copying the excited state density for this state as the 1-particle RhoCI density.

 Excited State   2:      Singlet-A      2.1815 eV  568.34 nm  f=0.1041  <S**2>=0.000
     245 -> 247        0.63594
     246 -> 248       -0.29705

 Excited State   3:      Singlet-A      3.5138 eV  352.85 nm  f=0.3894  <S**2>=0.000
     243 -> 247        0.36067
     244 -> 247       -0.20128
     245 -> 247        0.21099
     246 -> 248        0.51879

 Excited State   4:      Singlet-A      3.5298 eV  351.25 nm  f=0.0508  <S**2>=0.000
     244 -> 247        0.63341
     246 -> 248        0.19954

 Excited State   5:      Singlet-A      3.6897 eV  336.03 nm  f=0.1079  <S**2>=0.000
     242 -> 247        0.41770
     242 -> 249        0.24553
     242 -> 251        0.24370
     243 -> 247        0.32652
     245 -> 247       -0.10803
     246 -> 248       -0.18756

 The electronic state is 1-A.
 Alpha  occ. eigenvalues --  -46.96694 -19.32147 -19.29233 -19.26994 -19.25045
 Alpha  occ. eigenvalues --  -19.24140 -19.22867 -14.46611 -14.46211 -14.43888
 Alpha  occ. eigenvalues --  -14.43298 -10.45132 -10.42393 -10.40909 -10.39314
 Alpha  occ. eigenvalues --  -10.36501 -10.34821 -10.34817 -10.34424 -10.34286
 Alpha  occ. eigenvalues --  -10.33963 -10.33648 -10.33495 -10.33058 -10.33040
 Alpha  occ. eigenvalues --  -10.32872 -10.32556 -10.32350 -10.32204 -10.32078
 Alpha  occ. eigenvalues --  -10.31805 -10.31595 -10.31558 -10.31552 -10.31379
 Alpha  occ. eigenvalues --  -10.31246 -10.31206 -10.31202 -10.30972 -10.30760
 Alpha  occ. eigenvalues --  -10.30712 -10.30700 -10.30274 -10.30187 -10.30096
 Alpha  occ. eigenvalues --  -10.29961 -10.29884 -10.29880 -10.29551 -10.29384
 Alpha  occ. eigenvalues --  -10.29303 -10.29298 -10.29284 -10.29218 -10.29083
 Alpha  occ. eigenvalues --  -10.29027 -10.29012 -10.28872 -10.28858 -10.28649
 Alpha  occ. eigenvalues --  -10.28582 -10.28411 -10.28318 -10.28261 -10.28231
 Alpha  occ. eigenvalues --  -10.27646  -3.22504  -1.96065  -1.95637  -1.95438
 Alpha  occ. eigenvalues --   -1.19476  -1.16084  -1.12056  -1.11392  -1.10379
 Alpha  occ. eigenvalues --   -1.08532  -1.07152  -1.06304  -1.05921  -1.04937
 Alpha  occ. eigenvalues --   -0.93943  -0.92399  -0.91904  -0.91451  -0.90505
 Alpha  occ. eigenvalues --   -0.90328  -0.89611  -0.89319  -0.89215  -0.88806
 Alpha  occ. eigenvalues --   -0.88485  -0.87384  -0.86435  -0.85148  -0.84553
 Alpha  occ. eigenvalues --   -0.84122  -0.83630  -0.83199  -0.82810  -0.82013
 Alpha  occ. eigenvalues --   -0.81857  -0.80412  -0.80048  -0.78853  -0.78181
 Alpha  occ. eigenvalues --   -0.77508  -0.77348  -0.77185  -0.77121  -0.76130
 Alpha  occ. eigenvalues --   -0.75572  -0.74422  -0.73658  -0.72736  -0.71635
 Alpha  occ. eigenvalues --   -0.70202  -0.70011  -0.69037  -0.68857  -0.67907
 Alpha  occ. eigenvalues --   -0.67422  -0.67016  -0.66967  -0.66129  -0.66083
 Alpha  occ. eigenvalues --   -0.65722  -0.65158  -0.64601  -0.63165  -0.62783
 Alpha  occ. eigenvalues --   -0.62230  -0.61354  -0.61188  -0.60235  -0.59588
 Alpha  occ. eigenvalues --   -0.59186  -0.58879  -0.58667  -0.58457  -0.57536
 Alpha  occ. eigenvalues --   -0.57004  -0.56876  -0.56276  -0.56056  -0.55605
 Alpha  occ. eigenvalues --   -0.55436  -0.55068  -0.54912  -0.54708  -0.54519
 Alpha  occ. eigenvalues --   -0.54404  -0.54163  -0.54045  -0.53394  -0.53270
 Alpha  occ. eigenvalues --   -0.53152  -0.52984  -0.52916  -0.52661  -0.52390
 Alpha  occ. eigenvalues --   -0.52236  -0.52123  -0.52022  -0.51642  -0.51508
 Alpha  occ. eigenvalues --   -0.51198  -0.51130  -0.50956  -0.50668  -0.50425
 Alpha  occ. eigenvalues --   -0.50035  -0.50011  -0.49918  -0.49812  -0.49717
 Alpha  occ. eigenvalues --   -0.49606  -0.49434  -0.49259  -0.49082  -0.48750
 Alpha  occ. eigenvalues --   -0.48709  -0.48158  -0.48019  -0.47863  -0.47332
 Alpha  occ. eigenvalues --   -0.47252  -0.47195  -0.47053  -0.46854  -0.46682
 Alpha  occ. eigenvalues --   -0.46435  -0.46324  -0.46212  -0.45916  -0.45776
 Alpha  occ. eigenvalues --   -0.45431  -0.45316  -0.45203  -0.45004  -0.44871
 Alpha  occ. eigenvalues --   -0.44691  -0.44341  -0.44212  -0.43980  -0.43842
 Alpha  occ. eigenvalues --   -0.43653  -0.43589  -0.43472  -0.42904  -0.42791
 Alpha  occ. eigenvalues --   -0.42540  -0.42470  -0.42307  -0.42236  -0.42054
 Alpha  occ. eigenvalues --   -0.41467  -0.41310  -0.41125  -0.41023  -0.40471
 Alpha  occ. eigenvalues --   -0.40431  -0.39937  -0.39677  -0.39360  -0.39194
 Alpha  occ. eigenvalues --   -0.39120  -0.38839  -0.38825  -0.38502  -0.38260
 Alpha  occ. eigenvalues --   -0.38076  -0.37563  -0.37545  -0.36564  -0.36358
 Alpha  occ. eigenvalues --   -0.36082  -0.35561  -0.34213  -0.33452  -0.33209
 Alpha  occ. eigenvalues --   -0.32873  -0.32541  -0.32164  -0.31640  -0.25305
 Alpha  occ. eigenvalues --   -0.22914
 Alpha virt. eigenvalues --   -0.06374   0.00235   0.02273   0.03896   0.04354
 Alpha virt. eigenvalues --    0.04823   0.07266   0.08111   0.08518   0.09899
 Alpha virt. eigenvalues --    0.10863   0.11201   0.11861   0.12045   0.12507

 Mulliken charges:
               1
     1  Mg   0.963775
     2  C   -0.070121
     3  C   -0.082550
     4  C   -0.057321
     5  C   -0.096811
     6  N   -0.282781
     7  C    0.016393
     8  C   -0.153043
     9  C   -0.081137
    10  C   -0.027414
    11  C    0.046774
    12  C    0.051919
    13  C    0.032857
    14  C    0.218891
    15  O   -0.260793
    16  O   -0.368918
    17  N   -0.445450
    18  C    0.164095
    19  C   -0.150024
    20  C   -0.072358
    21  C    0.149754
    22  C    0.042335
    23  C    0.113796
    24  O   -0.255424
    25  C   -0.030475
    26  N   -0.278717
    27  C   -0.004550
    28  C   -0.075488
    29  C   -0.072441
    30  C    0.066942
    31  C    0.014588
    32  C   -0.058298
    33  C   -0.050690
    34  N   -0.419748
    35  C    0.119129
    36  C   -0.196761
    37  C   -0.052342
    38  C    0.186163
    39  C    0.067221
    40  C    0.138348
    41  O   -0.187074
    42  C   -0.079626
    43  C    0.293434
    44  O   -0.315313
    45  O   -0.356117
    46  C    0.162771
    47  C    0.261951
    48  C   -0.139871
    49  C   -0.204946
    50  C    0.007582
    51  C    0.055292
    52  C   -0.028979
    53  C   -0.003902
    54  C   -0.182159
    55  C   -0.009164
    56  C    0.022636
    57  C   -0.017230
    58  C    0.017553
    59  C   -0.206189
    60  C    0.013326
    61  C    0.041772
    62  C   -0.027686
    63  C   -0.014272
    64  C   -0.215101
    65  C   -0.019104
    66  C    0.002999
    67  H   -0.017453
    68  H    0.016348
    69  H    0.004825
    70  H    0.055701
    71  H    0.034987
    72  H    0.046507
    73  H    0.043305
    74  H    0.052725
    75  H    0.029253
    76  H    0.041452
    77  H    0.061784
    78  H    0.070726
    79  H    0.062704
    80  H    0.038125
    81  H    0.032072
    82  H    0.048175
    83  H    0.067919
    84  H    0.062711
    85  H    0.044716
    86  H    0.033945
    87  H    0.035114
    88  H    0.042906
    89  H    0.042163
    90  H    0.030571
    91  H    0.025450
    92  H    0.046317
    93  H    0.019310
    94  H    0.043310
    95  H    0.034302
    96  H    0.056106
    97  H    0.044134
    98  H    0.060280
    99  H    0.056632
   100  H    0.054038
   101  H    0.044928
   102  H    0.043263
   103  H    0.064655
   104  H    0.018175
   105  H    0.054273
   106  H    0.048841
   107  H   -0.002500
   108  H    0.026422
   109  H    0.032200
   110  H    0.020362
   111  H    0.016990
   112  H    0.013320
   113  H    0.017134
   114  H    0.009504
   115  H    0.028735
   116  H    0.032486
   117  H    0.038994
   118  H    0.013515
   119  H    0.021810
   120  H    0.023574
   121  H    0.013348
   122  H    0.010889
   123  H    0.009809
   124  H    0.014947
   125  H    0.031710
   126  H    0.006766
   127  H    0.020016
   128  H    0.013150
   129  H    0.017989
   130  H    0.017886
   131  H    0.019099
   132  H    0.020092
   133  H    0.009313
   134  H    0.021558
   135  H    0.031178
   136  H    0.020881
   137  H    0.021117
   138  H    0.032294
   139  H    0.030085
   140  H    0.028128
 Sum of Mulliken charges =  -0.00000

 Dipole moment (field-independent basis, Debye):
    X=             -5.0946    Y=              3.0322    Z=              2.9528  Tot=              6.6234
 Quadrupole moment (field-independent basis, Debye-Ang):
   XX=           -395.0807   YY=           -422.8477   ZZ=           -402.9441
   XY=             27.2295   XZ=             18.7063   YZ=             -3.0991

 Normal termination of Gaussian 16 at Sat Apr 30 21:28:16 2022.
