 Gaussian 16, Revision A.03,
 Gaussian 16:  ES64L-G16RevA.03 25-Dec-2016

 --------------------
 #p ZINDO=(nstates=5)
 --------------------

 -----------------------------
 step_901_chromophore_18 ZINDO
 -----------------------------
 Symbolic Z-matrix:
 Charge =  0 Multiplicity = 1

                         Standard orientation:
 ---------------------------------------------------------------------
 Center     Atomic      Atomic             Coordinates (Angstroms)
 Number     Number       Type             X           Y           Z
 ---------------------------------------------------------------------
      1         12           0        5.297540    1.153925    0.486623
      2          6           0        4.655218   -2.211878    0.248546
      3          6           0        1.860130    1.698580    0.142750
      4          6           0        5.866693    4.334423   -0.329446
      5          6           0        8.696650    0.466506   -0.086128
      6          7           0        3.425762   -0.151533    0.176878
      7          6           0        3.453990   -1.480386    0.183864
      8          6           0        1.959137   -2.052251    0.402762
      9          6           0        1.080495   -0.772195    0.046028
     10          6           0        2.162187    0.277819    0.201697
     11          6           0        0.317744   -0.698113   -1.283649
     12          6           0        1.711323   -2.600163    1.861002
     13          6           0        1.114120   -4.049915    1.870192
     14          6           0        0.263421   -4.443680    0.682393
     15          8           0        0.590511   -5.210278   -0.236695
     16          8           0       -1.012606   -3.855776    0.840850
     17          7           0        4.042892    2.854081    0.222407
     18          6           0        2.702370    2.869407    0.096546
     19          6           0        2.231909    4.266836   -0.067899
     20          6           0        3.440946    5.023687   -0.171031
     21          6           0        4.498269    4.139172   -0.086959
     22          6           0        0.815561    4.658573   -0.194029
     23          6           0        3.631392    6.595176   -0.407753
     24          8           0        4.770691    7.142219   -0.514766
     25          6           0        2.343312    7.430296   -0.415550
     26          7           0        7.050390    2.249059   -0.078128
     27          6           0        6.998242    3.502344   -0.393465
     28          6           0        8.468164    4.095728   -0.702902
     29          6           0        9.312931    2.872911   -0.324716
     30          6           0        8.282246    1.815831   -0.095145
     31          6           0        8.764367    4.633550   -2.143487
     32          6           0       10.265300    3.124657    0.968110
     33          6           0        9.654379    3.025759    2.434680
     34          7           0        6.486531   -0.554076    0.143026
     35          6           0        7.823828   -0.694229   -0.103491
     36          6           0        8.142858   -2.078857    0.024856
     37          6           0        6.927560   -2.730857    0.171543
     38          6           0        5.929739   -1.743677    0.122118
     39          6           0        9.515122   -2.613842   -0.003032
     40          6           0        6.274702   -4.073194    0.244054
     41          8           0        6.692969   -5.217742    0.280280
     42          6           0        4.720294   -3.777682    0.239166
     43          6           0        4.163756   -4.575959   -0.871138
     44          8           0        4.135056   -4.214459   -2.096915
     45          8           0        3.748051   -5.810664   -0.457737
     46          6           0        3.033476   -6.633405   -1.454173
     47          6           0       -1.875054   -4.305023   -0.206558
     48          6           0       -2.975405   -3.218350   -0.409350
     49          6           0       -4.139000   -3.193329   -1.025289
     50          6           0       -4.771708   -4.376493   -1.836415
     51          6           0       -5.017713   -1.958094   -1.019404
     52          6           0       -6.204125   -1.998670    0.022636
     53          6           0       -6.417423   -0.656819    0.727303
     54          6           0       -7.697251   -0.500021    1.598736
     55          6           0       -7.291499   -0.471061    3.095131
     56          6           0       -8.616017    0.754583    1.231449
     57          6           0       -9.597185    0.384748    0.138677
     58          6           0      -10.997063    0.192341    0.647693
     59          6           0      -12.113857    0.987142   -0.083181
     60          6           0      -12.171114    2.471144    0.134989
     61          6           0      -13.506978    0.266270    0.031543
     62          6           0      -14.430699    0.444142   -1.193609
     63          6           0      -15.895544    0.773576   -0.795080
     64          6           0      -16.129841    2.298324   -0.542764
     65          6           0      -16.205288    2.568917    0.959059
     66          6           0      -17.386533    2.898066   -1.266657
     67          1           0        0.779340    1.836462    0.070668
     68          1           0        6.218357    5.346775   -0.540740
     69          1           0        9.760670    0.253130   -0.208564
     70          1           0        1.852820   -2.871516   -0.307459
     71          1           0        0.401349   -0.528958    0.863141
     72          1           0        0.655562    0.205463   -1.791264
     73          1           0       -0.718067   -0.725359   -0.948813
     74          1           0        0.494225   -1.520967   -1.976281
     75          1           0        1.047159   -1.892748    2.358371
     76          1           0        2.647480   -2.454214    2.399719
     77          1           0        0.385877   -4.133028    2.677265
     78          1           0        1.980932   -4.698361    2.003124
     79          1           0        0.468933    4.917963   -1.193599
     80          1           0        0.647369    5.503304    0.473831
     81          1           0        0.042194    3.978609    0.163038
     82          1           0        2.530540    8.483309   -0.624685
     83          1           0        1.930835    7.518149    0.589117
     84          1           0        1.626357    7.025550   -1.129130
     85          1           0        8.693465    4.918390   -0.024183
     86          1           0       10.054805    2.577378   -1.067233
     87          1           0        9.086302    5.665911   -2.001832
     88          1           0        7.855428    4.698944   -2.742381
     89          1           0        9.533063    4.126425   -2.726219
     90          1           0       10.805537    4.071547    0.949937
     91          1           0       11.085302    2.410575    0.898881
     92          1           0        9.602676    2.014832    2.838758
     93          1           0        8.607157    3.314400    2.344412
     94          1           0       10.028792    3.803802    3.100680
     95          1           0       10.118690   -2.264139    0.833868
     96          1           0       10.052752   -2.418224   -0.930592
     97          1           0        9.544475   -3.677877    0.236105
     98          1           0        4.340309   -4.155883    1.188216
     99          1           0        2.224193   -6.117497   -1.970224
    100          1           0        2.669279   -7.537772   -0.967548
    101          1           0        3.727187   -6.868274   -2.262130
    102          1           0       -2.360398   -5.243602    0.058661
    103          1           0       -1.419996   -4.538624   -1.168580
    104          1           0       -2.820197   -2.295178    0.148663
    105          1           0       -4.536646   -4.456651   -2.897691
    106          1           0       -5.778084   -4.637390   -1.509277
    107          1           0       -4.285837   -5.329922   -1.626746
    108          1           0       -5.498298   -2.001338   -1.996299
    109          1           0       -4.423964   -1.044374   -1.023250
    110          1           0       -6.094672   -2.764767    0.790191
    111          1           0       -7.175958   -2.276667   -0.386040
    112          1           0       -6.478249    0.140835   -0.012985
    113          1           0       -5.526810   -0.534270    1.343144
    114          1           0       -8.243387   -1.427521    1.426829
    115          1           0       -6.589518   -1.278374    3.308034
    116          1           0       -8.149844   -0.681555    3.734103
    117          1           0       -6.890104    0.538409    3.182527
    118          1           0       -8.001160    1.542223    0.794725
    119          1           0       -9.096269    1.236485    2.083282
    120          1           0       -9.429182   -0.595212   -0.306555
    121          1           0       -9.683227    1.129407   -0.653299
    122          1           0      -11.026950    0.507528    1.691150
    123          1           0      -11.199913   -0.877456    0.584762
    124          1           0      -11.918243    1.095794   -1.150403
    125          1           0      -11.800636    2.958035   -0.766667
    126          1           0      -11.479881    2.808398    0.906830
    127          1           0      -13.115711    2.832313    0.540940
    128          1           0      -14.001098    0.671552    0.914411
    129          1           0      -13.350485   -0.797228    0.212980
    130          1           0      -14.464137   -0.435738   -1.837344
    131          1           0      -14.217597    1.220151   -1.927634
    132          1           0      -16.292213    0.236029    0.066316
    133          1           0      -16.482589    0.426158   -1.645828
    134          1           0      -15.222094    2.871269   -0.733894
    135          1           0      -16.028429    1.677204    1.560646
    136          1           0      -17.100532    3.102572    1.276954
    137          1           0      -15.406659    3.275501    1.184491
    138          1           0      -17.923151    3.693045   -0.749026
    139          1           0      -18.055061    2.062035   -1.470431
    140          1           0      -17.076257    3.314404   -2.224205
 ---------------------------------------------------------------------

 SCF Done:  E(RZINDO/S) =  -474.144429171     A.U. after   20 cycles

 Excitation energies and oscillator strengths:

 Excited State   1:      Singlet-A      1.3199 eV  939.31 nm  f=0.5502  <S**2>=0.000
     175 ->178        -0.22364
     176 ->177         0.65337
 This state for optimization and/or second-order correction.
 Total Energy, E(CIS/TDA) =  -474.095922082
 Copying the excited state density for this state as the 1-particle RhoCI density.

 Excited State   2:      Singlet-A      1.8999 eV  652.57 nm  f=0.0336  <S**2>=0.000
     175 ->177         0.53964
     176 ->178         0.43404

 Excited State   3:      Singlet-A      2.8362 eV  437.15 nm  f=0.0003  <S**2>=0.000
     176 ->180         0.69539

 Excited State   4:      Singlet-A      3.0168 eV  410.97 nm  f=0.5489  <S**2>=0.000
     170 ->177        -0.17376
     170 ->179        -0.20004
     170 ->182        -0.23007
     170 ->185        -0.12943
     172 ->177         0.10900
     175 ->177        -0.26974
     176 ->178         0.36476
     176 ->179         0.20520

 Excited State   5:      Singlet-A      3.0654 eV  404.46 nm  f=0.6612  <S**2>=0.000
     170 ->177         0.21491
     170 ->179         0.21958
     170 ->182         0.26606
     170 ->185         0.15028
     170 ->188         0.10845
     175 ->177        -0.28591
     176 ->178         0.36380

 The electronic state is 1-A.
 Alpha  occ. eigenvalues --   -1.86659  -1.82943  -1.80636  -1.74240  -1.71983
 Alpha  occ. eigenvalues --   -1.70202  -1.65911  -1.61090  -1.57451  -1.55178
 Alpha  occ. eigenvalues --   -1.54220  -1.50701  -1.47684  -1.47396  -1.44954
 Alpha  occ. eigenvalues --   -1.43984  -1.40706  -1.39765  -1.39401  -1.38490
 Alpha  occ. eigenvalues --   -1.35809  -1.34056  -1.32289  -1.31087  -1.29031
 Alpha  occ. eigenvalues --   -1.28464  -1.24068  -1.21952  -1.20206  -1.18517
 Alpha  occ. eigenvalues --   -1.17289  -1.16036  -1.15538  -1.15377  -1.14259
 Alpha  occ. eigenvalues --   -1.13169  -1.11248  -1.10636  -1.05147  -1.03162
 Alpha  occ. eigenvalues --   -1.02321  -1.01244  -0.98611  -0.98183  -0.97661
 Alpha  occ. eigenvalues --   -0.96977  -0.94427  -0.93583  -0.92944  -0.91249
 Alpha  occ. eigenvalues --   -0.90616  -0.90128  -0.89417  -0.88716  -0.88533
 Alpha  occ. eigenvalues --   -0.86471  -0.85722  -0.83572  -0.81706  -0.80967
 Alpha  occ. eigenvalues --   -0.79811  -0.78165  -0.77002  -0.76239  -0.75189
 Alpha  occ. eigenvalues --   -0.74870  -0.74680  -0.74416  -0.74218  -0.73632
 Alpha  occ. eigenvalues --   -0.73373  -0.72889  -0.72519  -0.72122  -0.70627
 Alpha  occ. eigenvalues --   -0.70030  -0.69159  -0.68158  -0.67964  -0.67916
 Alpha  occ. eigenvalues --   -0.67319  -0.66940  -0.66711  -0.66459  -0.65796
 Alpha  occ. eigenvalues --   -0.65315  -0.64677  -0.64244  -0.63813  -0.63758
 Alpha  occ. eigenvalues --   -0.62574  -0.62377  -0.62196  -0.62131  -0.61787
 Alpha  occ. eigenvalues --   -0.61700  -0.61186  -0.60864  -0.60420  -0.60322
 Alpha  occ. eigenvalues --   -0.59351  -0.59261  -0.59048  -0.58718  -0.58352
 Alpha  occ. eigenvalues --   -0.58054  -0.57259  -0.57186  -0.56930  -0.56664
 Alpha  occ. eigenvalues --   -0.56481  -0.55426  -0.55209  -0.54786  -0.54676
 Alpha  occ. eigenvalues --   -0.54240  -0.53663  -0.53494  -0.53302  -0.53051
 Alpha  occ. eigenvalues --   -0.52671  -0.52088  -0.51970  -0.51652  -0.51369
 Alpha  occ. eigenvalues --   -0.51221  -0.50954  -0.50201  -0.49861  -0.49704
 Alpha  occ. eigenvalues --   -0.49414  -0.49170  -0.49082  -0.48985  -0.48826
 Alpha  occ. eigenvalues --   -0.48597  -0.48566  -0.48320  -0.48228  -0.47931
 Alpha  occ. eigenvalues --   -0.47630  -0.47346  -0.46826  -0.46739  -0.46248
 Alpha  occ. eigenvalues --   -0.46013  -0.45772  -0.45389  -0.45208  -0.45093
 Alpha  occ. eigenvalues --   -0.44969  -0.44775  -0.44615  -0.44514  -0.44388
 Alpha  occ. eigenvalues --   -0.43916  -0.43749  -0.43152  -0.42661  -0.42551
 Alpha  occ. eigenvalues --   -0.41930  -0.41888  -0.40079  -0.39624  -0.38623
 Alpha  occ. eigenvalues --   -0.37517  -0.37074  -0.36218  -0.35079  -0.34850
 Alpha  occ. eigenvalues --   -0.33399  -0.32994  -0.32354  -0.32276  -0.26061
 Alpha  occ. eigenvalues --   -0.21836
 Alpha virt. eigenvalues --   -0.07981  -0.02289  -0.00553   0.00160   0.00638
 Alpha virt. eigenvalues --    0.01004   0.02833   0.03102   0.04725   0.05010
 Alpha virt. eigenvalues --    0.06370   0.06497   0.07438   0.07573   0.08195

 Mulliken charges:
               1
     1  Mg   0.439944
     2  C   -0.046219
     3  C   -0.107488
     4  C   -0.063264
     5  C   -0.078676
     6  N   -0.263328
     7  C    0.107631
     8  C   -0.005630
     9  C    0.007637
    10  C    0.137304
    11  C   -0.045932
    12  C   -0.022963
    13  C    0.008880
    14  C    0.470890
    15  O   -0.511218
    16  O   -0.264501
    17  N   -0.337474
    18  C    0.122905
    19  C    0.006433
    20  C   -0.031071
    21  C    0.137887
    22  C   -0.036554
    23  C    0.321405
    24  O   -0.518601
    25  C   -0.030012
    26  N   -0.226148
    27  C    0.132155
    28  C    0.000127
    29  C    0.005367
    30  C    0.128222
    31  C   -0.052487
    32  C   -0.040662
    33  C   -0.062843
    34  N   -0.318363
    35  C    0.071006
    36  C    0.044741
    37  C   -0.057991
    38  C    0.130306
    39  C   -0.039572
    40  C    0.333251
    41  O   -0.507582
    42  C    0.050153
    43  C    0.495885
    44  O   -0.553654
    45  O   -0.254011
    46  C    0.078253
    47  C    0.108434
    48  C   -0.086832
    49  C   -0.004369
    50  C   -0.065273
    51  C   -0.018636
    52  C   -0.028525
    53  C   -0.033938
    54  C   -0.019228
    55  C   -0.061038
    56  C   -0.029069
    57  C   -0.036192
    58  C   -0.031564
    59  C   -0.020730
    60  C   -0.054744
    61  C   -0.030667
    62  C   -0.035791
    63  C   -0.034216
    64  C   -0.016995
    65  C   -0.062082
    66  C   -0.056430
    67  H    0.015914
    68  H    0.036007
    69  H    0.028170
    70  H    0.044727
    71  H    0.027911
    72  H    0.031552
    73  H    0.024548
    74  H    0.031369
    75  H    0.021866
    76  H    0.030387
    77  H    0.038754
    78  H    0.045231
    79  H    0.034839
    80  H    0.020927
    81  H    0.021210
    82  H    0.032552
    83  H    0.041244
    84  H    0.039616
    85  H    0.034618
    86  H    0.030025
    87  H    0.016952
    88  H    0.024032
    89  H    0.027686
    90  H    0.019383
    91  H    0.010717
    92  H    0.030294
    93  H    0.010091
    94  H    0.027153
    95  H    0.023371
    96  H    0.035215
    97  H    0.023772
    98  H    0.047495
    99  H    0.051218
   100  H    0.036130
   101  H    0.040849
   102  H    0.042859
   103  H    0.061330
   104  H    0.021254
   105  H    0.042821
   106  H    0.033728
   107  H    0.003116
   108  H    0.015003
   109  H    0.029312
   110  H    0.019104
   111  H    0.018519
   112  H    0.015780
   113  H    0.017153
   114  H    0.017805
   115  H    0.017760
   116  H    0.015928
   117  H    0.026758
   118  H    0.010930
   119  H    0.027965
   120  H    0.020706
   121  H    0.018706
   122  H    0.016791
   123  H    0.014636
   124  H    0.015181
   125  H    0.021044
   126  H    0.005269
   127  H    0.025198
   128  H    0.020741
   129  H    0.018872
   130  H    0.012229
   131  H    0.023130
   132  H    0.023122
   133  H    0.007032
   134  H    0.024681
   135  H    0.020808
   136  H    0.017776
   137  H    0.007386
   138  H    0.024607
   139  H    0.020223
   140  H    0.012662
 Sum of Mulliken charges =  -0.00000

 Dipole moment (field-independent basis, Debye):
    X=             -7.1876    Y=              4.4387    Z=              4.4883  Tot=              9.5660
 N-N= 4.300997654114D+03 E-N= 0.000000000000D+00  KE=-9.276186989500D+03
 Leave Link  601 at Sat Apr 30 21:40:30 2022, MaxMem=  6710886400 cpu:               0.8 elap:               0.1
 (Enter /sw/apps/gaussian-16.0/g16/l9999.exe)
 1\1\GINC-BP1-COMPUTE190\SP\RZINDO CIS\STO-3G\C55H74Mg1N4O6\OF15641\30-
 Apr-2022\0\\#p ZINDO=(nstates=5)\\step_901_chromophore_18 ZINDO\\0,1\M
 g,0,34.899,49.813,25.486\C,0,34.766,47.899,28.335\C,0,33.272,52.343,27
 .27\C,0,34.047,51.302,22.629\C,0,35.677,46.909,23.665\N,0,34.053,50.07
 4,27.612\C,0,34.197,49.165,28.571\C,0,33.908,49.844,30.008\C,0,33.134,
 51.168,29.577\C,0,33.573,51.208,28.127\C,0,31.617,51.283,29.779\C,0,35
 .22,50.123,30.838\C,0,35.149,49.548,32.295\C,0,33.776,49.454,32.924\O,

 Normal termination of Gaussian 16 at Sat Apr 30 21:40:30 2022.
