 Gaussian 16, Revision A.03,
 Gaussian 16:  ES64L-G16RevA.03 25-Dec-2016

 ------------------------------
 #p blyp/Def2SVP td=(nstates=5)
 ------------------------------

 ---------------------------------------------------
 step_1851_chromophore_20 TDDFT with blyp functional
 ---------------------------------------------------
 Symbolic Z-matrix:
 Charge =  0 Multiplicity = 1

                         Standard orientation:
 ---------------------------------------------------------------------
 Center     Atomic      Atomic             Coordinates (Angstroms)
 Number     Number       Type             X           Y           Z
 ---------------------------------------------------------------------
      1         12           0        4.310635    1.480770   -0.654244
      2          6           0        4.177313   -2.088519   -1.115852
      3          6           0        1.522549    1.656772   -2.780901
      4          6           0        3.745036    4.573963    0.364080
      5          6           0        6.514991    0.908782    1.931972
      6          7           0        2.960395   -0.052214   -1.612974
      7          6           0        3.191799   -1.393292   -1.725889
      8          6           0        2.117220   -2.049124   -2.669253
      9          6           0        1.726226   -0.762507   -3.522202
     10          6           0        2.051773    0.388275   -2.611451
     11          6           0        2.460378   -0.627466   -4.859957
     12          6           0        0.994402   -2.587681   -1.741550
     13          6           0        0.414782   -3.934468   -2.209489
     14          6           0       -0.221509   -4.855681   -1.230682
     15          8           0        0.095838   -6.003131   -1.012643
     16          8           0       -1.339449   -4.315530   -0.614952
     17          7           0        2.868716    2.927638   -1.160409
     18          6           0        1.777231    2.873376   -2.016873
     19          6           0        1.161036    4.185174   -2.127577
     20          6           0        1.834643    5.036556   -1.228327
     21          6           0        2.853135    4.200562   -0.663917
     22          6           0       -0.103908    4.520720   -2.989236
     23          6           0        1.400199    6.539918   -0.915272
     24          8           0        0.372392    7.054495   -1.444486
     25          6           0        2.037288    7.425836    0.088285
     26          7           0        4.899210    2.556647    0.932713
     27          6           0        4.822055    3.916838    0.959418
     28          6           0        5.571426    4.515323    2.106380
     29          6           0        6.281495    3.294367    2.830605
     30          6           0        5.846575    2.145709    1.878060
     31          6           0        6.636003    5.522621    1.646329
     32          6           0        5.839213    2.989129    4.304896
     33          6           0        6.955257    3.092489    5.374976
     34          7           0        5.331851   -0.190423    0.152582
     35          6           0        6.238305   -0.227779    1.140613
     36          6           0        6.747762   -1.579422    1.248989
     37          6           0        6.035371   -2.346903    0.411902
     38          6           0        5.172048   -1.449526   -0.269004
     39          6           0        7.739368   -2.020845    2.190179
     40          6           0        5.855596   -3.651178   -0.197970
     41          8           0        6.574499   -4.603240   -0.123956
     42          6           0        4.642735   -3.569972   -1.212201
     43          6           0        3.698698   -4.656347   -0.789283
     44          8           0        2.745790   -4.529581    0.015432
     45          8           0        4.036124   -5.802136   -1.539494
     46          6           0        3.168714   -6.929893   -1.352435
     47          6           0       -2.200635   -5.316607    0.037788
     48          6           0       -3.505724   -4.542332    0.188885
     49          6           0       -4.576282   -4.796571    0.969016
     50          6           0       -4.914171   -6.081177    1.728891
     51          6           0       -5.754853   -3.804867    0.919714
     52          6           0       -5.646002   -2.355784    1.559824
     53          6           0       -6.719667   -2.270765    2.687444
     54          6           0       -6.539818   -1.101269    3.582673
     55          6           0       -6.028832   -1.646864    4.872225
     56          6           0       -7.856813   -0.331981    3.945316
     57          6           0       -8.088766    0.826920    2.985486
     58          6           0       -9.444346    0.590076    2.371992
     59          6           0       -9.710234    1.400141    1.047638
     60          6           0      -11.230091    1.823144    0.938561
     61          6           0       -9.141965    0.618831   -0.183317
     62          6           0       -8.153587    1.545249   -0.956528
     63          6           0       -8.797433    2.136785   -2.298191
     64          6           0       -9.406189    3.506860   -2.137855
     65          6           0      -10.935867    3.512154   -2.527135
     66          6           0       -8.696389    4.489483   -3.144545
     67          1           0        0.775757    1.638401   -3.576764
     68          1           0        3.724266    5.604534    0.725002
     69          1           0        7.216050    0.806291    2.762272
     70          1           0        2.619949   -2.821364   -3.251104
     71          1           0        0.644730   -0.784951   -3.658803
     72          1           0        2.953619    0.339273   -4.969418
     73          1           0        1.686922   -0.728266   -5.620884
     74          1           0        3.237921   -1.380309   -4.987769
     75          1           0        0.104976   -1.958139   -1.730946
     76          1           0        1.259495   -2.596101   -0.684096
     77          1           0        1.225354   -4.433697   -2.739614
     78          1           0       -0.369786   -3.681837   -2.923254
     79          1           0       -0.853388    5.076798   -2.426911
     80          1           0       -0.622513    3.654740   -3.401835
     81          1           0        0.076461    5.117265   -3.883243
     82          1           0        1.916707    6.875465    1.020686
     83          1           0        1.518319    8.382445    0.145387
     84          1           0        3.102012    7.508232   -0.134010
     85          1           0        4.848752    4.981610    2.776310
     86          1           0        7.363332    3.387525    2.912678
     87          1           0        7.630282    5.156547    1.899211
     88          1           0        6.511834    6.530434    2.042177
     89          1           0        6.561112    5.716375    0.576636
     90          1           0        5.314604    2.038625    4.400704
     91          1           0        5.148487    3.721841    4.721107
     92          1           0        7.035361    2.061062    5.715437
     93          1           0        6.796484    3.749284    6.230327
     94          1           0        7.950878    3.216718    4.946583
     95          1           0        7.773600   -3.110166    2.159983
     96          1           0        7.417763   -1.800729    3.207722
     97          1           0        8.709969   -1.615233    1.903529
     98          1           0        5.132945   -3.811108   -2.154608
     99          1           0        3.798596   -7.788502   -1.122373
    100          1           0        2.523921   -7.108955   -2.212931
    101          1           0        2.481399   -6.835359   -0.511863
    102          1           0       -1.737468   -5.692575    0.950397
    103          1           0       -2.288893   -6.120135   -0.692955
    104          1           0       -3.506459   -3.557610   -0.276877
    105          1           0       -5.084152   -5.911364    2.792072
    106          1           0       -4.030084   -6.699660    1.569764
    107          1           0       -5.746960   -6.646311    1.312549
    108          1           0       -6.607691   -4.383153    1.275678
    109          1           0       -6.027698   -3.621081   -0.119691
    110          1           0       -5.777611   -1.726721    0.679296
    111          1           0       -4.653320   -2.187365    1.977583
    112          1           0       -6.833450   -3.213757    3.221370
    113          1           0       -7.616590   -2.038533    2.112985
    114          1           0       -5.764722   -0.477776    3.136817
    115          1           0       -5.278471   -2.418833    4.701212
    116          1           0       -6.683670   -1.991152    5.672474
    117          1           0       -5.457062   -0.828580    5.311331
    118          1           0       -7.777900    0.076697    4.953130
    119          1           0       -8.647603   -1.081503    3.978706
    120          1           0       -7.341101    0.851662    2.192999
    121          1           0       -8.175399    1.713028    3.614924
    122          1           0      -10.037947    0.906330    3.229649
    123          1           0       -9.717449   -0.455146    2.229775
    124          1           0       -9.197039    2.352310    1.183338
    125          1           0      -11.824381    1.462631    0.099212
    126          1           0      -11.387361    2.899840    0.873804
    127          1           0      -11.645886    1.610105    1.923274
    128          1           0      -10.006101    0.377814   -0.801664
    129          1           0       -8.536177   -0.269664   -0.001112
    130          1           0       -7.229955    1.014859   -1.187360
    131          1           0       -7.808228    2.369048   -0.331945
    132          1           0       -9.414918    1.345418   -2.722647
    133          1           0       -7.953345    2.172539   -2.986666
    134          1           0       -9.331020    4.107952   -1.231434
    135          1           0      -11.526954    4.186326   -1.907174
    136          1           0      -11.266616    2.472707   -2.552537
    137          1           0      -10.993425    3.938274   -3.528711
    138          1           0       -8.774280    3.972092   -4.101032
    139          1           0       -7.630183    4.581348   -2.938828
    140          1           0       -9.274209    5.390008   -3.350182
 ---------------------------------------------------------------------

 SCF Done:  E(RB-LYP) =  -3007.33583845     A.U. after   21 cycles

 Excitation energies and oscillator strengths:

 Excited State   1:      Singlet-A      1.7983 eV  689.46 nm  f=0.3007  <S**2>=0.000
     244 -> 247       -0.15327
     245 -> 248       -0.16630
     246 -> 247        0.67797
     246 <- 247       -0.15440
 This state for optimization and/or second-order correction.
 Total Energy, E(TD-HF/TD-DFT) =  -3007.26975307
 Copying the excited state density for this state as the 1-particle RhoCI density.

 Excited State   2:      Singlet-A      1.8171 eV  682.31 nm  f=0.0164  <S**2>=0.000
     244 -> 247        0.68383
     246 -> 247        0.15067

 Excited State   3:      Singlet-A      2.0173 eV  614.61 nm  f=0.0686  <S**2>=0.000
     243 -> 247       -0.24337
     245 -> 247        0.60705
     246 -> 248        0.21816

 Excited State   4:      Singlet-A      2.0985 eV  590.82 nm  f=0.0005  <S**2>=0.000
     242 -> 247        0.68207
     243 -> 247       -0.17825

 Excited State   5:      Singlet-A      2.1115 eV  587.19 nm  f=0.0078  <S**2>=0.000
     242 -> 247        0.18604
     243 -> 247        0.63738
     245 -> 247        0.20614
     246 -> 248        0.10685

 The electronic state is 1-A.
 Alpha  occ. eigenvalues --  -46.27379 -18.81799 -18.80698 -18.77197 -18.76534
 Alpha  occ. eigenvalues --  -18.76072 -18.75685 -14.03559 -14.02934 -14.01350
 Alpha  occ. eigenvalues --  -14.01086 -10.04375 -10.03132 -10.00793 -10.00269
 Alpha  occ. eigenvalues --   -9.97448  -9.97023  -9.96372  -9.96365  -9.96242
 Alpha  occ. eigenvalues --   -9.96122  -9.95913  -9.95515  -9.95339  -9.94793
 Alpha  occ. eigenvalues --   -9.94614  -9.94506  -9.94302  -9.94290  -9.93995
 Alpha  occ. eigenvalues --   -9.93980  -9.93728  -9.93322  -9.93223  -9.93215
 Alpha  occ. eigenvalues --   -9.93012  -9.92960  -9.92796  -9.92697  -9.92673
 Alpha  occ. eigenvalues --   -9.92650  -9.92552  -9.92517  -9.92374  -9.92147
 Alpha  occ. eigenvalues --   -9.92051  -9.91897  -9.91815  -9.91716  -9.91703
 Alpha  occ. eigenvalues --   -9.91649  -9.91161  -9.91060  -9.91052  -9.91037
 Alpha  occ. eigenvalues --   -9.90904  -9.90739  -9.90665  -9.90566  -9.90508
 Alpha  occ. eigenvalues --   -9.90478  -9.90458  -9.90443  -9.90406  -9.90217
 Alpha  occ. eigenvalues --   -9.89796  -2.92120  -1.72490  -1.71998  -1.71865
 Alpha  occ. eigenvalues --   -0.97148  -0.96184  -0.93542  -0.89703  -0.89076
 Alpha  occ. eigenvalues --   -0.88989  -0.87718  -0.86127  -0.85301  -0.84401
 Alpha  occ. eigenvalues --   -0.75228  -0.73754  -0.72506  -0.72455  -0.72140
 Alpha  occ. eigenvalues --   -0.72038  -0.71820  -0.71606  -0.70882  -0.70558
 Alpha  occ. eigenvalues --   -0.69267  -0.69063  -0.68095  -0.67890  -0.67493
 Alpha  occ. eigenvalues --   -0.66181  -0.66089  -0.65346  -0.64850  -0.64472
 Alpha  occ. eigenvalues --   -0.63946  -0.62564  -0.62151  -0.61578  -0.60302
 Alpha  occ. eigenvalues --   -0.59905  -0.59833  -0.59293  -0.59038  -0.58243
 Alpha  occ. eigenvalues --   -0.58058  -0.57223  -0.56670  -0.55268  -0.54751
 Alpha  occ. eigenvalues --   -0.54100  -0.53112  -0.52425  -0.52208  -0.52085
 Alpha  occ. eigenvalues --   -0.51057  -0.50667  -0.50650  -0.50435  -0.49832
 Alpha  occ. eigenvalues --   -0.49262  -0.49186  -0.48394  -0.48262  -0.46688
 Alpha  occ. eigenvalues --   -0.46227  -0.46052  -0.45565  -0.44710  -0.44645
 Alpha  occ. eigenvalues --   -0.44476  -0.43056  -0.43003  -0.42508  -0.42427
 Alpha  occ. eigenvalues --   -0.42124  -0.41830  -0.41660  -0.40906  -0.40774
 Alpha  occ. eigenvalues --   -0.40489  -0.40392  -0.40183  -0.40123  -0.39869
 Alpha  occ. eigenvalues --   -0.39855  -0.39591  -0.39512  -0.39414  -0.39278
 Alpha  occ. eigenvalues --   -0.39039  -0.38769  -0.38664  -0.38522  -0.38188
 Alpha  occ. eigenvalues --   -0.38166  -0.37850  -0.37646  -0.37282  -0.37095
 Alpha  occ. eigenvalues --   -0.36903  -0.36766  -0.36516  -0.36338  -0.36257
 Alpha  occ. eigenvalues --   -0.36113  -0.36017  -0.35829  -0.35591  -0.35443
 Alpha  occ. eigenvalues --   -0.35401  -0.35179  -0.34954  -0.34754  -0.34430
 Alpha  occ. eigenvalues --   -0.34149  -0.33868  -0.33775  -0.33724  -0.33475
 Alpha  occ. eigenvalues --   -0.33311  -0.33236  -0.32982  -0.32790  -0.32599
 Alpha  occ. eigenvalues --   -0.32519  -0.32442  -0.32331  -0.32143  -0.32078
 Alpha  occ. eigenvalues --   -0.31999  -0.31898  -0.31630  -0.31513  -0.31359
 Alpha  occ. eigenvalues --   -0.31219  -0.31044  -0.30861  -0.30718  -0.30459
 Alpha  occ. eigenvalues --   -0.30290  -0.30130  -0.30122  -0.29832  -0.29533
 Alpha  occ. eigenvalues --   -0.29427  -0.29398  -0.29332  -0.29066  -0.28956
 Alpha  occ. eigenvalues --   -0.28786  -0.28582  -0.28173  -0.27693  -0.27562
 Alpha  occ. eigenvalues --   -0.27258  -0.27156  -0.26907  -0.26709  -0.26581
 Alpha  occ. eigenvalues --   -0.26239  -0.25910  -0.25523  -0.25225  -0.24892
 Alpha  occ. eigenvalues --   -0.24579  -0.24340  -0.23924  -0.23536  -0.23376
 Alpha  occ. eigenvalues --   -0.22621  -0.22441  -0.22010  -0.21526  -0.21055
 Alpha  occ. eigenvalues --   -0.20821  -0.19631  -0.19520  -0.18534  -0.17576
 Alpha  occ. eigenvalues --   -0.16074
 Alpha virt. eigenvalues --   -0.11917  -0.07314  -0.05786  -0.05230  -0.04100
 Alpha virt. eigenvalues --   -0.03394  -0.02290  -0.02002  -0.01735  -0.00677
 Alpha virt. eigenvalues --    0.01240   0.01853   0.02000   0.02609   0.03232

 Mulliken charges:
               1
     1  Mg   0.713732
     2  C    0.117781
     3  C   -0.040928
     4  C   -0.080730
     5  C   -0.082716
     6  N   -0.214697
     7  C   -0.132038
     8  C   -0.006538
     9  C    0.011302
    10  C    0.003803
    11  C    0.153246
    12  C    0.124546
    13  C    0.143712
    14  C    0.090515
    15  O   -0.184099
    16  O   -0.304656
    17  N   -0.275905
    18  C    0.124399
    19  C   -0.119608
    20  C    0.036765
    21  C    0.142406
    22  C    0.163752
    23  C   -0.058859
    24  O   -0.202170
    25  C    0.163915
    26  N   -0.299450
    27  C    0.046107
    28  C    0.032891
    29  C    0.016586
    30  C    0.046959
    31  C    0.126641
    32  C    0.076674
    33  C    0.036000
    34  N   -0.203368
    35  C    0.111149
    36  C   -0.209265
    37  C    0.133632
    38  C   -0.018624
    39  C    0.189552
    40  C   -0.099188
    41  O   -0.092784
    42  C    0.076001
    43  C    0.157078
    44  O   -0.198352
    45  O   -0.278627
    46  C    0.201911
    47  C    0.318656
    48  C   -0.097505
    49  C   -0.143362
    50  C    0.134795
    51  C    0.097479
    52  C    0.066285
    53  C    0.103098
    54  C   -0.061739
    55  C    0.105515
    56  C    0.103227
    57  C    0.126975
    58  C    0.015369
    59  C   -0.037456
    60  C    0.096379
    61  C    0.142158
    62  C    0.021814
    63  C    0.128403
    64  C   -0.078279
    65  C    0.097892
    66  C    0.073950
    67  H   -0.062429
    68  H   -0.086328
    69  H   -0.062418
    70  H   -0.027907
    71  H   -0.035534
    72  H   -0.006988
    73  H   -0.002841
    74  H   -0.007909
    75  H   -0.025748
    76  H    0.015423
    77  H   -0.014951
    78  H   -0.008458
    79  H    0.009548
    80  H   -0.031663
    81  H   -0.005667
    82  H    0.014994
    83  H    0.001602
    84  H    0.015270
    85  H   -0.016294
    86  H   -0.022071
    87  H   -0.008830
    88  H   -0.012459
    89  H   -0.013637
    90  H   -0.006025
    91  H   -0.024548
    92  H   -0.013839
    93  H    0.008845
    94  H   -0.017785
    95  H   -0.007767
    96  H   -0.000566
    97  H    0.002657
    98  H    0.008389
    99  H    0.003746
   100  H    0.013400
   101  H    0.028639
   102  H    0.018326
   103  H   -0.001563
   104  H   -0.025260
   105  H    0.005395
   106  H   -0.024159
   107  H    0.007548
   108  H   -0.045547
   109  H   -0.031005
   110  H   -0.017767
   111  H   -0.019402
   112  H   -0.021234
   113  H   -0.039938
   114  H   -0.038540
   115  H   -0.036081
   116  H   -0.012181
   117  H   -0.036283
   118  H   -0.047211
   119  H   -0.032915
   120  H   -0.021570
   121  H   -0.028864
   122  H   -0.044152
   123  H   -0.023640
   124  H   -0.035480
   125  H   -0.010554
   126  H   -0.026982
   127  H   -0.029863
   128  H   -0.031954
   129  H   -0.022793
   130  H   -0.045139
   131  H   -0.026155
   132  H   -0.034166
   133  H   -0.042871
   134  H   -0.020526
   135  H   -0.011897
   136  H   -0.011012
   137  H   -0.030767
   138  H   -0.030901
   139  H   -0.006374
   140  H   -0.018481
 Sum of Mulliken charges =  -0.00000

 Dipole moment (field-independent basis, Debye):
    X=              1.5894    Y=              2.7438    Z=              0.2788  Tot=              3.1831
 Quadrupole moment (field-independent basis, Debye-Ang):
   XX=           -387.7795   YY=           -431.6338   ZZ=           -385.3243
   XY=             46.1439   XZ=              4.4193   YZ=             19.4799

 Normal termination of Gaussian 16 at Wed May  4 15:45:47 2022.
