 Gaussian 16, Revision A.03,
 Gaussian 16:  ES64L-G16RevA.03 25-Dec-2016

 -----------------------------------
 #p cam-b3lyp/Def2SVP td=(nstates=5)
 -----------------------------------

 --------------------------------------------------------
 step_1851_chromophore_20 TDDFT with cam-b3lyp functional
 --------------------------------------------------------
 Symbolic Z-matrix:
 Charge =  0 Multiplicity = 1

                         Standard orientation:
 ---------------------------------------------------------------------
 Center     Atomic      Atomic             Coordinates (Angstroms)
 Number     Number       Type             X           Y           Z
 ---------------------------------------------------------------------
      1         12           0        4.310635    1.480770   -0.654244
      2          6           0        4.177313   -2.088519   -1.115852
      3          6           0        1.522549    1.656772   -2.780901
      4          6           0        3.745036    4.573963    0.364080
      5          6           0        6.514991    0.908782    1.931972
      6          7           0        2.960395   -0.052214   -1.612974
      7          6           0        3.191799   -1.393292   -1.725889
      8          6           0        2.117220   -2.049124   -2.669253
      9          6           0        1.726226   -0.762507   -3.522202
     10          6           0        2.051773    0.388275   -2.611451
     11          6           0        2.460378   -0.627466   -4.859957
     12          6           0        0.994402   -2.587681   -1.741550
     13          6           0        0.414782   -3.934468   -2.209489
     14          6           0       -0.221509   -4.855681   -1.230682
     15          8           0        0.095838   -6.003131   -1.012643
     16          8           0       -1.339449   -4.315530   -0.614952
     17          7           0        2.868716    2.927638   -1.160409
     18          6           0        1.777231    2.873376   -2.016873
     19          6           0        1.161036    4.185174   -2.127577
     20          6           0        1.834643    5.036556   -1.228327
     21          6           0        2.853135    4.200562   -0.663917
     22          6           0       -0.103908    4.520720   -2.989236
     23          6           0        1.400199    6.539918   -0.915272
     24          8           0        0.372392    7.054495   -1.444486
     25          6           0        2.037288    7.425836    0.088285
     26          7           0        4.899210    2.556647    0.932713
     27          6           0        4.822055    3.916838    0.959418
     28          6           0        5.571426    4.515323    2.106380
     29          6           0        6.281495    3.294367    2.830605
     30          6           0        5.846575    2.145709    1.878060
     31          6           0        6.636003    5.522621    1.646329
     32          6           0        5.839213    2.989129    4.304896
     33          6           0        6.955257    3.092489    5.374976
     34          7           0        5.331851   -0.190423    0.152582
     35          6           0        6.238305   -0.227779    1.140613
     36          6           0        6.747762   -1.579422    1.248989
     37          6           0        6.035371   -2.346903    0.411902
     38          6           0        5.172048   -1.449526   -0.269004
     39          6           0        7.739368   -2.020845    2.190179
     40          6           0        5.855596   -3.651178   -0.197970
     41          8           0        6.574499   -4.603240   -0.123956
     42          6           0        4.642735   -3.569972   -1.212201
     43          6           0        3.698698   -4.656347   -0.789283
     44          8           0        2.745790   -4.529581    0.015432
     45          8           0        4.036124   -5.802136   -1.539494
     46          6           0        3.168714   -6.929893   -1.352435
     47          6           0       -2.200635   -5.316607    0.037788
     48          6           0       -3.505724   -4.542332    0.188885
     49          6           0       -4.576282   -4.796571    0.969016
     50          6           0       -4.914171   -6.081177    1.728891
     51          6           0       -5.754853   -3.804867    0.919714
     52          6           0       -5.646002   -2.355784    1.559824
     53          6           0       -6.719667   -2.270765    2.687444
     54          6           0       -6.539818   -1.101269    3.582673
     55          6           0       -6.028832   -1.646864    4.872225
     56          6           0       -7.856813   -0.331981    3.945316
     57          6           0       -8.088766    0.826920    2.985486
     58          6           0       -9.444346    0.590076    2.371992
     59          6           0       -9.710234    1.400141    1.047638
     60          6           0      -11.230091    1.823144    0.938561
     61          6           0       -9.141965    0.618831   -0.183317
     62          6           0       -8.153587    1.545249   -0.956528
     63          6           0       -8.797433    2.136785   -2.298191
     64          6           0       -9.406189    3.506860   -2.137855
     65          6           0      -10.935867    3.512154   -2.527135
     66          6           0       -8.696389    4.489483   -3.144545
     67          1           0        0.775757    1.638401   -3.576764
     68          1           0        3.724266    5.604534    0.725002
     69          1           0        7.216050    0.806291    2.762272
     70          1           0        2.619949   -2.821364   -3.251104
     71          1           0        0.644730   -0.784951   -3.658803
     72          1           0        2.953619    0.339273   -4.969418
     73          1           0        1.686922   -0.728266   -5.620884
     74          1           0        3.237921   -1.380309   -4.987769
     75          1           0        0.104976   -1.958139   -1.730946
     76          1           0        1.259495   -2.596101   -0.684096
     77          1           0        1.225354   -4.433697   -2.739614
     78          1           0       -0.369786   -3.681837   -2.923254
     79          1           0       -0.853388    5.076798   -2.426911
     80          1           0       -0.622513    3.654740   -3.401835
     81          1           0        0.076461    5.117265   -3.883243
     82          1           0        1.916707    6.875465    1.020686
     83          1           0        1.518319    8.382445    0.145387
     84          1           0        3.102012    7.508232   -0.134010
     85          1           0        4.848752    4.981610    2.776310
     86          1           0        7.363332    3.387525    2.912678
     87          1           0        7.630282    5.156547    1.899211
     88          1           0        6.511834    6.530434    2.042177
     89          1           0        6.561112    5.716375    0.576636
     90          1           0        5.314604    2.038625    4.400704
     91          1           0        5.148487    3.721841    4.721107
     92          1           0        7.035361    2.061062    5.715437
     93          1           0        6.796484    3.749284    6.230327
     94          1           0        7.950878    3.216718    4.946583
     95          1           0        7.773600   -3.110166    2.159983
     96          1           0        7.417763   -1.800729    3.207722
     97          1           0        8.709969   -1.615233    1.903529
     98          1           0        5.132945   -3.811108   -2.154608
     99          1           0        3.798596   -7.788502   -1.122373
    100          1           0        2.523921   -7.108955   -2.212931
    101          1           0        2.481399   -6.835359   -0.511863
    102          1           0       -1.737468   -5.692575    0.950397
    103          1           0       -2.288893   -6.120135   -0.692955
    104          1           0       -3.506459   -3.557610   -0.276877
    105          1           0       -5.084152   -5.911364    2.792072
    106          1           0       -4.030084   -6.699660    1.569764
    107          1           0       -5.746960   -6.646311    1.312549
    108          1           0       -6.607691   -4.383153    1.275678
    109          1           0       -6.027698   -3.621081   -0.119691
    110          1           0       -5.777611   -1.726721    0.679296
    111          1           0       -4.653320   -2.187365    1.977583
    112          1           0       -6.833450   -3.213757    3.221370
    113          1           0       -7.616590   -2.038533    2.112985
    114          1           0       -5.764722   -0.477776    3.136817
    115          1           0       -5.278471   -2.418833    4.701212
    116          1           0       -6.683670   -1.991152    5.672474
    117          1           0       -5.457062   -0.828580    5.311331
    118          1           0       -7.777900    0.076697    4.953130
    119          1           0       -8.647603   -1.081503    3.978706
    120          1           0       -7.341101    0.851662    2.192999
    121          1           0       -8.175399    1.713028    3.614924
    122          1           0      -10.037947    0.906330    3.229649
    123          1           0       -9.717449   -0.455146    2.229775
    124          1           0       -9.197039    2.352310    1.183338
    125          1           0      -11.824381    1.462631    0.099212
    126          1           0      -11.387361    2.899840    0.873804
    127          1           0      -11.645886    1.610105    1.923274
    128          1           0      -10.006101    0.377814   -0.801664
    129          1           0       -8.536177   -0.269664   -0.001112
    130          1           0       -7.229955    1.014859   -1.187360
    131          1           0       -7.808228    2.369048   -0.331945
    132          1           0       -9.414918    1.345418   -2.722647
    133          1           0       -7.953345    2.172539   -2.986666
    134          1           0       -9.331020    4.107952   -1.231434
    135          1           0      -11.526954    4.186326   -1.907174
    136          1           0      -11.266616    2.472707   -2.552537
    137          1           0      -10.993425    3.938274   -3.528711
    138          1           0       -8.774280    3.972092   -4.101032
    139          1           0       -7.630183    4.581348   -2.938828
    140          1           0       -9.274209    5.390008   -3.350182
 ---------------------------------------------------------------------

 SCF Done:  E(RCAM-B3LYP) =  -3007.13048371     A.U. after   19 cycles

 Excitation energies and oscillator strengths:

 Excited State   1:      Singlet-A      1.6715 eV  741.75 nm  f=0.3842  <S**2>=0.000
     245 -> 248       -0.16036
     246 -> 247        0.68957
     245 <- 248       -0.10054
 This state for optimization and/or second-order correction.
 Total Energy, E(TD-HF/TD-DFT) =  -3007.06905690
 Copying the excited state density for this state as the 1-particle RhoCI density.

 Excited State   2:      Singlet-A      2.2096 eV  561.12 nm  f=0.1171  <S**2>=0.000
     245 -> 247        0.64305
     246 -> 248        0.27663

 Excited State   3:      Singlet-A      3.4005 eV  364.61 nm  f=0.0320  <S**2>=0.000
     243 -> 247        0.64521
     246 -> 248       -0.23829

 Excited State   4:      Singlet-A      3.4896 eV  355.30 nm  f=0.3859  <S**2>=0.000
     240 -> 247        0.12872
     241 -> 247        0.17930
     243 -> 247        0.22941
     245 -> 247       -0.21951
     246 -> 248        0.53309
     246 -> 249        0.17682
     246 -> 250        0.14104

 Excited State   5:      Singlet-A      3.5559 eV  348.67 nm  f=0.0067  <S**2>=0.000
     242 -> 247        0.48316
     242 -> 248        0.23107
     242 -> 249        0.16056
     242 -> 250       -0.19264
     242 -> 251        0.32914

 The electronic state is 1-A.
 Alpha  occ. eigenvalues --  -46.88967 -19.24801 -19.23527 -19.20473 -19.19823
 Alpha  occ. eigenvalues --  -19.19066 -19.18834 -14.42579 -14.41671 -14.39834
 Alpha  occ. eigenvalues --  -14.39584 -10.40180 -10.38389 -10.36028 -10.35639
 Alpha  occ. eigenvalues --  -10.31561 -10.31462 -10.30765 -10.30759 -10.30748
 Alpha  occ. eigenvalues --  -10.30402 -10.30214 -10.29634 -10.29423 -10.29263
 Alpha  occ. eigenvalues --  -10.29090 -10.28550 -10.28413 -10.28403 -10.28236
 Alpha  occ. eigenvalues --  -10.27934 -10.27897 -10.27607 -10.27570 -10.27301
 Alpha  occ. eigenvalues --  -10.27210 -10.26938 -10.26920 -10.26717 -10.26518
 Alpha  occ. eigenvalues --  -10.26486 -10.26370 -10.26357 -10.26299 -10.25821
 Alpha  occ. eigenvalues --  -10.25694 -10.25580 -10.25575 -10.25467 -10.25440
 Alpha  occ. eigenvalues --  -10.25326 -10.25115 -10.24885 -10.24750 -10.24709
 Alpha  occ. eigenvalues --  -10.24688 -10.24572 -10.24256 -10.24170 -10.24098
 Alpha  occ. eigenvalues --  -10.24070 -10.24059 -10.24042 -10.24004 -10.23844
 Alpha  occ. eigenvalues --  -10.23304  -3.17609  -1.92454  -1.92063  -1.91931
 Alpha  occ. eigenvalues --   -1.15609  -1.14750  -1.12097  -1.07953  -1.07084
 Alpha  occ. eigenvalues --   -1.06834  -1.05519  -1.03815  -1.02862  -1.01912
 Alpha  occ. eigenvalues --   -0.92408  -0.90593  -0.89245  -0.89183  -0.88859
 Alpha  occ. eigenvalues --   -0.88747  -0.88544  -0.88302  -0.87428  -0.87099
 Alpha  occ. eigenvalues --   -0.85729  -0.85490  -0.84345  -0.84126  -0.83705
 Alpha  occ. eigenvalues --   -0.82375  -0.82107  -0.81364  -0.80660  -0.80283
 Alpha  occ. eigenvalues --   -0.79737  -0.78228  -0.77698  -0.77085  -0.75685
 Alpha  occ. eigenvalues --   -0.75214  -0.75127  -0.74571  -0.74289  -0.73408
 Alpha  occ. eigenvalues --   -0.73164  -0.72181  -0.71558  -0.70056  -0.69368
 Alpha  occ. eigenvalues --   -0.68761  -0.67625  -0.66873  -0.66582  -0.66260
 Alpha  occ. eigenvalues --   -0.65222  -0.64849  -0.64742  -0.64373  -0.63869
 Alpha  occ. eigenvalues --   -0.63187  -0.63052  -0.62253  -0.62065  -0.60334
 Alpha  occ. eigenvalues --   -0.59798  -0.59627  -0.59018  -0.58270  -0.58074
 Alpha  occ. eigenvalues --   -0.57936  -0.56434  -0.56194  -0.55637  -0.55542
 Alpha  occ. eigenvalues --   -0.55189  -0.54833  -0.54563  -0.53890  -0.53870
 Alpha  occ. eigenvalues --   -0.53202  -0.53047  -0.52912  -0.52744  -0.52702
 Alpha  occ. eigenvalues --   -0.52548  -0.52175  -0.52141  -0.52047  -0.51906
 Alpha  occ. eigenvalues --   -0.51778  -0.51612  -0.51263  -0.50870  -0.50612
 Alpha  occ. eigenvalues --   -0.50590  -0.50111  -0.49922  -0.49793  -0.49635
 Alpha  occ. eigenvalues --   -0.49435  -0.49007  -0.48674  -0.48579  -0.48536
 Alpha  occ. eigenvalues --   -0.48381  -0.48166  -0.48127  -0.47898  -0.47717
 Alpha  occ. eigenvalues --   -0.47283  -0.47133  -0.46905  -0.46736  -0.46249
 Alpha  occ. eigenvalues --   -0.46042  -0.46025  -0.45568  -0.45486  -0.45396
 Alpha  occ. eigenvalues --   -0.45220  -0.44871  -0.44800  -0.44423  -0.44360
 Alpha  occ. eigenvalues --   -0.44112  -0.44056  -0.43946  -0.43796  -0.43723
 Alpha  occ. eigenvalues --   -0.43567  -0.43512  -0.43428  -0.43208  -0.42943
 Alpha  occ. eigenvalues --   -0.42643  -0.42340  -0.42177  -0.42059  -0.41816
 Alpha  occ. eigenvalues --   -0.41687  -0.41634  -0.41216  -0.41044  -0.40879
 Alpha  occ. eigenvalues --   -0.40834  -0.40665  -0.40565  -0.40489  -0.40112
 Alpha  occ. eigenvalues --   -0.40048  -0.39829  -0.39070  -0.38817  -0.38605
 Alpha  occ. eigenvalues --   -0.38233  -0.38166  -0.37979  -0.37441  -0.37160
 Alpha  occ. eigenvalues --   -0.36955  -0.36889  -0.36303  -0.36147  -0.35909
 Alpha  occ. eigenvalues --   -0.35814  -0.35463  -0.34609  -0.34340  -0.33757
 Alpha  occ. eigenvalues --   -0.33345  -0.33165  -0.32739  -0.31757  -0.31413
 Alpha  occ. eigenvalues --   -0.31011  -0.30865  -0.30187  -0.29234  -0.24409
 Alpha  occ. eigenvalues --   -0.21402
 Alpha virt. eigenvalues --   -0.09120  -0.01957   0.00678   0.01009   0.01846
 Alpha virt. eigenvalues --    0.04014   0.04891   0.05332   0.05970   0.06496
 Alpha virt. eigenvalues --    0.08057   0.08161   0.08389   0.09008   0.09471

 Mulliken charges:
               1
     1  Mg   0.843213
     2  C    0.083284
     3  C   -0.054449
     4  C   -0.090587
     5  C   -0.082881
     6  N   -0.282149
     7  C   -0.084396
     8  C   -0.054366
     9  C   -0.046817
    10  C    0.020102
    11  C    0.094437
    12  C    0.069777
    13  C    0.074641
    14  C    0.173444
    15  O   -0.226369
    16  O   -0.367964
    17  N   -0.359715
    18  C    0.127051
    19  C   -0.128969
    20  C   -0.030199
    21  C    0.163709
    22  C    0.114058
    23  C    0.021353
    24  O   -0.242092
    25  C    0.078562
    26  N   -0.366836
    27  C    0.066004
    28  C   -0.037489
    29  C   -0.033631
    30  C    0.060568
    31  C    0.071017
    32  C    0.023063
    33  C   -0.025350
    34  N   -0.292997
    35  C    0.114068
    36  C   -0.199435
    37  C    0.059277
    38  C    0.018996
    39  C    0.126720
    40  C   -0.001665
    41  O   -0.129361
    42  C    0.003755
    43  C    0.242717
    44  O   -0.235484
    45  O   -0.340765
    46  C    0.163302
    47  C    0.286123
    48  C   -0.118310
    49  C   -0.165473
    50  C    0.075769
    51  C    0.038712
    52  C    0.018163
    53  C    0.049004
    54  C   -0.120792
    55  C    0.042723
    56  C    0.049105
    57  C    0.070844
    58  C   -0.031572
    59  C   -0.096309
    60  C    0.043023
    61  C    0.088333
    62  C   -0.027427
    63  C    0.067795
    64  C   -0.140624
    65  C    0.042220
    66  C    0.016009
    67  H   -0.027722
    68  H   -0.052025
    69  H   -0.026341
    70  H    0.005919
    71  H    0.000399
    72  H    0.019717
    73  H    0.021238
    74  H    0.015876
    75  H    0.006358
    76  H    0.049610
    77  H    0.012876
    78  H    0.023172
    79  H    0.037566
    80  H   -0.005967
    81  H    0.020902
    82  H    0.040079
    83  H    0.037775
    84  H    0.040179
    85  H    0.019286
    86  H    0.011216
    87  H    0.015376
    88  H    0.012513
    89  H    0.012395
    90  H    0.024247
    91  H    0.004247
    92  H    0.009028
    93  H    0.032694
    94  H    0.005033
    95  H    0.022458
    96  H    0.025618
    97  H    0.029571
    98  H    0.052259
    99  H    0.026777
   100  H    0.033839
   101  H    0.054623
   102  H    0.045118
   103  H    0.028452
   104  H    0.008885
   105  H    0.028574
   106  H   -0.000975
   107  H    0.031447
   108  H   -0.015102
   109  H   -0.000225
   110  H    0.007526
   111  H    0.007904
   112  H    0.006813
   113  H   -0.014547
   114  H   -0.004077
   115  H   -0.010239
   116  H    0.012765
   117  H   -0.009617
   118  H   -0.015131
   119  H   -0.003739
   120  H    0.001870
   121  H    0.000711
   122  H   -0.015047
   123  H    0.002442
   124  H   -0.003960
   125  H    0.011261
   126  H   -0.003855
   127  H   -0.003943
   128  H   -0.005293
   129  H    0.003328
   130  H   -0.015281
   131  H   -0.000168
   132  H   -0.004663
   133  H   -0.011117
   134  H    0.009309
   135  H    0.011900
   136  H    0.009982
   137  H   -0.005862
   138  H   -0.007798
   139  H    0.017822
   140  H    0.007277
 Sum of Mulliken charges =  -0.00000

 Dipole moment (field-independent basis, Debye):
    X=              1.7967    Y=              2.9376    Z=              0.3412  Tot=              3.4604
 Quadrupole moment (field-independent basis, Debye-Ang):
   XX=           -385.5177   YY=           -428.9481   ZZ=           -383.3369
   XY=             47.9074   XZ=              6.0019   YZ=             20.6257

 Normal termination of Gaussian 16 at Wed May  4 14:38:49 2022.
