 Gaussian 16, Revision A.03,
 Gaussian 16:  ES64L-G16RevA.03 25-Dec-2016

 ---------------------------------
 #p PBE1PBE/Def2SVP td=(nstates=5)
 ---------------------------------

 ------------------------------------------------------
 step_1851_chromophore_20 TDDFT with PBE1PBE functional
 ------------------------------------------------------
 Symbolic Z-matrix:
 Charge =  0 Multiplicity = 1

                         Standard orientation:
 ---------------------------------------------------------------------
 Center     Atomic      Atomic             Coordinates (Angstroms)
 Number     Number       Type             X           Y           Z
 ---------------------------------------------------------------------
      1         12           0        4.310635    1.480770   -0.654244
      2          6           0        4.177313   -2.088519   -1.115852
      3          6           0        1.522549    1.656772   -2.780901
      4          6           0        3.745036    4.573963    0.364080
      5          6           0        6.514991    0.908782    1.931972
      6          7           0        2.960395   -0.052214   -1.612974
      7          6           0        3.191799   -1.393292   -1.725889
      8          6           0        2.117220   -2.049124   -2.669253
      9          6           0        1.726226   -0.762507   -3.522202
     10          6           0        2.051773    0.388275   -2.611451
     11          6           0        2.460378   -0.627466   -4.859957
     12          6           0        0.994402   -2.587681   -1.741550
     13          6           0        0.414782   -3.934468   -2.209489
     14          6           0       -0.221509   -4.855681   -1.230682
     15          8           0        0.095838   -6.003131   -1.012643
     16          8           0       -1.339449   -4.315530   -0.614952
     17          7           0        2.868716    2.927638   -1.160409
     18          6           0        1.777231    2.873376   -2.016873
     19          6           0        1.161036    4.185174   -2.127577
     20          6           0        1.834643    5.036556   -1.228327
     21          6           0        2.853135    4.200562   -0.663917
     22          6           0       -0.103908    4.520720   -2.989236
     23          6           0        1.400199    6.539918   -0.915272
     24          8           0        0.372392    7.054495   -1.444486
     25          6           0        2.037288    7.425836    0.088285
     26          7           0        4.899210    2.556647    0.932713
     27          6           0        4.822055    3.916838    0.959418
     28          6           0        5.571426    4.515323    2.106380
     29          6           0        6.281495    3.294367    2.830605
     30          6           0        5.846575    2.145709    1.878060
     31          6           0        6.636003    5.522621    1.646329
     32          6           0        5.839213    2.989129    4.304896
     33          6           0        6.955257    3.092489    5.374976
     34          7           0        5.331851   -0.190423    0.152582
     35          6           0        6.238305   -0.227779    1.140613
     36          6           0        6.747762   -1.579422    1.248989
     37          6           0        6.035371   -2.346903    0.411902
     38          6           0        5.172048   -1.449526   -0.269004
     39          6           0        7.739368   -2.020845    2.190179
     40          6           0        5.855596   -3.651178   -0.197970
     41          8           0        6.574499   -4.603240   -0.123956
     42          6           0        4.642735   -3.569972   -1.212201
     43          6           0        3.698698   -4.656347   -0.789283
     44          8           0        2.745790   -4.529581    0.015432
     45          8           0        4.036124   -5.802136   -1.539494
     46          6           0        3.168714   -6.929893   -1.352435
     47          6           0       -2.200635   -5.316607    0.037788
     48          6           0       -3.505724   -4.542332    0.188885
     49          6           0       -4.576282   -4.796571    0.969016
     50          6           0       -4.914171   -6.081177    1.728891
     51          6           0       -5.754853   -3.804867    0.919714
     52          6           0       -5.646002   -2.355784    1.559824
     53          6           0       -6.719667   -2.270765    2.687444
     54          6           0       -6.539818   -1.101269    3.582673
     55          6           0       -6.028832   -1.646864    4.872225
     56          6           0       -7.856813   -0.331981    3.945316
     57          6           0       -8.088766    0.826920    2.985486
     58          6           0       -9.444346    0.590076    2.371992
     59          6           0       -9.710234    1.400141    1.047638
     60          6           0      -11.230091    1.823144    0.938561
     61          6           0       -9.141965    0.618831   -0.183317
     62          6           0       -8.153587    1.545249   -0.956528
     63          6           0       -8.797433    2.136785   -2.298191
     64          6           0       -9.406189    3.506860   -2.137855
     65          6           0      -10.935867    3.512154   -2.527135
     66          6           0       -8.696389    4.489483   -3.144545
     67          1           0        0.775757    1.638401   -3.576764
     68          1           0        3.724266    5.604534    0.725002
     69          1           0        7.216050    0.806291    2.762272
     70          1           0        2.619949   -2.821364   -3.251104
     71          1           0        0.644730   -0.784951   -3.658803
     72          1           0        2.953619    0.339273   -4.969418
     73          1           0        1.686922   -0.728266   -5.620884
     74          1           0        3.237921   -1.380309   -4.987769
     75          1           0        0.104976   -1.958139   -1.730946
     76          1           0        1.259495   -2.596101   -0.684096
     77          1           0        1.225354   -4.433697   -2.739614
     78          1           0       -0.369786   -3.681837   -2.923254
     79          1           0       -0.853388    5.076798   -2.426911
     80          1           0       -0.622513    3.654740   -3.401835
     81          1           0        0.076461    5.117265   -3.883243
     82          1           0        1.916707    6.875465    1.020686
     83          1           0        1.518319    8.382445    0.145387
     84          1           0        3.102012    7.508232   -0.134010
     85          1           0        4.848752    4.981610    2.776310
     86          1           0        7.363332    3.387525    2.912678
     87          1           0        7.630282    5.156547    1.899211
     88          1           0        6.511834    6.530434    2.042177
     89          1           0        6.561112    5.716375    0.576636
     90          1           0        5.314604    2.038625    4.400704
     91          1           0        5.148487    3.721841    4.721107
     92          1           0        7.035361    2.061062    5.715437
     93          1           0        6.796484    3.749284    6.230327
     94          1           0        7.950878    3.216718    4.946583
     95          1           0        7.773600   -3.110166    2.159983
     96          1           0        7.417763   -1.800729    3.207722
     97          1           0        8.709969   -1.615233    1.903529
     98          1           0        5.132945   -3.811108   -2.154608
     99          1           0        3.798596   -7.788502   -1.122373
    100          1           0        2.523921   -7.108955   -2.212931
    101          1           0        2.481399   -6.835359   -0.511863
    102          1           0       -1.737468   -5.692575    0.950397
    103          1           0       -2.288893   -6.120135   -0.692955
    104          1           0       -3.506459   -3.557610   -0.276877
    105          1           0       -5.084152   -5.911364    2.792072
    106          1           0       -4.030084   -6.699660    1.569764
    107          1           0       -5.746960   -6.646311    1.312549
    108          1           0       -6.607691   -4.383153    1.275678
    109          1           0       -6.027698   -3.621081   -0.119691
    110          1           0       -5.777611   -1.726721    0.679296
    111          1           0       -4.653320   -2.187365    1.977583
    112          1           0       -6.833450   -3.213757    3.221370
    113          1           0       -7.616590   -2.038533    2.112985
    114          1           0       -5.764722   -0.477776    3.136817
    115          1           0       -5.278471   -2.418833    4.701212
    116          1           0       -6.683670   -1.991152    5.672474
    117          1           0       -5.457062   -0.828580    5.311331
    118          1           0       -7.777900    0.076697    4.953130
    119          1           0       -8.647603   -1.081503    3.978706
    120          1           0       -7.341101    0.851662    2.192999
    121          1           0       -8.175399    1.713028    3.614924
    122          1           0      -10.037947    0.906330    3.229649
    123          1           0       -9.717449   -0.455146    2.229775
    124          1           0       -9.197039    2.352310    1.183338
    125          1           0      -11.824381    1.462631    0.099212
    126          1           0      -11.387361    2.899840    0.873804
    127          1           0      -11.645886    1.610105    1.923274
    128          1           0      -10.006101    0.377814   -0.801664
    129          1           0       -8.536177   -0.269664   -0.001112
    130          1           0       -7.229955    1.014859   -1.187360
    131          1           0       -7.808228    2.369048   -0.331945
    132          1           0       -9.414918    1.345418   -2.722647
    133          1           0       -7.953345    2.172539   -2.986666
    134          1           0       -9.331020    4.107952   -1.231434
    135          1           0      -11.526954    4.186326   -1.907174
    136          1           0      -11.266616    2.472707   -2.552537
    137          1           0      -10.993425    3.938274   -3.528711
    138          1           0       -8.774280    3.972092   -4.101032
    139          1           0       -7.630183    4.581348   -2.938828
    140          1           0       -9.274209    5.390008   -3.350182
 ---------------------------------------------------------------------

 SCF Done:  E(RPBE1PBE) =  -3005.31793875     A.U. after   15 cycles

 Excitation energies and oscillator strengths:

 Excited State   1:      Singlet-A      1.8365 eV  675.10 nm  f=0.3730  <S**2>=0.000
     245 -> 248        0.15451
     246 -> 247        0.69689
     246 <- 247       -0.11659
 This state for optimization and/or second-order correction.
 Total Energy, E(TD-HF/TD-DFT) =  -3005.25044791
 Copying the excited state density for this state as the 1-particle RhoCI density.

 Excited State   2:      Singlet-A      2.2308 eV  555.79 nm  f=0.1104  <S**2>=0.000
     245 -> 247        0.65152
     246 -> 248       -0.25660

 Excited State   3:      Singlet-A      3.0244 eV  409.95 nm  f=0.0000  <S**2>=0.000
     243 -> 247        0.66566
     243 -> 248       -0.13939
     243 -> 249       -0.11955
     243 -> 250        0.13688

 Excited State   4:      Singlet-A      3.0810 eV  402.42 nm  f=0.0012  <S**2>=0.000
     242 -> 247        0.69418
     246 -> 248        0.10278

 Excited State   5:      Singlet-A      3.1197 eV  397.42 nm  f=0.0063  <S**2>=0.000
     240 -> 247        0.15825
     241 -> 247        0.65777
     241 -> 249        0.12741

 The electronic state is 1-A.
 Alpha  occ. eigenvalues --  -46.92362 -19.25436 -19.24204 -19.20642 -19.19977
 Alpha  occ. eigenvalues --  -19.19308 -19.19121 -14.42036 -14.41279 -14.39504
 Alpha  occ. eigenvalues --  -14.39164 -10.37119 -10.35392 -10.33261 -10.32751
 Alpha  occ. eigenvalues --  -10.29303 -10.28849 -10.28536 -10.28505 -10.28438
 Alpha  occ. eigenvalues --  -10.28182 -10.27928 -10.27276 -10.26884 -10.26694
 Alpha  occ. eigenvalues --  -10.26641 -10.26407 -10.26248 -10.26200 -10.26040
 Alpha  occ. eigenvalues --  -10.25777 -10.25717 -10.25360 -10.25104 -10.24935
 Alpha  occ. eigenvalues --  -10.24816 -10.24502 -10.24410 -10.24359 -10.24147
 Alpha  occ. eigenvalues --  -10.24000 -10.23850 -10.23842 -10.23785 -10.23266
 Alpha  occ. eigenvalues --  -10.23257 -10.23183 -10.23063 -10.22938 -10.22909
 Alpha  occ. eigenvalues --  -10.22900 -10.22658 -10.22517 -10.22339 -10.22288
 Alpha  occ. eigenvalues --  -10.22259 -10.22151 -10.21927 -10.21647 -10.21641
 Alpha  occ. eigenvalues --  -10.21572 -10.21549 -10.21478 -10.21402 -10.21392
 Alpha  occ. eigenvalues --  -10.20684  -3.14578  -1.87362  -1.86952  -1.86822
 Alpha  occ. eigenvalues --   -1.10395  -1.09448  -1.06819  -1.02704  -1.01828
 Alpha  occ. eigenvalues --   -1.01685  -1.00166  -0.98424  -0.97515  -0.96520
 Alpha  occ. eigenvalues --   -0.86717  -0.84693  -0.83492  -0.83400  -0.83090
 Alpha  occ. eigenvalues --   -0.82936  -0.82832  -0.82446  -0.81746  -0.81220
 Alpha  occ. eigenvalues --   -0.80070  -0.79809  -0.78599  -0.78313  -0.77934
 Alpha  occ. eigenvalues --   -0.76580  -0.76299  -0.75635  -0.75032  -0.74486
 Alpha  occ. eigenvalues --   -0.73879  -0.72522  -0.71995  -0.71384  -0.69994
 Alpha  occ. eigenvalues --   -0.69516  -0.69317  -0.68671  -0.68404  -0.67609
 Alpha  occ. eigenvalues --   -0.67535  -0.66512  -0.65956  -0.64371  -0.63735
 Alpha  occ. eigenvalues --   -0.63200  -0.61838  -0.61303  -0.60796  -0.60620
 Alpha  occ. eigenvalues --   -0.59734  -0.59259  -0.59031  -0.58942  -0.57951
 Alpha  occ. eigenvalues --   -0.57525  -0.57317  -0.56614  -0.56457  -0.54876
 Alpha  occ. eigenvalues --   -0.54410  -0.54094  -0.53611  -0.52817  -0.52509
 Alpha  occ. eigenvalues --   -0.52455  -0.50827  -0.50738  -0.50164  -0.50029
 Alpha  occ. eigenvalues --   -0.49580  -0.49347  -0.49017  -0.48472  -0.48431
 Alpha  occ. eigenvalues --   -0.47805  -0.47527  -0.47427  -0.47193  -0.47120
 Alpha  occ. eigenvalues --   -0.47058  -0.46756  -0.46741  -0.46563  -0.46320
 Alpha  occ. eigenvalues --   -0.46289  -0.46173  -0.45895  -0.45372  -0.45255
 Alpha  occ. eigenvalues --   -0.45160  -0.44616  -0.44480  -0.44431  -0.44204
 Alpha  occ. eigenvalues --   -0.43996  -0.43576  -0.43250  -0.43218  -0.43165
 Alpha  occ. eigenvalues --   -0.43016  -0.42819  -0.42696  -0.42578  -0.42347
 Alpha  occ. eigenvalues --   -0.41873  -0.41843  -0.41702  -0.41376  -0.40818
 Alpha  occ. eigenvalues --   -0.40802  -0.40703  -0.40244  -0.40203  -0.40029
 Alpha  occ. eigenvalues --   -0.39874  -0.39576  -0.39545  -0.39224  -0.39063
 Alpha  occ. eigenvalues --   -0.38879  -0.38751  -0.38681  -0.38549  -0.38472
 Alpha  occ. eigenvalues --   -0.38274  -0.38201  -0.38166  -0.37935  -0.37771
 Alpha  occ. eigenvalues --   -0.37582  -0.37244  -0.36931  -0.36835  -0.36574
 Alpha  occ. eigenvalues --   -0.36464  -0.36338  -0.36097  -0.35781  -0.35699
 Alpha  occ. eigenvalues --   -0.35553  -0.35538  -0.35467  -0.35251  -0.34993
 Alpha  occ. eigenvalues --   -0.34835  -0.34609  -0.33821  -0.33749  -0.33301
 Alpha  occ. eigenvalues --   -0.33186  -0.33096  -0.32796  -0.32277  -0.32255
 Alpha  occ. eigenvalues --   -0.31918  -0.31747  -0.31149  -0.30976  -0.30801
 Alpha  occ. eigenvalues --   -0.30735  -0.30316  -0.29639  -0.29265  -0.28930
 Alpha  occ. eigenvalues --   -0.28673  -0.27995  -0.27694  -0.27367  -0.26645
 Alpha  occ. eigenvalues --   -0.26241  -0.25818  -0.25623  -0.24513  -0.21299
 Alpha  occ. eigenvalues --   -0.19022
 Alpha virt. eigenvalues --   -0.11545  -0.05520  -0.03419  -0.02611  -0.01859
 Alpha virt. eigenvalues --   -0.00486   0.00558   0.01050   0.01468   0.02315
 Alpha virt. eigenvalues --    0.04278   0.04699   0.04786   0.05425   0.06093

 Mulliken charges:
               1
     1  Mg   0.987234
     2  C    0.079313
     3  C   -0.048444
     4  C   -0.080645
     5  C   -0.067326
     6  N   -0.376467
     7  C   -0.016904
     8  C   -0.124420
     9  C   -0.130201
    10  C    0.047214
    11  C    0.042072
    12  C    0.031079
    13  C   -0.008099
    14  C    0.243399
    15  O   -0.260909
    16  O   -0.398575
    17  N   -0.469725
    18  C    0.147565
    19  C   -0.150692
    20  C   -0.070751
    21  C    0.175101
    22  C    0.060374
    23  C    0.070157
    24  O   -0.274040
    25  C    0.000785
    26  N   -0.468704
    27  C    0.108890
    28  C   -0.130600
    29  C   -0.104402
    30  C    0.090192
    31  C    0.020890
    32  C   -0.027808
    33  C   -0.096737
    34  N   -0.422727
    35  C    0.139524
    36  C   -0.231947
    37  C    0.022490
    38  C    0.069924
    39  C    0.071023
    40  C    0.095409
    41  O   -0.174849
    42  C   -0.103395
    43  C    0.324559
    44  O   -0.269111
    45  O   -0.371848
    46  C    0.110965
    47  C    0.249224
    48  C   -0.133504
    49  C   -0.204279
    50  C    0.006991
    51  C   -0.020879
    52  C   -0.042389
    53  C   -0.011106
    54  C   -0.210875
    55  C   -0.018765
    56  C   -0.001588
    57  C    0.003113
    58  C   -0.085961
    59  C   -0.182953
    60  C   -0.012744
    61  C    0.033581
    62  C   -0.088573
    63  C    0.011940
    64  C   -0.230304
    65  C   -0.015984
    66  C   -0.050362
    67  H    0.004527
    68  H   -0.017227
    69  H    0.005015
    70  H    0.041736
    71  H    0.036432
    72  H    0.047466
    73  H    0.048535
    74  H    0.043434
    75  H    0.038332
    76  H    0.080734
    77  H    0.046679
    78  H    0.056081
    79  H    0.064464
    80  H    0.021543
    81  H    0.048845
    82  H    0.067297
    83  H    0.065450
    84  H    0.066234
    85  H    0.054859
    86  H    0.046634
    87  H    0.042088
    88  H    0.039988
    89  H    0.039966
    90  H    0.055756
    91  H    0.036844
    92  H    0.037070
    93  H    0.059214
    94  H    0.031981
    95  H    0.050927
    96  H    0.052455
    97  H    0.057335
    98  H    0.088130
    99  H    0.049542
   100  H    0.055578
   101  H    0.076138
   102  H    0.070011
   103  H    0.055978
   104  H    0.038325
   105  H    0.056456
   106  H    0.028804
   107  H    0.058493
   108  H    0.016631
   109  H    0.033001
   110  H    0.038767
   111  H    0.040331
   112  H    0.038374
   113  H    0.024593
   114  H    0.032714
   115  H    0.019564
   116  H    0.039936
   117  H    0.020638
   118  H    0.018121
   119  H    0.027828
   120  H    0.035825
   121  H    0.034552
   122  H    0.018574
   123  H    0.034091
   124  H    0.033971
   125  H    0.036966
   126  H    0.023499
   127  H    0.023365
   128  H    0.026961
   129  H    0.037159
   130  H    0.016942
   131  H    0.031382
   132  H    0.026100
   133  H    0.021610
   134  H    0.045425
   135  H    0.038925
   136  H    0.036946
   137  H    0.021593
   138  H    0.021487
   139  H    0.046621
   140  H    0.035940
 Sum of Mulliken charges =  -0.00000

 Dipole moment (field-independent basis, Debye):
    X=              1.7296    Y=              3.0561    Z=              0.3228  Tot=              3.5264
 Quadrupole moment (field-independent basis, Debye-Ang):
   XX=           -382.3800   YY=           -425.7240   ZZ=           -379.3883
   XY=             48.3437   XZ=              6.9602   YZ=             20.9907

 Normal termination of Gaussian 16 at Wed May  4 14:55:45 2022.
