 Gaussian 16, Revision A.03,
 Gaussian 16:  ES64L-G16RevA.03 25-Dec-2016

 --------------------------------
 #p wB97XD/Def2SVP td=(nstates=5)
 --------------------------------

 -----------------------------------------------------
 step_1851_chromophore_20 TDDFT with wB97XD functional
 -----------------------------------------------------
 Symbolic Z-matrix:
 Charge =  0 Multiplicity = 1

                         Standard orientation:
 ---------------------------------------------------------------------
 Center     Atomic      Atomic             Coordinates (Angstroms)
 Number     Number       Type             X           Y           Z
 ---------------------------------------------------------------------
      1         12           0        4.310635    1.480770   -0.654244
      2          6           0        4.177313   -2.088519   -1.115852
      3          6           0        1.522549    1.656772   -2.780901
      4          6           0        3.745036    4.573963    0.364080
      5          6           0        6.514991    0.908782    1.931972
      6          7           0        2.960395   -0.052214   -1.612974
      7          6           0        3.191799   -1.393292   -1.725889
      8          6           0        2.117220   -2.049124   -2.669253
      9          6           0        1.726226   -0.762507   -3.522202
     10          6           0        2.051773    0.388275   -2.611451
     11          6           0        2.460378   -0.627466   -4.859957
     12          6           0        0.994402   -2.587681   -1.741550
     13          6           0        0.414782   -3.934468   -2.209489
     14          6           0       -0.221509   -4.855681   -1.230682
     15          8           0        0.095838   -6.003131   -1.012643
     16          8           0       -1.339449   -4.315530   -0.614952
     17          7           0        2.868716    2.927638   -1.160409
     18          6           0        1.777231    2.873376   -2.016873
     19          6           0        1.161036    4.185174   -2.127577
     20          6           0        1.834643    5.036556   -1.228327
     21          6           0        2.853135    4.200562   -0.663917
     22          6           0       -0.103908    4.520720   -2.989236
     23          6           0        1.400199    6.539918   -0.915272
     24          8           0        0.372392    7.054495   -1.444486
     25          6           0        2.037288    7.425836    0.088285
     26          7           0        4.899210    2.556647    0.932713
     27          6           0        4.822055    3.916838    0.959418
     28          6           0        5.571426    4.515323    2.106380
     29          6           0        6.281495    3.294367    2.830605
     30          6           0        5.846575    2.145709    1.878060
     31          6           0        6.636003    5.522621    1.646329
     32          6           0        5.839213    2.989129    4.304896
     33          6           0        6.955257    3.092489    5.374976
     34          7           0        5.331851   -0.190423    0.152582
     35          6           0        6.238305   -0.227779    1.140613
     36          6           0        6.747762   -1.579422    1.248989
     37          6           0        6.035371   -2.346903    0.411902
     38          6           0        5.172048   -1.449526   -0.269004
     39          6           0        7.739368   -2.020845    2.190179
     40          6           0        5.855596   -3.651178   -0.197970
     41          8           0        6.574499   -4.603240   -0.123956
     42          6           0        4.642735   -3.569972   -1.212201
     43          6           0        3.698698   -4.656347   -0.789283
     44          8           0        2.745790   -4.529581    0.015432
     45          8           0        4.036124   -5.802136   -1.539494
     46          6           0        3.168714   -6.929893   -1.352435
     47          6           0       -2.200635   -5.316607    0.037788
     48          6           0       -3.505724   -4.542332    0.188885
     49          6           0       -4.576282   -4.796571    0.969016
     50          6           0       -4.914171   -6.081177    1.728891
     51          6           0       -5.754853   -3.804867    0.919714
     52          6           0       -5.646002   -2.355784    1.559824
     53          6           0       -6.719667   -2.270765    2.687444
     54          6           0       -6.539818   -1.101269    3.582673
     55          6           0       -6.028832   -1.646864    4.872225
     56          6           0       -7.856813   -0.331981    3.945316
     57          6           0       -8.088766    0.826920    2.985486
     58          6           0       -9.444346    0.590076    2.371992
     59          6           0       -9.710234    1.400141    1.047638
     60          6           0      -11.230091    1.823144    0.938561
     61          6           0       -9.141965    0.618831   -0.183317
     62          6           0       -8.153587    1.545249   -0.956528
     63          6           0       -8.797433    2.136785   -2.298191
     64          6           0       -9.406189    3.506860   -2.137855
     65          6           0      -10.935867    3.512154   -2.527135
     66          6           0       -8.696389    4.489483   -3.144545
     67          1           0        0.775757    1.638401   -3.576764
     68          1           0        3.724266    5.604534    0.725002
     69          1           0        7.216050    0.806291    2.762272
     70          1           0        2.619949   -2.821364   -3.251104
     71          1           0        0.644730   -0.784951   -3.658803
     72          1           0        2.953619    0.339273   -4.969418
     73          1           0        1.686922   -0.728266   -5.620884
     74          1           0        3.237921   -1.380309   -4.987769
     75          1           0        0.104976   -1.958139   -1.730946
     76          1           0        1.259495   -2.596101   -0.684096
     77          1           0        1.225354   -4.433697   -2.739614
     78          1           0       -0.369786   -3.681837   -2.923254
     79          1           0       -0.853388    5.076798   -2.426911
     80          1           0       -0.622513    3.654740   -3.401835
     81          1           0        0.076461    5.117265   -3.883243
     82          1           0        1.916707    6.875465    1.020686
     83          1           0        1.518319    8.382445    0.145387
     84          1           0        3.102012    7.508232   -0.134010
     85          1           0        4.848752    4.981610    2.776310
     86          1           0        7.363332    3.387525    2.912678
     87          1           0        7.630282    5.156547    1.899211
     88          1           0        6.511834    6.530434    2.042177
     89          1           0        6.561112    5.716375    0.576636
     90          1           0        5.314604    2.038625    4.400704
     91          1           0        5.148487    3.721841    4.721107
     92          1           0        7.035361    2.061062    5.715437
     93          1           0        6.796484    3.749284    6.230327
     94          1           0        7.950878    3.216718    4.946583
     95          1           0        7.773600   -3.110166    2.159983
     96          1           0        7.417763   -1.800729    3.207722
     97          1           0        8.709969   -1.615233    1.903529
     98          1           0        5.132945   -3.811108   -2.154608
     99          1           0        3.798596   -7.788502   -1.122373
    100          1           0        2.523921   -7.108955   -2.212931
    101          1           0        2.481399   -6.835359   -0.511863
    102          1           0       -1.737468   -5.692575    0.950397
    103          1           0       -2.288893   -6.120135   -0.692955
    104          1           0       -3.506459   -3.557610   -0.276877
    105          1           0       -5.084152   -5.911364    2.792072
    106          1           0       -4.030084   -6.699660    1.569764
    107          1           0       -5.746960   -6.646311    1.312549
    108          1           0       -6.607691   -4.383153    1.275678
    109          1           0       -6.027698   -3.621081   -0.119691
    110          1           0       -5.777611   -1.726721    0.679296
    111          1           0       -4.653320   -2.187365    1.977583
    112          1           0       -6.833450   -3.213757    3.221370
    113          1           0       -7.616590   -2.038533    2.112985
    114          1           0       -5.764722   -0.477776    3.136817
    115          1           0       -5.278471   -2.418833    4.701212
    116          1           0       -6.683670   -1.991152    5.672474
    117          1           0       -5.457062   -0.828580    5.311331
    118          1           0       -7.777900    0.076697    4.953130
    119          1           0       -8.647603   -1.081503    3.978706
    120          1           0       -7.341101    0.851662    2.192999
    121          1           0       -8.175399    1.713028    3.614924
    122          1           0      -10.037947    0.906330    3.229649
    123          1           0       -9.717449   -0.455146    2.229775
    124          1           0       -9.197039    2.352310    1.183338
    125          1           0      -11.824381    1.462631    0.099212
    126          1           0      -11.387361    2.899840    0.873804
    127          1           0      -11.645886    1.610105    1.923274
    128          1           0      -10.006101    0.377814   -0.801664
    129          1           0       -8.536177   -0.269664   -0.001112
    130          1           0       -7.229955    1.014859   -1.187360
    131          1           0       -7.808228    2.369048   -0.331945
    132          1           0       -9.414918    1.345418   -2.722647
    133          1           0       -7.953345    2.172539   -2.986666
    134          1           0       -9.331020    4.107952   -1.231434
    135          1           0      -11.526954    4.186326   -1.907174
    136          1           0      -11.266616    2.472707   -2.552537
    137          1           0      -10.993425    3.938274   -3.528711
    138          1           0       -8.774280    3.972092   -4.101032
    139          1           0       -7.630183    4.581348   -2.938828
    140          1           0       -9.274209    5.390008   -3.350182
 ---------------------------------------------------------------------

 SCF Done:  E(RwB97XD) =  -3007.82807418     A.U. after   19 cycles

 Excitation energies and oscillator strengths:

 Excited State   1:      Singlet-A      1.6149 eV  767.74 nm  f=0.3833  <S**2>=0.000
     245 -> 248        0.16774
     246 -> 247        0.68712
     245 <- 248        0.11061
 This state for optimization and/or second-order correction.
 Total Energy, E(TD-HF/TD-DFT) =  -3007.76872658
 Copying the excited state density for this state as the 1-particle RhoCI density.

 Excited State   2:      Singlet-A      2.1551 eV  575.31 nm  f=0.1154  <S**2>=0.000
     245 -> 247        0.64184
     246 -> 248       -0.27912

 Excited State   3:      Singlet-A      3.4353 eV  360.91 nm  f=0.0269  <S**2>=0.000
     243 -> 247        0.65100
     246 -> 248        0.21298

 Excited State   4:      Singlet-A      3.5347 eV  350.76 nm  f=0.4138  <S**2>=0.000
     240 -> 247       -0.21820
     241 -> 247       -0.23100
     242 -> 247        0.10115
     243 -> 247       -0.17049
     245 -> 247        0.21862
     246 -> 248        0.53261

 Excited State   5:      Singlet-A      3.5791 eV  346.41 nm  f=0.0203  <S**2>=0.000
     242 -> 247        0.45280
     242 -> 248       -0.23414
     242 -> 249       -0.27648
     242 -> 250        0.25420
     242 -> 251       -0.22542
     246 -> 248       -0.11332

 The electronic state is 1-A.
 Alpha  occ. eigenvalues --  -46.95331 -19.30043 -19.28750 -19.25428 -19.24857
 Alpha  occ. eigenvalues --  -19.23961 -19.23871 -14.47200 -14.46270 -14.44444
 Alpha  occ. eigenvalues --  -14.44159 -10.44047 -10.42174 -10.40023 -10.39648
 Alpha  occ. eigenvalues --  -10.35592 -10.35333 -10.34789 -10.34775 -10.34759
 Alpha  occ. eigenvalues --  -10.34451 -10.34223 -10.33642 -10.33284 -10.33160
 Alpha  occ. eigenvalues --  -10.33147 -10.32627 -10.32540 -10.32498 -10.32268
 Alpha  occ. eigenvalues --  -10.32050 -10.31933 -10.31700 -10.31610 -10.31389
 Alpha  occ. eigenvalues --  -10.31243 -10.30981 -10.30838 -10.30653 -10.30483
 Alpha  occ. eigenvalues --  -10.30384 -10.30350 -10.30214 -10.30150 -10.29644
 Alpha  occ. eigenvalues --  -10.29524 -10.29509 -10.29459 -10.29437 -10.29356
 Alpha  occ. eigenvalues --  -10.29257 -10.29045 -10.28918 -10.28690 -10.28629
 Alpha  occ. eigenvalues --  -10.28602 -10.28478 -10.28204 -10.28012 -10.27994
 Alpha  occ. eigenvalues --  -10.27987 -10.27926 -10.27890 -10.27821 -10.27767
 Alpha  occ. eigenvalues --  -10.27115  -3.21409  -1.94941  -1.94530  -1.94402
 Alpha  occ. eigenvalues --   -1.17749  -1.16918  -1.14339  -1.10161  -1.09271
 Alpha  occ. eigenvalues --   -1.09015  -1.07560  -1.05825  -1.04885  -1.03912
 Alpha  occ. eigenvalues --   -0.94379  -0.92342  -0.91107  -0.91032  -0.90708
 Alpha  occ. eigenvalues --   -0.90586  -0.90468  -0.90102  -0.89352  -0.88869
 Alpha  occ. eigenvalues --   -0.87669  -0.87416  -0.86235  -0.85962  -0.85578
 Alpha  occ. eigenvalues --   -0.84293  -0.83951  -0.83291  -0.82629  -0.82138
 Alpha  occ. eigenvalues --   -0.81546  -0.80153  -0.79606  -0.78996  -0.77630
 Alpha  occ. eigenvalues --   -0.77115  -0.76981  -0.76359  -0.76086  -0.75237
 Alpha  occ. eigenvalues --   -0.75129  -0.74099  -0.73509  -0.71969  -0.71297
 Alpha  occ. eigenvalues --   -0.70757  -0.69475  -0.68856  -0.68432  -0.68171
 Alpha  occ. eigenvalues --   -0.67214  -0.66737  -0.66679  -0.66371  -0.65647
 Alpha  occ. eigenvalues --   -0.65027  -0.64956  -0.64079  -0.64066  -0.62303
 Alpha  occ. eigenvalues --   -0.61799  -0.61563  -0.61003  -0.60234  -0.60051
 Alpha  occ. eigenvalues --   -0.59889  -0.58308  -0.58171  -0.57572  -0.57470
 Alpha  occ. eigenvalues --   -0.57062  -0.56764  -0.56450  -0.55825  -0.55817
 Alpha  occ. eigenvalues --   -0.55135  -0.54943  -0.54805  -0.54609  -0.54595
 Alpha  occ. eigenvalues --   -0.54450  -0.54100  -0.54058  -0.53932  -0.53839
 Alpha  occ. eigenvalues --   -0.53635  -0.53551  -0.53180  -0.52727  -0.52522
 Alpha  occ. eigenvalues --   -0.52487  -0.51969  -0.51810  -0.51760  -0.51528
 Alpha  occ. eigenvalues --   -0.51373  -0.50892  -0.50553  -0.50512  -0.50454
 Alpha  occ. eigenvalues --   -0.50275  -0.50093  -0.50000  -0.49808  -0.49657
 Alpha  occ. eigenvalues --   -0.49132  -0.49068  -0.48833  -0.48642  -0.48091
 Alpha  occ. eigenvalues --   -0.47972  -0.47930  -0.47518  -0.47423  -0.47247
 Alpha  occ. eigenvalues --   -0.47183  -0.46736  -0.46709  -0.46362  -0.46291
 Alpha  occ. eigenvalues --   -0.46021  -0.45924  -0.45846  -0.45664  -0.45628
 Alpha  occ. eigenvalues --   -0.45423  -0.45394  -0.45325  -0.45094  -0.44883
 Alpha  occ. eigenvalues --   -0.44542  -0.44263  -0.44042  -0.43933  -0.43703
 Alpha  occ. eigenvalues --   -0.43542  -0.43487  -0.43134  -0.42898  -0.42856
 Alpha  occ. eigenvalues --   -0.42770  -0.42612  -0.42470  -0.42340  -0.41989
 Alpha  occ. eigenvalues --   -0.41900  -0.41670  -0.40890  -0.40717  -0.40412
 Alpha  occ. eigenvalues --   -0.40150  -0.40066  -0.39824  -0.39338  -0.39274
 Alpha  occ. eigenvalues --   -0.38802  -0.38779  -0.38235  -0.38032  -0.37900
 Alpha  occ. eigenvalues --   -0.37649  -0.37286  -0.36558  -0.36304  -0.35586
 Alpha  occ. eigenvalues --   -0.35576  -0.35072  -0.34560  -0.33967  -0.33448
 Alpha  occ. eigenvalues --   -0.33161  -0.32781  -0.32363  -0.31250  -0.26324
 Alpha  occ. eigenvalues --   -0.23212
 Alpha virt. eigenvalues --   -0.07451   0.00014   0.02882   0.03899   0.04108
 Alpha virt. eigenvalues --    0.06175   0.07293   0.07761   0.08327   0.09022
 Alpha virt. eigenvalues --    0.11061   0.11324   0.11428   0.12075   0.12827

 Mulliken charges:
               1
     1  Mg   0.977099
     2  C    0.066885
     3  C   -0.066365
     4  C   -0.090810
     5  C   -0.086256
     6  N   -0.347903
     7  C   -0.042570
     8  C   -0.098067
     9  C   -0.099434
    10  C    0.039975
    11  C    0.047493
    12  C    0.033404
    13  C    0.014400
    14  C    0.229821
    15  O   -0.256833
    16  O   -0.397445
    17  N   -0.438815
    18  C    0.141144
    19  C   -0.146857
    20  C   -0.069473
    21  C    0.178071
    22  C    0.071240
    23  C    0.066348
    24  O   -0.269979
    25  C    0.014404
    26  N   -0.437078
    27  C    0.090210
    28  C   -0.100492
    29  C   -0.075496
    30  C    0.080551
    31  C    0.028388
    32  C   -0.019631
    33  C   -0.079650
    34  N   -0.382127
    35  C    0.127786
    36  C   -0.216993
    37  C    0.020778
    38  C    0.055620
    39  C    0.077502
    40  C    0.076042
    41  O   -0.165456
    42  C   -0.062213
    43  C    0.301731
    44  O   -0.261552
    45  O   -0.371058
    46  C    0.125131
    47  C    0.258242
    48  C   -0.138589
    49  C   -0.194783
    50  C    0.024114
    51  C   -0.002459
    52  C   -0.027951
    53  C    0.010400
    54  C   -0.179863
    55  C   -0.006906
    56  C    0.011928
    57  C    0.021167
    58  C   -0.065615
    59  C   -0.152390
    60  C   -0.000392
    61  C    0.045969
    62  C   -0.068994
    63  C    0.025786
    64  C   -0.206608
    65  C   -0.002526
    66  C   -0.032076
    67  H   -0.001225
    68  H   -0.031249
    69  H    0.000700
    70  H    0.028995
    71  H    0.026542
    72  H    0.041184
    73  H    0.043819
    74  H    0.037720
    75  H    0.031801
    76  H    0.073368
    77  H    0.036885
    78  H    0.050123
    79  H    0.059910
    80  H    0.015974
    81  H    0.044398
    82  H    0.060896
    83  H    0.064901
    84  H    0.060824
    85  H    0.045649
    86  H    0.031778
    87  H    0.036595
    88  H    0.034896
    89  H    0.033367
    90  H    0.048241
    91  H    0.028893
    92  H    0.029882
    93  H    0.054988
    94  H    0.024937
    95  H    0.047618
    96  H    0.047997
    97  H    0.053315
    98  H    0.082774
    99  H    0.046412
   100  H    0.052273
   101  H    0.070807
   102  H    0.066413
   103  H    0.050614
   104  H    0.034899
   105  H    0.050883
   106  H    0.021731
   107  H    0.053325
   108  H    0.006896
   109  H    0.025426
   110  H    0.032102
   111  H    0.030518
   112  H    0.028554
   113  H    0.007429
   114  H    0.021428
   115  H    0.012086
   116  H    0.034546
   117  H    0.013683
   118  H    0.010502
   119  H    0.017246
   120  H    0.022214
   121  H    0.027806
   122  H    0.007938
   123  H    0.022933
   124  H    0.019034
   125  H    0.031238
   126  H    0.017335
   127  H    0.017043
   128  H    0.015480
   129  H    0.028403
   130  H    0.010661
   131  H    0.020059
   132  H    0.017886
   133  H    0.013178
   134  H    0.034796
   135  H    0.034192
   136  H    0.028836
   137  H    0.014673
   138  H    0.011256
   139  H    0.040744
   140  H    0.030097
 Sum of Mulliken charges =  -0.00000

 Dipole moment (field-independent basis, Debye):
    X=              1.8362    Y=              3.0144    Z=              0.3447  Tot=              3.5464
 Quadrupole moment (field-independent basis, Debye-Ang):
   XX=           -381.2296   YY=           -424.6533   ZZ=           -379.2586
   XY=             47.9597   XZ=              6.7213   YZ=             20.8347

 Normal termination of Gaussian 16 at Wed May  4 15:31:04 2022.
