 Gaussian 16, Revision A.03,
 Gaussian 16:  ES64L-G16RevA.03 25-Dec-2016

 --------------------
 #p ZINDO=(nstates=5)
 --------------------

 ------------------------------
 step_1851_chromophore_20 ZINDO
 ------------------------------
 Symbolic Z-matrix:
 Charge =  0 Multiplicity = 1

                         Standard orientation:
 ---------------------------------------------------------------------
 Center     Atomic      Atomic             Coordinates (Angstroms)
 Number     Number       Type             X           Y           Z
 ---------------------------------------------------------------------
      1         12           0        4.310635    1.480770   -0.654244
      2          6           0        4.177313   -2.088519   -1.115852
      3          6           0        1.522549    1.656772   -2.780901
      4          6           0        3.745036    4.573963    0.364080
      5          6           0        6.514991    0.908782    1.931972
      6          7           0        2.960395   -0.052214   -1.612974
      7          6           0        3.191799   -1.393292   -1.725889
      8          6           0        2.117220   -2.049124   -2.669253
      9          6           0        1.726226   -0.762507   -3.522202
     10          6           0        2.051773    0.388275   -2.611451
     11          6           0        2.460378   -0.627466   -4.859957
     12          6           0        0.994402   -2.587681   -1.741550
     13          6           0        0.414782   -3.934468   -2.209489
     14          6           0       -0.221509   -4.855681   -1.230682
     15          8           0        0.095838   -6.003131   -1.012643
     16          8           0       -1.339449   -4.315530   -0.614952
     17          7           0        2.868716    2.927638   -1.160409
     18          6           0        1.777231    2.873376   -2.016873
     19          6           0        1.161036    4.185174   -2.127577
     20          6           0        1.834643    5.036556   -1.228327
     21          6           0        2.853135    4.200562   -0.663917
     22          6           0       -0.103908    4.520720   -2.989236
     23          6           0        1.400199    6.539918   -0.915272
     24          8           0        0.372392    7.054495   -1.444486
     25          6           0        2.037288    7.425836    0.088285
     26          7           0        4.899210    2.556647    0.932713
     27          6           0        4.822055    3.916838    0.959418
     28          6           0        5.571426    4.515323    2.106380
     29          6           0        6.281495    3.294367    2.830605
     30          6           0        5.846575    2.145709    1.878060
     31          6           0        6.636003    5.522621    1.646329
     32          6           0        5.839213    2.989129    4.304896
     33          6           0        6.955257    3.092489    5.374976
     34          7           0        5.331851   -0.190423    0.152582
     35          6           0        6.238305   -0.227779    1.140613
     36          6           0        6.747762   -1.579422    1.248989
     37          6           0        6.035371   -2.346903    0.411902
     38          6           0        5.172048   -1.449526   -0.269004
     39          6           0        7.739368   -2.020845    2.190179
     40          6           0        5.855596   -3.651178   -0.197970
     41          8           0        6.574499   -4.603240   -0.123956
     42          6           0        4.642735   -3.569972   -1.212201
     43          6           0        3.698698   -4.656347   -0.789283
     44          8           0        2.745790   -4.529581    0.015432
     45          8           0        4.036124   -5.802136   -1.539494
     46          6           0        3.168714   -6.929893   -1.352435
     47          6           0       -2.200635   -5.316607    0.037788
     48          6           0       -3.505724   -4.542332    0.188885
     49          6           0       -4.576282   -4.796571    0.969016
     50          6           0       -4.914171   -6.081177    1.728891
     51          6           0       -5.754853   -3.804867    0.919714
     52          6           0       -5.646002   -2.355784    1.559824
     53          6           0       -6.719667   -2.270765    2.687444
     54          6           0       -6.539818   -1.101269    3.582673
     55          6           0       -6.028832   -1.646864    4.872225
     56          6           0       -7.856813   -0.331981    3.945316
     57          6           0       -8.088766    0.826920    2.985486
     58          6           0       -9.444346    0.590076    2.371992
     59          6           0       -9.710234    1.400141    1.047638
     60          6           0      -11.230091    1.823144    0.938561
     61          6           0       -9.141965    0.618831   -0.183317
     62          6           0       -8.153587    1.545249   -0.956528
     63          6           0       -8.797433    2.136785   -2.298191
     64          6           0       -9.406189    3.506860   -2.137855
     65          6           0      -10.935867    3.512154   -2.527135
     66          6           0       -8.696389    4.489483   -3.144545
     67          1           0        0.775757    1.638401   -3.576764
     68          1           0        3.724266    5.604534    0.725002
     69          1           0        7.216050    0.806291    2.762272
     70          1           0        2.619949   -2.821364   -3.251104
     71          1           0        0.644730   -0.784951   -3.658803
     72          1           0        2.953619    0.339273   -4.969418
     73          1           0        1.686922   -0.728266   -5.620884
     74          1           0        3.237921   -1.380309   -4.987769
     75          1           0        0.104976   -1.958139   -1.730946
     76          1           0        1.259495   -2.596101   -0.684096
     77          1           0        1.225354   -4.433697   -2.739614
     78          1           0       -0.369786   -3.681837   -2.923254
     79          1           0       -0.853388    5.076798   -2.426911
     80          1           0       -0.622513    3.654740   -3.401835
     81          1           0        0.076461    5.117265   -3.883243
     82          1           0        1.916707    6.875465    1.020686
     83          1           0        1.518319    8.382445    0.145387
     84          1           0        3.102012    7.508232   -0.134010
     85          1           0        4.848752    4.981610    2.776310
     86          1           0        7.363332    3.387525    2.912678
     87          1           0        7.630282    5.156547    1.899211
     88          1           0        6.511834    6.530434    2.042177
     89          1           0        6.561112    5.716375    0.576636
     90          1           0        5.314604    2.038625    4.400704
     91          1           0        5.148487    3.721841    4.721107
     92          1           0        7.035361    2.061062    5.715437
     93          1           0        6.796484    3.749284    6.230327
     94          1           0        7.950878    3.216718    4.946583
     95          1           0        7.773600   -3.110166    2.159983
     96          1           0        7.417763   -1.800729    3.207722
     97          1           0        8.709969   -1.615233    1.903529
     98          1           0        5.132945   -3.811108   -2.154608
     99          1           0        3.798596   -7.788502   -1.122373
    100          1           0        2.523921   -7.108955   -2.212931
    101          1           0        2.481399   -6.835359   -0.511863
    102          1           0       -1.737468   -5.692575    0.950397
    103          1           0       -2.288893   -6.120135   -0.692955
    104          1           0       -3.506459   -3.557610   -0.276877
    105          1           0       -5.084152   -5.911364    2.792072
    106          1           0       -4.030084   -6.699660    1.569764
    107          1           0       -5.746960   -6.646311    1.312549
    108          1           0       -6.607691   -4.383153    1.275678
    109          1           0       -6.027698   -3.621081   -0.119691
    110          1           0       -5.777611   -1.726721    0.679296
    111          1           0       -4.653320   -2.187365    1.977583
    112          1           0       -6.833450   -3.213757    3.221370
    113          1           0       -7.616590   -2.038533    2.112985
    114          1           0       -5.764722   -0.477776    3.136817
    115          1           0       -5.278471   -2.418833    4.701212
    116          1           0       -6.683670   -1.991152    5.672474
    117          1           0       -5.457062   -0.828580    5.311331
    118          1           0       -7.777900    0.076697    4.953130
    119          1           0       -8.647603   -1.081503    3.978706
    120          1           0       -7.341101    0.851662    2.192999
    121          1           0       -8.175399    1.713028    3.614924
    122          1           0      -10.037947    0.906330    3.229649
    123          1           0       -9.717449   -0.455146    2.229775
    124          1           0       -9.197039    2.352310    1.183338
    125          1           0      -11.824381    1.462631    0.099212
    126          1           0      -11.387361    2.899840    0.873804
    127          1           0      -11.645886    1.610105    1.923274
    128          1           0      -10.006101    0.377814   -0.801664
    129          1           0       -8.536177   -0.269664   -0.001112
    130          1           0       -7.229955    1.014859   -1.187360
    131          1           0       -7.808228    2.369048   -0.331945
    132          1           0       -9.414918    1.345418   -2.722647
    133          1           0       -7.953345    2.172539   -2.986666
    134          1           0       -9.331020    4.107952   -1.231434
    135          1           0      -11.526954    4.186326   -1.907174
    136          1           0      -11.266616    2.472707   -2.552537
    137          1           0      -10.993425    3.938274   -3.528711
    138          1           0       -8.774280    3.972092   -4.101032
    139          1           0       -7.630183    4.581348   -2.938828
    140          1           0       -9.274209    5.390008   -3.350182
 ---------------------------------------------------------------------

 SCF Done:  E(RZINDO/S) =  -474.287333510     A.U. after   19 cycles

 Excitation energies and oscillator strengths:

 Excited State   1:      Singlet-A      1.2383 eV 1001.23 nm  f=0.6140  <S**2>=0.000
     175 ->178        -0.18240
     176 ->177         0.66467
 This state for optimization and/or second-order correction.
 Total Energy, E(CIS/TDA) =  -474.241826046
 Copying the excited state density for this state as the 1-particle RhoCI density.

 Excited State   2:      Singlet-A      1.9003 eV  652.46 nm  f=0.0452  <S**2>=0.000
     175 ->177         0.55718
     176 ->178         0.40724

 Excited State   3:      Singlet-A      2.8933 eV  428.53 nm  f=0.3878  <S**2>=0.000
     175 ->177        -0.24130
     176 ->178         0.37363
     176 ->179        -0.12775
     176 ->180         0.48989

 Excited State   4:      Singlet-A      2.9259 eV  423.75 nm  f=0.0081  <S**2>=0.000
     169 ->177         0.22509
     169 ->178         0.22349
     169 ->179        -0.17583
     169 ->181        -0.44846
     169 ->182        -0.12759
     169 ->183        -0.16023
     169 ->185        -0.24455
     176 ->180         0.12611

 Excited State   5:      Singlet-A      3.0027 eV  412.91 nm  f=0.0089  <S**2>=0.000
     168 ->177         0.30203
     168 ->179         0.43406
     168 ->181        -0.10845
     168 ->182        -0.17614
     168 ->185         0.14963
     168 ->187        -0.13234
     170 ->179        -0.10660
     176 ->180        -0.14916

 The electronic state is 1-A.
 Alpha  occ. eigenvalues --   -1.86856  -1.81344  -1.79343  -1.73566  -1.71218
 Alpha  occ. eigenvalues --   -1.70665  -1.67318  -1.60674  -1.60114  -1.56724
 Alpha  occ. eigenvalues --   -1.54182  -1.50546  -1.49293  -1.47606  -1.46441
 Alpha  occ. eigenvalues --   -1.44291  -1.42488  -1.41397  -1.39502  -1.37475
 Alpha  occ. eigenvalues --   -1.36690  -1.35045  -1.32286  -1.31345  -1.28686
 Alpha  occ. eigenvalues --   -1.28439  -1.25763  -1.22508  -1.19758  -1.18494
 Alpha  occ. eigenvalues --   -1.17469  -1.14947  -1.13551  -1.13302  -1.12609
 Alpha  occ. eigenvalues --   -1.12160  -1.10472  -1.08521  -1.05765  -1.03462
 Alpha  occ. eigenvalues --   -1.01782  -1.00471  -0.98276  -0.97301  -0.96108
 Alpha  occ. eigenvalues --   -0.95835  -0.94771  -0.94400  -0.93157  -0.92358
 Alpha  occ. eigenvalues --   -0.91405  -0.90604  -0.89113  -0.88600  -0.86270
 Alpha  occ. eigenvalues --   -0.85943  -0.84936  -0.83143  -0.81969  -0.80163
 Alpha  occ. eigenvalues --   -0.79458  -0.79023  -0.76903  -0.76612  -0.75463
 Alpha  occ. eigenvalues --   -0.75061  -0.74888  -0.74085  -0.73787  -0.73087
 Alpha  occ. eigenvalues --   -0.72292  -0.72147  -0.71736  -0.71532  -0.70712
 Alpha  occ. eigenvalues --   -0.70342  -0.69220  -0.68965  -0.68493  -0.68142
 Alpha  occ. eigenvalues --   -0.67731  -0.67346  -0.66594  -0.66428  -0.65715
 Alpha  occ. eigenvalues --   -0.65570  -0.65221  -0.64539  -0.64195  -0.64065
 Alpha  occ. eigenvalues --   -0.63507  -0.63267  -0.62865  -0.62591  -0.61784
 Alpha  occ. eigenvalues --   -0.60991  -0.60504  -0.60183  -0.60079  -0.59857
 Alpha  occ. eigenvalues --   -0.59526  -0.58780  -0.58099  -0.57889  -0.57690
 Alpha  occ. eigenvalues --   -0.57360  -0.56794  -0.56469  -0.56318  -0.56122
 Alpha  occ. eigenvalues --   -0.55666  -0.55456  -0.55412  -0.54695  -0.54379
 Alpha  occ. eigenvalues --   -0.54242  -0.53312  -0.52977  -0.52799  -0.52561
 Alpha  occ. eigenvalues --   -0.52283  -0.52068  -0.51828  -0.51724  -0.51468
 Alpha  occ. eigenvalues --   -0.50895  -0.50682  -0.50613  -0.50533  -0.50178
 Alpha  occ. eigenvalues --   -0.50120  -0.49876  -0.49219  -0.49030  -0.48794
 Alpha  occ. eigenvalues --   -0.48378  -0.48136  -0.47909  -0.47720  -0.47367
 Alpha  occ. eigenvalues --   -0.47267  -0.47019  -0.46805  -0.46789  -0.46545
 Alpha  occ. eigenvalues --   -0.46023  -0.45878  -0.45652  -0.45475  -0.45027
 Alpha  occ. eigenvalues --   -0.44931  -0.44592  -0.43861  -0.43364  -0.43347
 Alpha  occ. eigenvalues --   -0.43225  -0.42798  -0.42745  -0.42081  -0.41702
 Alpha  occ. eigenvalues --   -0.41314  -0.41082  -0.39674  -0.39232  -0.38730
 Alpha  occ. eigenvalues --   -0.37776  -0.37519  -0.35616  -0.35212  -0.34965
 Alpha  occ. eigenvalues --   -0.34146  -0.33086  -0.32886  -0.31898  -0.27010
 Alpha  occ. eigenvalues --   -0.22019
 Alpha virt. eigenvalues --   -0.08852  -0.02222  -0.00447   0.00566   0.00932
 Alpha virt. eigenvalues --    0.02093   0.02580   0.03214   0.04358   0.05241
 Alpha virt. eigenvalues --    0.05941   0.06725   0.06885   0.07932   0.08379

 Mulliken charges:
               1
     1  Mg   0.433197
     2  C   -0.068596
     3  C   -0.081264
     4  C   -0.067198
     5  C   -0.061323
     6  N   -0.324542
     7  C    0.157702
     8  C   -0.005217
     9  C    0.010592
    10  C    0.127682
    11  C   -0.044832
    12  C   -0.014672
    13  C    0.010920
    14  C    0.476436
    15  O   -0.515352
    16  O   -0.286099
    17  N   -0.321048
    18  C    0.103434
    19  C    0.016617
    20  C   -0.039847
    21  C    0.118605
    22  C   -0.042697
    23  C    0.322889
    24  O   -0.535518
    25  C   -0.017770
    26  N   -0.260620
    27  C    0.105208
    28  C    0.011970
    29  C   -0.004993
    30  C    0.112933
    31  C   -0.053415
    32  C   -0.033601
    33  C   -0.066151
    34  N   -0.308077
    35  C    0.102989
    36  C    0.063137
    37  C   -0.046623
    38  C    0.121554
    39  C   -0.038590
    40  C    0.343305
    41  O   -0.501858
    42  C    0.054911
    43  C    0.484810
    44  O   -0.518827
    45  O   -0.262247
    46  C    0.071883
    47  C    0.109696
    48  C   -0.079110
    49  C   -0.016563
    50  C   -0.042338
    51  C   -0.041055
    52  C   -0.034114
    53  C   -0.027182
    54  C   -0.009421
    55  C   -0.055967
    56  C   -0.035399
    57  C   -0.034225
    58  C   -0.040825
    59  C   -0.015494
    60  C   -0.069117
    61  C   -0.032961
    62  C   -0.048967
    63  C   -0.024919
    64  C   -0.012697
    65  C   -0.067227
    66  C   -0.068515
    67  H    0.024942
    68  H    0.014709
    69  H    0.028069
    70  H    0.032154
    71  H    0.024678
    72  H    0.026491
    73  H    0.020410
    74  H    0.022013
    75  H    0.018900
    76  H    0.046489
    77  H    0.031613
    78  H    0.034836
    79  H    0.039082
    80  H    0.013327
    81  H    0.032266
    82  H    0.038842
    83  H    0.046818
    84  H    0.035434
    85  H    0.035583
    86  H    0.038509
    87  H    0.024549
    88  H    0.016763
    89  H    0.018912
    90  H    0.028477
    91  H    0.016107
    92  H    0.010147
    93  H    0.031905
    94  H    0.017917
    95  H    0.027107
    96  H    0.032627
    97  H    0.037561
    98  H    0.062743
    99  H    0.032749
   100  H    0.038730
   101  H    0.055098
   102  H    0.061368
   103  H    0.051228
   104  H    0.034321
   105  H    0.032882
   106  H    0.013779
   107  H    0.031485
   108  H    0.012841
   109  H    0.013482
   110  H    0.028703
   111  H    0.024576
   112  H    0.032205
   113  H    0.006411
   114  H    0.027061
   115  H    0.005328
   116  H    0.026603
   117  H   -0.001703
   118  H    0.012274
   119  H    0.023933
   120  H    0.026905
   121  H    0.025047
   122  H    0.010087
   123  H    0.020859
   124  H    0.022353
   125  H    0.027262
   126  H    0.010921
   127  H    0.017969
   128  H    0.023476
   129  H    0.025983
   130  H    0.011174
   131  H    0.019709
   132  H    0.025559
   133  H    0.010917
   134  H    0.032339
   135  H    0.021596
   136  H    0.023191
   137  H    0.016653
   138  H    0.005129
   139  H    0.023337
   140  H    0.022797
 Sum of Mulliken charges =  -0.00000

 Dipole moment (field-independent basis, Debye):
    X=              3.7628    Y=              2.5966    Z=             -0.3733  Tot=              4.5870
 N-N= 4.453534300426D+03 E-N= 0.000000000000D+00  KE=-9.581912136916D+03
 Leave Link  601 at Wed May  4 15:45:54 2022, MaxMem=  6710886400 cpu:               1.7 elap:               0.1
 (Enter /sw/apps/gaussian-16.0/g16/l9999.exe)
 1\1\GINC-BP1-COMPUTE155\SP\RZINDO CIS\STO-3G\C55H74Mg1N4O6\OF15641\04-
 May-2022\0\\#p ZINDO=(nstates=5)\\step_1851_chromophore_20 ZINDO\\0,1\
 Mg,0,7.151,56.564,42.366\C,0,6.247,53.083,42.556\C,0,9.955,55.527,40.5
 25\C,0,7.614,59.673,41.344\C,0,3.984,57.29,43.514\N,0,7.836,54.589,41.
 516\C,0,7.354,53.35,41.828\C,0,8.269,52.239,41.193\C,0,9.621,53.073,41
 .082\C,0,9.16,54.502,41.01\C,0,10.601,52.871,42.242\C,0,7.617,51.862,3
 9.835\C,0,7.7,50.358,39.519\C,0,6.704,49.728,38.612\O,0,5.98,48.795,38

 Normal termination of Gaussian 16 at Wed May  4 15:45:55 2022.
