 Gaussian 16, Revision A.03,
 Gaussian 16:  ES64L-G16RevA.03 25-Dec-2016

 ------------------------------
 #p blyp/Def2SVP td=(nstates=5)
 ------------------------------

 --------------------------------------------------
 step_1151_chromophore_5 TDDFT with blyp functional
 --------------------------------------------------
 Symbolic Z-matrix:
 Charge =  0 Multiplicity = 1

                         Standard orientation:
 ---------------------------------------------------------------------
 Center     Atomic      Atomic             Coordinates (Angstroms)
 Number     Number       Type             X           Y           Z
 ---------------------------------------------------------------------
      1         12           0        5.362020    0.395198   -0.370000
      2          6           0        3.995759   -2.874284   -0.076860
      3          6           0        2.935000    1.027114   -2.669524
      4          6           0        6.044166    3.740247   -0.023132
      5          6           0        7.144325   -0.231913    2.523386
      6          7           0        3.758206   -0.839738   -1.334841
      7          6           0        3.417144   -2.128571   -1.136208
      8          6           0        2.154432   -2.505628   -1.976649
      9          6           0        2.006558   -1.326208   -3.048926
     10          6           0        2.993859   -0.300560   -2.354534
     11          6           0        2.384569   -1.814891   -4.479336
     12          6           0        0.929664   -2.828963   -1.048638
     13          6           0       -0.290366   -3.453225   -1.731246
     14          6           0       -1.289931   -2.412214   -2.233992
     15          8           0       -1.253582   -1.805602   -3.289707
     16          8           0       -2.347041   -2.399803   -1.345923
     17          7           0        4.627284    2.152674   -1.308581
     18          6           0        3.638714    2.187453   -2.223266
     19          6           0        3.586018    3.526216   -2.795090
     20          6           0        4.404927    4.402524   -2.001993
     21          6           0        5.012619    3.469171   -1.045421
     22          6           0        2.717103    3.993727   -3.962092
     23          6           0        4.603275    5.902968   -2.198672
     24          8           0        3.928993    6.589694   -3.043986
     25          6           0        5.560558    6.732054   -1.368919
     26          7           0        6.287856    1.579009    1.131020
     27          6           0        6.614157    2.900108    0.970531
     28          6           0        7.589902    3.492334    2.067351
     29          6           0        7.851037    2.131656    2.977805
     30          6           0        7.054919    1.088154    2.163922
     31          6           0        8.907297    3.988568    1.429851
     32          6           0        7.307191    2.276222    4.456679
     33          6           0        8.377508    2.281792    5.545955
     34          7           0        5.738576   -1.286155    0.825075
     35          6           0        6.455595   -1.345585    2.032099
     36          6           0        6.380604   -2.707718    2.555249
     37          6           0        5.443231   -3.355378    1.736689
     38          6           0        5.030145   -2.438585    0.745429
     39          6           0        7.174392   -3.207940    3.691645
     40          6           0        4.706001   -4.564793    1.557934
     41          8           0        4.627438   -5.654449    2.145560
     42          6           0        3.612109   -4.252432    0.468697
     43          6           0        3.483923   -5.268593   -0.499915
     44          8           0        2.473304   -5.796279   -0.879442
     45          8           0        4.692667   -5.603597   -0.909378
     46          6           0        4.694916   -6.602752   -2.031445
     47          6           0       -3.525009   -1.572414   -1.662862
     48          6           0       -3.468301   -0.367728   -0.763672
     49          6           0       -4.321991   -0.037585    0.287370
     50          6           0       -5.351897   -1.093406    0.812256
     51          6           0       -4.479950    1.383190    0.878650
     52          6           0       -5.264616    2.269321    0.009101
     53          6           0       -6.156370    3.235127    0.850823
     54          6           0       -7.662333    3.121687    0.441492
     55          6           0       -8.338176    4.323552    0.972112
     56          6           0       -8.221098    1.835271    1.024049
     57          6           0       -8.876163    0.938589    0.029397
     58          6           0       -9.287018   -0.413155    0.687226
     59          6           0      -10.795784   -0.746350    0.651640
     60          6           0      -10.951044   -2.260694    0.625575
     61          6           0      -11.517603   -0.031014    1.854177
     62          6           0      -12.470343    0.953017    1.296345
     63          6           0      -13.976627    0.765574    1.751860
     64          6           0      -14.769390   -0.155842    0.739500
     65          6           0      -15.144493    0.614323   -0.525172
     66          6           0      -15.916276   -1.018437    1.365177
     67          1           0        2.168923    1.265051   -3.410422
     68          1           0        6.592139    4.676120   -0.147471
     69          1           0        7.947939   -0.316461    3.257305
     70          1           0        2.556153   -3.413484   -2.426047
     71          1           0        1.039502   -0.822600   -3.061196
     72          1           0        2.540345   -2.891408   -4.560954
     73          1           0        3.226063   -1.308289   -4.949738
     74          1           0        1.604735   -1.542058   -5.190402
     75          1           0        0.620420   -1.894392   -0.580468
     76          1           0        1.034400   -3.423226   -0.140911
     77          1           0       -0.855982   -4.105845   -1.066434
     78          1           0        0.031421   -4.134601   -2.518454
     79          1           0        3.259192    4.642958   -4.650548
     80          1           0        1.920030    4.624573   -3.568522
     81          1           0        2.344684    3.082312   -4.429658
     82          1           0        6.519939    6.249850   -1.554500
     83          1           0        5.335683    6.584924   -0.312958
     84          1           0        5.508844    7.750074   -1.755744
     85          1           0        7.197019    4.339013    2.630329
     86          1           0        8.871767    1.789808    2.808419
     87          1           0        8.717512    5.051345    1.278627
     88          1           0        8.924666    3.544884    0.433966
     89          1           0        9.832038    3.793295    1.971911
     90          1           0        6.527463    1.527245    4.596529
     91          1           0        6.830296    3.255948    4.462537
     92          1           0        8.444594    3.188453    6.146974
     93          1           0        9.318955    2.124384    5.018680
     94          1           0        8.249782    1.469951    6.262701
     95          1           0        7.406970   -4.266717    3.575219
     96          1           0        6.637456   -2.959623    4.607405
     97          1           0        8.087486   -2.625584    3.811278
     98          1           0        2.671781   -4.063952    0.987529
     99          1           0        3.883111   -6.358990   -2.716344
    100          1           0        4.545763   -7.589448   -1.593385
    101          1           0        5.608313   -6.524168   -2.619795
    102          1           0       -4.355464   -2.234480   -1.415973
    103          1           0       -3.697744   -1.145180   -2.650529
    104          1           0       -3.018572    0.507778   -1.231188
    105          1           0       -6.152965   -1.038342    0.076055
    106          1           0       -5.608946   -0.859389    1.845588
    107          1           0       -4.967005   -2.112681    0.787472
    108          1           0       -3.461713    1.770270    0.915147
    109          1           0       -4.904122    1.402680    1.882415
    110          1           0       -5.948028    1.600163   -0.515254
    111          1           0       -4.719936    2.827280   -0.752675
    112          1           0       -5.805667    4.249557    0.663156
    113          1           0       -5.986200    3.100623    1.919360
    114          1           0       -7.555570    3.023074   -0.638252
    115          1           0       -8.012018    4.599081    1.974432
    116          1           0       -9.418994    4.207424    0.900082
    117          1           0       -8.163174    5.225033    0.384361
    118          1           0       -9.046903    2.052328    1.701943
    119          1           0       -7.428548    1.204940    1.427072
    120          1           0       -8.094211    0.617034   -0.657975
    121          1           0       -9.676284    1.306855   -0.613499
    122          1           0       -8.947377   -0.483958    1.720452
    123          1           0       -8.782026   -1.258573    0.221198
    124          1           0      -11.213445   -0.434779   -0.305569
    125          1           0      -10.100444   -2.867749    0.935527
    126          1           0      -11.248911   -2.501857   -0.394343
    127          1           0      -11.750656   -2.602971    1.282479
    128          1           0      -10.874376    0.603059    2.465333
    129          1           0      -11.929594   -0.744152    2.567837
    130          1           0      -12.480228    0.976513    0.206382
    131          1           0      -12.164693    1.942507    1.635090
    132          1           0      -14.414237    1.741368    1.960099
    133          1           0      -14.016287    0.223820    2.696429
    134          1           0      -14.085364   -0.858269    0.262957
    135          1           0      -14.398340    0.565249   -1.319438
    136          1           0      -15.145012    1.657327   -0.211147
    137          1           0      -16.140277    0.419303   -0.923757
    138          1           0      -16.716705   -0.989967    0.626655
    139          1           0      -16.258534   -0.594843    2.309355
    140          1           0      -15.483812   -2.016666    1.447122
 ---------------------------------------------------------------------

 SCF Done:  E(RB-LYP) =  -3007.34782768     A.U. after   22 cycles

 Excitation energies and oscillator strengths:

 Excited State   1:      Singlet-A      1.6771 eV  739.28 nm  f=0.0001  <S**2>=0.000
     244 -> 247        0.70651
 This state for optimization and/or second-order correction.
 Total Energy, E(TD-HF/TD-DFT) =  -3007.28619526
 Copying the excited state density for this state as the 1-particle RhoCI density.

 Excited State   2:      Singlet-A      1.7866 eV  693.95 nm  f=0.1181  <S**2>=0.000
     243 -> 247        0.56922
     246 -> 247       -0.40505

 Excited State   3:      Singlet-A      1.8117 eV  684.34 nm  f=0.2109  <S**2>=0.000
     243 -> 247        0.40682
     245 -> 248        0.14628
     246 -> 247        0.56250
     246 <- 247       -0.12895

 Excited State   4:      Singlet-A      1.9787 eV  626.58 nm  f=0.0847  <S**2>=0.000
     245 -> 247        0.65157
     246 -> 248       -0.20684
     246 -> 249       -0.10656

 Excited State   5:      Singlet-A      2.2018 eV  563.11 nm  f=0.0005  <S**2>=0.000
     242 -> 247        0.70543

 The electronic state is 1-A.
 Alpha  occ. eigenvalues --  -46.28148 -18.81981 -18.81777 -18.76765 -18.75756
 Alpha  occ. eigenvalues --  -18.75387 -18.75071 -14.03671 -14.03642 -14.01443
 Alpha  occ. eigenvalues --  -14.01285 -10.03695 -10.02644 -10.00054  -9.99429
 Alpha  occ. eigenvalues --   -9.97918  -9.97872  -9.97240  -9.96968  -9.96730
 Alpha  occ. eigenvalues --   -9.96443  -9.96331  -9.96041  -9.95562  -9.95044
 Alpha  occ. eigenvalues --   -9.94731  -9.94691  -9.94456  -9.94390  -9.94099
 Alpha  occ. eigenvalues --   -9.94034  -9.93893  -9.93701  -9.93345  -9.93271
 Alpha  occ. eigenvalues --   -9.93180  -9.92977  -9.92795  -9.92767  -9.92682
 Alpha  occ. eigenvalues --   -9.92654  -9.92562  -9.92561  -9.92459  -9.92316
 Alpha  occ. eigenvalues --   -9.92057  -9.92028  -9.91969  -9.91692  -9.91628
 Alpha  occ. eigenvalues --   -9.91579  -9.91551  -9.91461  -9.91401  -9.91391
 Alpha  occ. eigenvalues --   -9.91145  -9.91028  -9.90951  -9.90935  -9.90929
 Alpha  occ. eigenvalues --   -9.90768  -9.90676  -9.90671  -9.90602  -9.90487
 Alpha  occ. eigenvalues --   -9.90296  -2.92666  -1.73079  -1.72548  -1.72383
 Alpha  occ. eigenvalues --   -0.99258  -0.97108  -0.90225  -0.89915  -0.89787
 Alpha  occ. eigenvalues --   -0.88334  -0.86395  -0.85600  -0.85461  -0.84709
 Alpha  occ. eigenvalues --   -0.75941  -0.74543  -0.73139  -0.72357  -0.72302
 Alpha  occ. eigenvalues --   -0.71857  -0.71562  -0.71039  -0.70669  -0.70451
 Alpha  occ. eigenvalues --   -0.69227  -0.69050  -0.68358  -0.68098  -0.67486
 Alpha  occ. eigenvalues --   -0.66952  -0.66391  -0.65488  -0.65034  -0.64803
 Alpha  occ. eigenvalues --   -0.64398  -0.62549  -0.62144  -0.61598  -0.60871
 Alpha  occ. eigenvalues --   -0.60333  -0.60104  -0.59584  -0.59460  -0.58974
 Alpha  occ. eigenvalues --   -0.58016  -0.57480  -0.56658  -0.55364  -0.54824
 Alpha  occ. eigenvalues --   -0.54014  -0.53424  -0.52795  -0.52174  -0.51963
 Alpha  occ. eigenvalues --   -0.51496  -0.51121  -0.50849  -0.50472  -0.50312
 Alpha  occ. eigenvalues --   -0.49881  -0.49377  -0.49072  -0.48406  -0.46279
 Alpha  occ. eigenvalues --   -0.45772  -0.45442  -0.45239  -0.44841  -0.44235
 Alpha  occ. eigenvalues --   -0.44089  -0.43732  -0.43232  -0.42671  -0.42484
 Alpha  occ. eigenvalues --   -0.42251  -0.41806  -0.41662  -0.41542  -0.40868
 Alpha  occ. eigenvalues --   -0.40615  -0.40518  -0.40351  -0.40065  -0.40018
 Alpha  occ. eigenvalues --   -0.39653  -0.39563  -0.39485  -0.39257  -0.38895
 Alpha  occ. eigenvalues --   -0.38778  -0.38648  -0.38556  -0.38532  -0.38242
 Alpha  occ. eigenvalues --   -0.38149  -0.37786  -0.37669  -0.37596  -0.37384
 Alpha  occ. eigenvalues --   -0.36955  -0.36793  -0.36737  -0.36540  -0.36382
 Alpha  occ. eigenvalues --   -0.36230  -0.36028  -0.35918  -0.35854  -0.35467
 Alpha  occ. eigenvalues --   -0.35191  -0.34989  -0.34838  -0.34534  -0.34440
 Alpha  occ. eigenvalues --   -0.34392  -0.34286  -0.34212  -0.33935  -0.33822
 Alpha  occ. eigenvalues --   -0.33732  -0.33509  -0.33476  -0.33238  -0.33182
 Alpha  occ. eigenvalues --   -0.33138  -0.32840  -0.32608  -0.32471  -0.32297
 Alpha  occ. eigenvalues --   -0.32233  -0.31969  -0.31890  -0.31624  -0.31378
 Alpha  occ. eigenvalues --   -0.31304  -0.31192  -0.31085  -0.30534  -0.30443
 Alpha  occ. eigenvalues --   -0.30408  -0.30354  -0.30097  -0.29907  -0.29828
 Alpha  occ. eigenvalues --   -0.29692  -0.29654  -0.29505  -0.29261  -0.29002
 Alpha  occ. eigenvalues --   -0.28791  -0.28461  -0.28090  -0.27987  -0.27780
 Alpha  occ. eigenvalues --   -0.27351  -0.27255  -0.26930  -0.26771  -0.26719
 Alpha  occ. eigenvalues --   -0.26378  -0.25961  -0.25868  -0.25602  -0.25286
 Alpha  occ. eigenvalues --   -0.25003  -0.24532  -0.24510  -0.24177  -0.23715
 Alpha  occ. eigenvalues --   -0.23209  -0.22292  -0.21683  -0.21388  -0.20816
 Alpha  occ. eigenvalues --   -0.20222  -0.20025  -0.18418  -0.18042  -0.17433
 Alpha  occ. eigenvalues --   -0.16112
 Alpha virt. eigenvalues --   -0.11938  -0.07096  -0.06221  -0.05017  -0.03570
 Alpha virt. eigenvalues --   -0.03417  -0.02604  -0.01882  -0.01494  -0.00082
 Alpha virt. eigenvalues --    0.01200   0.01897   0.02007   0.02379   0.02562

 Mulliken charges:
               1
     1  Mg   0.702217
     2  C   -0.045998
     3  C   -0.056207
     4  C   -0.062710
     5  C   -0.075255
     6  N   -0.209255
     7  C   -0.103949
     8  C    0.067525
     9  C    0.009951
    10  C    0.030956
    11  C    0.122487
    12  C    0.112180
    13  C    0.156644
    14  C    0.075939
    15  O   -0.195540
    16  O   -0.275605
    17  N   -0.279941
    18  C    0.132710
    19  C   -0.175392
    20  C    0.071742
    21  C    0.098842
    22  C    0.196327
    23  C   -0.085337
    24  O   -0.223887
    25  C    0.149745
    26  N   -0.230772
    27  C    0.027678
    28  C   -0.039455
    29  C    0.035369
    30  C   -0.056586
    31  C    0.107441
    32  C    0.118289
    33  C    0.068578
    34  N   -0.273126
    35  C    0.174579
    36  C   -0.185730
    37  C    0.101547
    38  C    0.085898
    39  C    0.196616
    40  C   -0.045122
    41  O   -0.148024
    42  C    0.108529
    43  C    0.055332
    44  O   -0.166938
    45  O   -0.258837
    46  C    0.219756
    47  C    0.331832
    48  C   -0.082801
    49  C   -0.220647
    50  C    0.108478
    51  C    0.174441
    52  C    0.077943
    53  C    0.038275
    54  C   -0.023136
    55  C    0.142811
    56  C    0.110541
    57  C    0.074291
    58  C    0.074611
    59  C   -0.086530
    60  C    0.111093
    61  C    0.152029
    62  C    0.052570
    63  C    0.100587
    64  C   -0.131936
    65  C    0.097225
    66  C    0.128652
    67  H   -0.056355
    68  H   -0.074080
    69  H   -0.066276
    70  H   -0.021730
    71  H    0.006053
    72  H   -0.004028
    73  H   -0.018605
    74  H   -0.004591
    75  H   -0.028460
    76  H   -0.014674
    77  H   -0.014363
    78  H   -0.005066
    79  H    0.006567
    80  H    0.007912
    81  H   -0.020462
    82  H    0.012722
    83  H    0.013043
    84  H    0.003662
    85  H   -0.004343
    86  H   -0.019662
    87  H   -0.002559
    88  H   -0.008210
    89  H    0.006866
    90  H   -0.006693
    91  H   -0.023146
    92  H   -0.003079
    93  H   -0.014030
    94  H   -0.005622
    95  H    0.020398
    96  H    0.000732
    97  H   -0.021123
    98  H    0.008267
    99  H    0.014859
   100  H    0.028656
   101  H    0.015215
   102  H   -0.022092
   103  H    0.008206
   104  H   -0.033276
   105  H    0.022987
   106  H    0.003133
   107  H    0.007550
   108  H   -0.023234
   109  H   -0.028329
   110  H   -0.029364
   111  H   -0.017763
   112  H   -0.045225
   113  H   -0.032698
   114  H   -0.039440
   115  H   -0.014546
   116  H   -0.024773
   117  H   -0.030173
   118  H   -0.028078
   119  H   -0.030198
   120  H   -0.049846
   121  H   -0.030533
   122  H   -0.038311
   123  H   -0.045960
   124  H   -0.033980
   125  H   -0.016027
   126  H   -0.020146
   127  H   -0.030548
   128  H   -0.033187
   129  H   -0.035051
   130  H   -0.029247
   131  H   -0.043353
   132  H   -0.030065
   133  H   -0.044268
   134  H   -0.034047
   135  H   -0.010514
   136  H   -0.033569
   137  H   -0.020112
   138  H   -0.024424
   139  H   -0.006891
   140  H   -0.003940
 Sum of Mulliken charges =  -0.00000

 Dipole moment (field-independent basis, Debye):
    X=              2.0734    Y=              1.4223    Z=              1.8021  Tot=              3.0934
 Quadrupole moment (field-independent basis, Debye-Ang):
   XX=           -347.4806   YY=           -446.4323   ZZ=           -403.2708
   XY=              9.1596   XZ=              7.8683   YZ=             37.4060

 Normal termination of Gaussian 16 at Wed May  4 01:29:11 2022.
