 Gaussian 16, Revision A.03,
 Gaussian 16:  ES64L-G16RevA.03 25-Dec-2016

 -----------------------------------
 #p cam-b3lyp/Def2SVP td=(nstates=5)
 -----------------------------------

 -------------------------------------------------------
 step_1151_chromophore_5 TDDFT with cam-b3lyp functional
 -------------------------------------------------------
 Symbolic Z-matrix:
 Charge =  0 Multiplicity = 1

                         Standard orientation:
 ---------------------------------------------------------------------
 Center     Atomic      Atomic             Coordinates (Angstroms)
 Number     Number       Type             X           Y           Z
 ---------------------------------------------------------------------
      1         12           0        5.362020    0.395198   -0.370000
      2          6           0        3.995759   -2.874284   -0.076860
      3          6           0        2.935000    1.027114   -2.669524
      4          6           0        6.044166    3.740247   -0.023132
      5          6           0        7.144325   -0.231913    2.523386
      6          7           0        3.758206   -0.839738   -1.334841
      7          6           0        3.417144   -2.128571   -1.136208
      8          6           0        2.154432   -2.505628   -1.976649
      9          6           0        2.006558   -1.326208   -3.048926
     10          6           0        2.993859   -0.300560   -2.354534
     11          6           0        2.384569   -1.814891   -4.479336
     12          6           0        0.929664   -2.828963   -1.048638
     13          6           0       -0.290366   -3.453225   -1.731246
     14          6           0       -1.289931   -2.412214   -2.233992
     15          8           0       -1.253582   -1.805602   -3.289707
     16          8           0       -2.347041   -2.399803   -1.345923
     17          7           0        4.627284    2.152674   -1.308581
     18          6           0        3.638714    2.187453   -2.223266
     19          6           0        3.586018    3.526216   -2.795090
     20          6           0        4.404927    4.402524   -2.001993
     21          6           0        5.012619    3.469171   -1.045421
     22          6           0        2.717103    3.993727   -3.962092
     23          6           0        4.603275    5.902968   -2.198672
     24          8           0        3.928993    6.589694   -3.043986
     25          6           0        5.560558    6.732054   -1.368919
     26          7           0        6.287856    1.579009    1.131020
     27          6           0        6.614157    2.900108    0.970531
     28          6           0        7.589902    3.492334    2.067351
     29          6           0        7.851037    2.131656    2.977805
     30          6           0        7.054919    1.088154    2.163922
     31          6           0        8.907297    3.988568    1.429851
     32          6           0        7.307191    2.276222    4.456679
     33          6           0        8.377508    2.281792    5.545955
     34          7           0        5.738576   -1.286155    0.825075
     35          6           0        6.455595   -1.345585    2.032099
     36          6           0        6.380604   -2.707718    2.555249
     37          6           0        5.443231   -3.355378    1.736689
     38          6           0        5.030145   -2.438585    0.745429
     39          6           0        7.174392   -3.207940    3.691645
     40          6           0        4.706001   -4.564793    1.557934
     41          8           0        4.627438   -5.654449    2.145560
     42          6           0        3.612109   -4.252432    0.468697
     43          6           0        3.483923   -5.268593   -0.499915
     44          8           0        2.473304   -5.796279   -0.879442
     45          8           0        4.692667   -5.603597   -0.909378
     46          6           0        4.694916   -6.602752   -2.031445
     47          6           0       -3.525009   -1.572414   -1.662862
     48          6           0       -3.468301   -0.367728   -0.763672
     49          6           0       -4.321991   -0.037585    0.287370
     50          6           0       -5.351897   -1.093406    0.812256
     51          6           0       -4.479950    1.383190    0.878650
     52          6           0       -5.264616    2.269321    0.009101
     53          6           0       -6.156370    3.235127    0.850823
     54          6           0       -7.662333    3.121687    0.441492
     55          6           0       -8.338176    4.323552    0.972112
     56          6           0       -8.221098    1.835271    1.024049
     57          6           0       -8.876163    0.938589    0.029397
     58          6           0       -9.287018   -0.413155    0.687226
     59          6           0      -10.795784   -0.746350    0.651640
     60          6           0      -10.951044   -2.260694    0.625575
     61          6           0      -11.517603   -0.031014    1.854177
     62          6           0      -12.470343    0.953017    1.296345
     63          6           0      -13.976627    0.765574    1.751860
     64          6           0      -14.769390   -0.155842    0.739500
     65          6           0      -15.144493    0.614323   -0.525172
     66          6           0      -15.916276   -1.018437    1.365177
     67          1           0        2.168923    1.265051   -3.410422
     68          1           0        6.592139    4.676120   -0.147471
     69          1           0        7.947939   -0.316461    3.257305
     70          1           0        2.556153   -3.413484   -2.426047
     71          1           0        1.039502   -0.822600   -3.061196
     72          1           0        2.540345   -2.891408   -4.560954
     73          1           0        3.226063   -1.308289   -4.949738
     74          1           0        1.604735   -1.542058   -5.190402
     75          1           0        0.620420   -1.894392   -0.580468
     76          1           0        1.034400   -3.423226   -0.140911
     77          1           0       -0.855982   -4.105845   -1.066434
     78          1           0        0.031421   -4.134601   -2.518454
     79          1           0        3.259192    4.642958   -4.650548
     80          1           0        1.920030    4.624573   -3.568522
     81          1           0        2.344684    3.082312   -4.429658
     82          1           0        6.519939    6.249850   -1.554500
     83          1           0        5.335683    6.584924   -0.312958
     84          1           0        5.508844    7.750074   -1.755744
     85          1           0        7.197019    4.339013    2.630329
     86          1           0        8.871767    1.789808    2.808419
     87          1           0        8.717512    5.051345    1.278627
     88          1           0        8.924666    3.544884    0.433966
     89          1           0        9.832038    3.793295    1.971911
     90          1           0        6.527463    1.527245    4.596529
     91          1           0        6.830296    3.255948    4.462537
     92          1           0        8.444594    3.188453    6.146974
     93          1           0        9.318955    2.124384    5.018680
     94          1           0        8.249782    1.469951    6.262701
     95          1           0        7.406970   -4.266717    3.575219
     96          1           0        6.637456   -2.959623    4.607405
     97          1           0        8.087486   -2.625584    3.811278
     98          1           0        2.671781   -4.063952    0.987529
     99          1           0        3.883111   -6.358990   -2.716344
    100          1           0        4.545763   -7.589448   -1.593385
    101          1           0        5.608313   -6.524168   -2.619795
    102          1           0       -4.355464   -2.234480   -1.415973
    103          1           0       -3.697744   -1.145180   -2.650529
    104          1           0       -3.018572    0.507778   -1.231188
    105          1           0       -6.152965   -1.038342    0.076055
    106          1           0       -5.608946   -0.859389    1.845588
    107          1           0       -4.967005   -2.112681    0.787472
    108          1           0       -3.461713    1.770270    0.915147
    109          1           0       -4.904122    1.402680    1.882415
    110          1           0       -5.948028    1.600163   -0.515254
    111          1           0       -4.719936    2.827280   -0.752675
    112          1           0       -5.805667    4.249557    0.663156
    113          1           0       -5.986200    3.100623    1.919360
    114          1           0       -7.555570    3.023074   -0.638252
    115          1           0       -8.012018    4.599081    1.974432
    116          1           0       -9.418994    4.207424    0.900082
    117          1           0       -8.163174    5.225033    0.384361
    118          1           0       -9.046903    2.052328    1.701943
    119          1           0       -7.428548    1.204940    1.427072
    120          1           0       -8.094211    0.617034   -0.657975
    121          1           0       -9.676284    1.306855   -0.613499
    122          1           0       -8.947377   -0.483958    1.720452
    123          1           0       -8.782026   -1.258573    0.221198
    124          1           0      -11.213445   -0.434779   -0.305569
    125          1           0      -10.100444   -2.867749    0.935527
    126          1           0      -11.248911   -2.501857   -0.394343
    127          1           0      -11.750656   -2.602971    1.282479
    128          1           0      -10.874376    0.603059    2.465333
    129          1           0      -11.929594   -0.744152    2.567837
    130          1           0      -12.480228    0.976513    0.206382
    131          1           0      -12.164693    1.942507    1.635090
    132          1           0      -14.414237    1.741368    1.960099
    133          1           0      -14.016287    0.223820    2.696429
    134          1           0      -14.085364   -0.858269    0.262957
    135          1           0      -14.398340    0.565249   -1.319438
    136          1           0      -15.145012    1.657327   -0.211147
    137          1           0      -16.140277    0.419303   -0.923757
    138          1           0      -16.716705   -0.989967    0.626655
    139          1           0      -16.258534   -0.594843    2.309355
    140          1           0      -15.483812   -2.016666    1.447122
 ---------------------------------------------------------------------

 SCF Done:  E(RCAM-B3LYP) =  -3007.13774483     A.U. after   17 cycles

 Excitation energies and oscillator strengths:

 Excited State   1:      Singlet-A      1.6775 eV  739.09 nm  f=0.3937  <S**2>=0.000
     245 -> 248        0.17546
     246 -> 247        0.68673
     245 <- 248        0.10699
 This state for optimization and/or second-order correction.
 Total Energy, E(TD-HF/TD-DFT) =  -3007.07609727
 Copying the excited state density for this state as the 1-particle RhoCI density.

 Excited State   2:      Singlet-A      2.1812 eV  568.43 nm  f=0.1359  <S**2>=0.000
     245 -> 247        0.65149
     246 -> 248       -0.25910

 Excited State   3:      Singlet-A      3.2640 eV  379.86 nm  f=0.0038  <S**2>=0.000
     240 -> 247       -0.13351
     244 -> 247        0.66765

 Excited State   4:      Singlet-A      3.3223 eV  373.18 nm  f=0.0020  <S**2>=0.000
     239 -> 247        0.14238
     240 -> 247        0.49755
     240 -> 249        0.26297
     240 -> 251        0.16716
     242 -> 247        0.28055

 Excited State   5:      Singlet-A      3.4181 eV  362.73 nm  f=0.0292  <S**2>=0.000
     240 -> 247       -0.24419
     242 -> 247        0.56063
     246 -> 248       -0.28976

 The electronic state is 1-A.
 Alpha  occ. eigenvalues --  -46.89737 -19.25054 -19.24587 -19.19729 -19.18980
 Alpha  occ. eigenvalues --  -19.18803 -19.18110 -14.42667 -14.42479 -14.39844
 Alpha  occ. eigenvalues --  -14.39819 -10.38994 -10.38021 -10.35209 -10.35015
 Alpha  occ. eigenvalues --  -10.32090 -10.31950 -10.31705 -10.31651 -10.31120
 Alpha  occ. eigenvalues --  -10.31007 -10.30635 -10.30593 -10.29577 -10.29214
 Alpha  occ. eigenvalues --  -10.29120 -10.28849 -10.28785 -10.28612 -10.28437
 Alpha  occ. eigenvalues --  -10.28360 -10.28298 -10.28076 -10.27324 -10.27207
 Alpha  occ. eigenvalues --  -10.27133 -10.27115 -10.27106 -10.26771 -10.26603
 Alpha  occ. eigenvalues --  -10.26532 -10.26503 -10.26495 -10.26141 -10.26014
 Alpha  occ. eigenvalues --  -10.25961 -10.25820 -10.25686 -10.25621 -10.25504
 Alpha  occ. eigenvalues --  -10.25416 -10.25285 -10.25176 -10.25035 -10.24982
 Alpha  occ. eigenvalues --  -10.24858 -10.24681 -10.24561 -10.24542 -10.24521
 Alpha  occ. eigenvalues --  -10.24340 -10.24321 -10.24293 -10.24211 -10.24053
 Alpha  occ. eigenvalues --  -10.23883  -3.18151  -1.93042  -1.92601  -1.92453
 Alpha  occ. eigenvalues --   -1.18021  -1.15524  -1.08764  -1.08049  -1.07623
 Alpha  occ. eigenvalues --   -1.06446  -1.04209  -1.03259  -1.03029  -1.02159
 Alpha  occ. eigenvalues --   -0.93250  -0.91432  -0.89931  -0.89081  -0.89000
 Alpha  occ. eigenvalues --   -0.88571  -0.88197  -0.87736  -0.87237  -0.87047
 Alpha  occ. eigenvalues --   -0.85577  -0.85427  -0.84671  -0.84343  -0.83656
 Alpha  occ. eigenvalues --   -0.83057  -0.82528  -0.81438  -0.81079  -0.80622
 Alpha  occ. eigenvalues --   -0.80155  -0.78233  -0.77723  -0.77136  -0.76364
 Alpha  occ. eigenvalues --   -0.75657  -0.75471  -0.74851  -0.74732  -0.74217
 Alpha  occ. eigenvalues --   -0.73033  -0.72485  -0.71532  -0.70152  -0.69485
 Alpha  occ. eigenvalues --   -0.68664  -0.67931  -0.67236  -0.66507  -0.66120
 Alpha  occ. eigenvalues --   -0.65702  -0.65357  -0.64871  -0.64528  -0.64301
 Alpha  occ. eigenvalues --   -0.63762  -0.63215  -0.62896  -0.62271  -0.59975
 Alpha  occ. eigenvalues --   -0.59411  -0.58805  -0.58723  -0.58386  -0.57791
 Alpha  occ. eigenvalues --   -0.57562  -0.57111  -0.56178  -0.55915  -0.55844
 Alpha  occ. eigenvalues --   -0.55557  -0.54950  -0.54595  -0.54361  -0.53638
 Alpha  occ. eigenvalues --   -0.53574  -0.53437  -0.52995  -0.52849  -0.52598
 Alpha  occ. eigenvalues --   -0.52392  -0.52240  -0.52079  -0.52032  -0.51774
 Alpha  occ. eigenvalues --   -0.51377  -0.51324  -0.51093  -0.50910  -0.50510
 Alpha  occ. eigenvalues --   -0.50485  -0.50024  -0.49940  -0.49828  -0.49580
 Alpha  occ. eigenvalues --   -0.49281  -0.49060  -0.48933  -0.48780  -0.48674
 Alpha  occ. eigenvalues --   -0.48616  -0.48205  -0.48165  -0.47821  -0.47498
 Alpha  occ. eigenvalues --   -0.47304  -0.47201  -0.46897  -0.46737  -0.46472
 Alpha  occ. eigenvalues --   -0.46204  -0.46101  -0.45979  -0.45867  -0.45644
 Alpha  occ. eigenvalues --   -0.45548  -0.45486  -0.45354  -0.45248  -0.44945
 Alpha  occ. eigenvalues --   -0.44790  -0.44600  -0.44349  -0.44161  -0.43899
 Alpha  occ. eigenvalues --   -0.43706  -0.43475  -0.43430  -0.43260  -0.43115
 Alpha  occ. eigenvalues --   -0.42814  -0.42614  -0.42461  -0.42382  -0.41904
 Alpha  occ. eigenvalues --   -0.41818  -0.41643  -0.41600  -0.41430  -0.41033
 Alpha  occ. eigenvalues --   -0.40919  -0.40835  -0.40690  -0.40453  -0.40116
 Alpha  occ. eigenvalues --   -0.40040  -0.39733  -0.39244  -0.38857  -0.38606
 Alpha  occ. eigenvalues --   -0.38401  -0.38117  -0.38036  -0.37778  -0.37562
 Alpha  occ. eigenvalues --   -0.37295  -0.36903  -0.36656  -0.36391  -0.36356
 Alpha  occ. eigenvalues --   -0.35578  -0.35522  -0.35087  -0.34944  -0.34355
 Alpha  occ. eigenvalues --   -0.33568  -0.33501  -0.33125  -0.31322  -0.30738
 Alpha  occ. eigenvalues --   -0.30415  -0.30283  -0.29617  -0.29353  -0.24203
 Alpha  occ. eigenvalues --   -0.21456
 Alpha virt. eigenvalues --   -0.09190  -0.01743   0.00141   0.01429   0.01898
 Alpha virt. eigenvalues --    0.04018   0.04830   0.05525   0.06215   0.07056
 Alpha virt. eigenvalues --    0.08040   0.08210   0.08604   0.08630   0.08733

 Mulliken charges:
               1
     1  Mg   0.830370
     2  C   -0.072047
     3  C   -0.066525
     4  C   -0.078013
     5  C   -0.089235
     6  N   -0.275198
     7  C   -0.051973
     8  C    0.019461
     9  C   -0.040308
    10  C    0.044312
    11  C    0.066302
    12  C    0.050996
    13  C    0.085969
    14  C    0.158652
    15  O   -0.237741
    16  O   -0.341201
    17  N   -0.362701
    18  C    0.132560
    19  C   -0.174918
    20  C   -0.007546
    21  C    0.126158
    22  C    0.143059
    23  C   -0.006023
    24  O   -0.265234
    25  C    0.068468
    26  N   -0.302947
    27  C    0.041799
    28  C   -0.081616
    29  C   -0.024140
    30  C   -0.028218
    31  C    0.049031
    32  C    0.060968
    33  C    0.006434
    34  N   -0.359811
    35  C    0.177096
    36  C   -0.172919
    37  C    0.014941
    38  C    0.123662
    39  C    0.142351
    40  C    0.067072
    41  O   -0.184737
    42  C    0.018880
    43  C    0.144557
    44  O   -0.206531
    45  O   -0.320863
    46  C    0.180834
    47  C    0.288430
    48  C   -0.098772
    49  C   -0.232092
    50  C    0.047208
    51  C    0.108526
    52  C    0.027131
    53  C   -0.011725
    54  C   -0.085030
    55  C    0.079520
    56  C    0.062211
    57  C    0.021750
    58  C    0.025484
    59  C   -0.141699
    60  C    0.052416
    61  C    0.096717
    62  C   -0.001014
    63  C    0.046353
    64  C   -0.187909
    65  C    0.037883
    66  C    0.070565
    67  H   -0.021762
    68  H   -0.043397
    69  H   -0.031816
    70  H    0.008915
    71  H    0.040738
    72  H    0.018800
    73  H    0.007946
    74  H    0.020951
    75  H    0.004062
    76  H    0.016283
    77  H    0.024195
    78  H    0.027273
    79  H    0.034666
    80  H    0.035028
    81  H    0.002021
    82  H    0.036310
    83  H    0.040075
    84  H    0.039223
    85  H    0.027936
    86  H    0.013908
    87  H    0.019668
    88  H    0.017683
    89  H    0.031036
    90  H    0.024343
    91  H    0.006320
    92  H    0.021180
    93  H    0.008044
    94  H    0.017916
    95  H    0.047178
    96  H    0.029408
    97  H    0.005141
    98  H    0.050600
    99  H    0.038558
   100  H    0.052515
   101  H    0.039742
   102  H    0.008773
   103  H    0.040866
   104  H   -0.003590
   105  H    0.040156
   106  H    0.026167
   107  H    0.033359
   108  H    0.009417
   109  H    0.002338
   110  H   -0.005194
   111  H    0.011210
   112  H   -0.013476
   113  H   -0.004753
   114  H   -0.005284
   115  H    0.010013
   116  H   -0.000448
   117  H   -0.002945
   118  H   -0.002951
   119  H   -0.006928
   120  H   -0.022526
   121  H   -0.002812
   122  H   -0.009655
   123  H   -0.016653
   124  H   -0.003803
   125  H    0.008632
   126  H    0.004204
   127  H   -0.006498
   128  H   -0.004970
   129  H   -0.005512
   130  H   -0.004752
   131  H   -0.013596
   132  H   -0.001035
   133  H   -0.015568
   134  H   -0.004686
   135  H    0.011931
   136  H   -0.009094
   137  H    0.005478
   138  H   -0.000552
   139  H    0.015983
   140  H    0.018627
 Sum of Mulliken charges =  -0.00000

 Dipole moment (field-independent basis, Debye):
    X=              2.3429    Y=              1.2403    Z=              1.9378  Tot=              3.2837
 Quadrupole moment (field-independent basis, Debye-Ang):
   XX=           -343.5950   YY=           -444.0608   ZZ=           -402.1147
   XY=              9.2087   XZ=              9.4204   YZ=             38.9613

 Normal termination of Gaussian 16 at Wed May  4 00:28:59 2022.
