 Gaussian 16, Revision A.03,
 Gaussian 16:  ES64L-G16RevA.03 25-Dec-2016

 ---------------------------------
 #p PBE1PBE/Def2SVP td=(nstates=5)
 ---------------------------------

 -----------------------------------------------------
 step_1151_chromophore_5 TDDFT with PBE1PBE functional
 -----------------------------------------------------
 Symbolic Z-matrix:
 Charge =  0 Multiplicity = 1

                         Standard orientation:
 ---------------------------------------------------------------------
 Center     Atomic      Atomic             Coordinates (Angstroms)
 Number     Number       Type             X           Y           Z
 ---------------------------------------------------------------------
      1         12           0        5.362020    0.395198   -0.370000
      2          6           0        3.995759   -2.874284   -0.076860
      3          6           0        2.935000    1.027114   -2.669524
      4          6           0        6.044166    3.740247   -0.023132
      5          6           0        7.144325   -0.231913    2.523386
      6          7           0        3.758206   -0.839738   -1.334841
      7          6           0        3.417144   -2.128571   -1.136208
      8          6           0        2.154432   -2.505628   -1.976649
      9          6           0        2.006558   -1.326208   -3.048926
     10          6           0        2.993859   -0.300560   -2.354534
     11          6           0        2.384569   -1.814891   -4.479336
     12          6           0        0.929664   -2.828963   -1.048638
     13          6           0       -0.290366   -3.453225   -1.731246
     14          6           0       -1.289931   -2.412214   -2.233992
     15          8           0       -1.253582   -1.805602   -3.289707
     16          8           0       -2.347041   -2.399803   -1.345923
     17          7           0        4.627284    2.152674   -1.308581
     18          6           0        3.638714    2.187453   -2.223266
     19          6           0        3.586018    3.526216   -2.795090
     20          6           0        4.404927    4.402524   -2.001993
     21          6           0        5.012619    3.469171   -1.045421
     22          6           0        2.717103    3.993727   -3.962092
     23          6           0        4.603275    5.902968   -2.198672
     24          8           0        3.928993    6.589694   -3.043986
     25          6           0        5.560558    6.732054   -1.368919
     26          7           0        6.287856    1.579009    1.131020
     27          6           0        6.614157    2.900108    0.970531
     28          6           0        7.589902    3.492334    2.067351
     29          6           0        7.851037    2.131656    2.977805
     30          6           0        7.054919    1.088154    2.163922
     31          6           0        8.907297    3.988568    1.429851
     32          6           0        7.307191    2.276222    4.456679
     33          6           0        8.377508    2.281792    5.545955
     34          7           0        5.738576   -1.286155    0.825075
     35          6           0        6.455595   -1.345585    2.032099
     36          6           0        6.380604   -2.707718    2.555249
     37          6           0        5.443231   -3.355378    1.736689
     38          6           0        5.030145   -2.438585    0.745429
     39          6           0        7.174392   -3.207940    3.691645
     40          6           0        4.706001   -4.564793    1.557934
     41          8           0        4.627438   -5.654449    2.145560
     42          6           0        3.612109   -4.252432    0.468697
     43          6           0        3.483923   -5.268593   -0.499915
     44          8           0        2.473304   -5.796279   -0.879442
     45          8           0        4.692667   -5.603597   -0.909378
     46          6           0        4.694916   -6.602752   -2.031445
     47          6           0       -3.525009   -1.572414   -1.662862
     48          6           0       -3.468301   -0.367728   -0.763672
     49          6           0       -4.321991   -0.037585    0.287370
     50          6           0       -5.351897   -1.093406    0.812256
     51          6           0       -4.479950    1.383190    0.878650
     52          6           0       -5.264616    2.269321    0.009101
     53          6           0       -6.156370    3.235127    0.850823
     54          6           0       -7.662333    3.121687    0.441492
     55          6           0       -8.338176    4.323552    0.972112
     56          6           0       -8.221098    1.835271    1.024049
     57          6           0       -8.876163    0.938589    0.029397
     58          6           0       -9.287018   -0.413155    0.687226
     59          6           0      -10.795784   -0.746350    0.651640
     60          6           0      -10.951044   -2.260694    0.625575
     61          6           0      -11.517603   -0.031014    1.854177
     62          6           0      -12.470343    0.953017    1.296345
     63          6           0      -13.976627    0.765574    1.751860
     64          6           0      -14.769390   -0.155842    0.739500
     65          6           0      -15.144493    0.614323   -0.525172
     66          6           0      -15.916276   -1.018437    1.365177
     67          1           0        2.168923    1.265051   -3.410422
     68          1           0        6.592139    4.676120   -0.147471
     69          1           0        7.947939   -0.316461    3.257305
     70          1           0        2.556153   -3.413484   -2.426047
     71          1           0        1.039502   -0.822600   -3.061196
     72          1           0        2.540345   -2.891408   -4.560954
     73          1           0        3.226063   -1.308289   -4.949738
     74          1           0        1.604735   -1.542058   -5.190402
     75          1           0        0.620420   -1.894392   -0.580468
     76          1           0        1.034400   -3.423226   -0.140911
     77          1           0       -0.855982   -4.105845   -1.066434
     78          1           0        0.031421   -4.134601   -2.518454
     79          1           0        3.259192    4.642958   -4.650548
     80          1           0        1.920030    4.624573   -3.568522
     81          1           0        2.344684    3.082312   -4.429658
     82          1           0        6.519939    6.249850   -1.554500
     83          1           0        5.335683    6.584924   -0.312958
     84          1           0        5.508844    7.750074   -1.755744
     85          1           0        7.197019    4.339013    2.630329
     86          1           0        8.871767    1.789808    2.808419
     87          1           0        8.717512    5.051345    1.278627
     88          1           0        8.924666    3.544884    0.433966
     89          1           0        9.832038    3.793295    1.971911
     90          1           0        6.527463    1.527245    4.596529
     91          1           0        6.830296    3.255948    4.462537
     92          1           0        8.444594    3.188453    6.146974
     93          1           0        9.318955    2.124384    5.018680
     94          1           0        8.249782    1.469951    6.262701
     95          1           0        7.406970   -4.266717    3.575219
     96          1           0        6.637456   -2.959623    4.607405
     97          1           0        8.087486   -2.625584    3.811278
     98          1           0        2.671781   -4.063952    0.987529
     99          1           0        3.883111   -6.358990   -2.716344
    100          1           0        4.545763   -7.589448   -1.593385
    101          1           0        5.608313   -6.524168   -2.619795
    102          1           0       -4.355464   -2.234480   -1.415973
    103          1           0       -3.697744   -1.145180   -2.650529
    104          1           0       -3.018572    0.507778   -1.231188
    105          1           0       -6.152965   -1.038342    0.076055
    106          1           0       -5.608946   -0.859389    1.845588
    107          1           0       -4.967005   -2.112681    0.787472
    108          1           0       -3.461713    1.770270    0.915147
    109          1           0       -4.904122    1.402680    1.882415
    110          1           0       -5.948028    1.600163   -0.515254
    111          1           0       -4.719936    2.827280   -0.752675
    112          1           0       -5.805667    4.249557    0.663156
    113          1           0       -5.986200    3.100623    1.919360
    114          1           0       -7.555570    3.023074   -0.638252
    115          1           0       -8.012018    4.599081    1.974432
    116          1           0       -9.418994    4.207424    0.900082
    117          1           0       -8.163174    5.225033    0.384361
    118          1           0       -9.046903    2.052328    1.701943
    119          1           0       -7.428548    1.204940    1.427072
    120          1           0       -8.094211    0.617034   -0.657975
    121          1           0       -9.676284    1.306855   -0.613499
    122          1           0       -8.947377   -0.483958    1.720452
    123          1           0       -8.782026   -1.258573    0.221198
    124          1           0      -11.213445   -0.434779   -0.305569
    125          1           0      -10.100444   -2.867749    0.935527
    126          1           0      -11.248911   -2.501857   -0.394343
    127          1           0      -11.750656   -2.602971    1.282479
    128          1           0      -10.874376    0.603059    2.465333
    129          1           0      -11.929594   -0.744152    2.567837
    130          1           0      -12.480228    0.976513    0.206382
    131          1           0      -12.164693    1.942507    1.635090
    132          1           0      -14.414237    1.741368    1.960099
    133          1           0      -14.016287    0.223820    2.696429
    134          1           0      -14.085364   -0.858269    0.262957
    135          1           0      -14.398340    0.565249   -1.319438
    136          1           0      -15.145012    1.657327   -0.211147
    137          1           0      -16.140277    0.419303   -0.923757
    138          1           0      -16.716705   -0.989967    0.626655
    139          1           0      -16.258534   -0.594843    2.309355
    140          1           0      -15.483812   -2.016666    1.447122
 ---------------------------------------------------------------------

 SCF Done:  E(RPBE1PBE) =  -3005.32786558     A.U. after   15 cycles

 Excitation energies and oscillator strengths:

 Excited State   1:      Singlet-A      1.8409 eV  673.49 nm  f=0.3828  <S**2>=0.000
     245 -> 248        0.16606
     246 -> 247        0.69453
     246 <- 247       -0.11365
 This state for optimization and/or second-order correction.
 Total Energy, E(TD-HF/TD-DFT) =  -3005.26021315
 Copying the excited state density for this state as the 1-particle RhoCI density.

 Excited State   2:      Singlet-A      2.1888 eV  566.45 nm  f=0.1260  <S**2>=0.000
     245 -> 247        0.66078
     246 -> 248       -0.23270

 Excited State   3:      Singlet-A      2.8289 eV  438.28 nm  f=0.0013  <S**2>=0.000
     240 -> 247       -0.12643
     241 -> 247        0.64135
     241 -> 249        0.14753
     243 -> 247       -0.13753

 Excited State   4:      Singlet-A      2.8719 eV  431.71 nm  f=0.0020  <S**2>=0.000
     241 -> 247        0.13759
     242 -> 247        0.10222
     243 -> 247        0.65107
     244 -> 247        0.10826

 Excited State   5:      Singlet-A      2.9513 eV  420.10 nm  f=0.0016  <S**2>=0.000
     242 -> 247        0.66400
     243 -> 247       -0.11257

 The electronic state is 1-A.
 Alpha  occ. eigenvalues --  -46.93153 -19.25567 -19.25312 -19.19982 -19.19120
 Alpha  occ. eigenvalues --  -19.18921 -19.18493 -14.42096 -14.42050 -14.39569
 Alpha  occ. eigenvalues --  -14.39435 -10.36015 -10.34867 -10.32506 -10.32043
 Alpha  occ. eigenvalues --  -10.29530 -10.29339 -10.29306 -10.29221 -10.28963
 Alpha  occ. eigenvalues --  -10.28662 -10.28471 -10.28165 -10.27455 -10.26997
 Alpha  occ. eigenvalues --  -10.26780 -10.26668 -10.26422 -10.26354 -10.26280
 Alpha  occ. eigenvalues --  -10.26069 -10.26015 -10.25935 -10.25115 -10.25016
 Alpha  occ. eigenvalues --  -10.24734 -10.24728 -10.24724 -10.24387 -10.24227
 Alpha  occ. eigenvalues --  -10.24017 -10.23978 -10.23850 -10.23542 -10.23403
 Alpha  occ. eigenvalues --  -10.23374 -10.23366 -10.23222 -10.23114 -10.23102
 Alpha  occ. eigenvalues --  -10.23084 -10.23012 -10.22856 -10.22586 -10.22539
 Alpha  occ. eigenvalues --  -10.22436 -10.22308 -10.22084 -10.22066 -10.21924
 Alpha  occ. eigenvalues --  -10.21905 -10.21857 -10.21763 -10.21667 -10.21455
 Alpha  occ. eigenvalues --  -10.21264  -3.15148  -1.87978  -1.87516  -1.87371
 Alpha  occ. eigenvalues --   -1.12687  -1.10322  -1.03377  -1.02775  -1.02485
 Alpha  occ. eigenvalues --   -1.01264  -0.98767  -0.97845  -0.97719  -0.96872
 Alpha  occ. eigenvalues --   -0.87516  -0.85528  -0.84038  -0.83315  -0.83192
 Alpha  occ. eigenvalues --   -0.82732  -0.82504  -0.82018  -0.81346  -0.81340
 Alpha  occ. eigenvalues --   -0.79968  -0.79714  -0.78907  -0.78569  -0.77885
 Alpha  occ. eigenvalues --   -0.77259  -0.76763  -0.75593  -0.75341  -0.74967
 Alpha  occ. eigenvalues --   -0.74377  -0.72527  -0.71990  -0.71444  -0.70631
 Alpha  occ. eigenvalues --   -0.69805  -0.69555  -0.69224  -0.68888  -0.68383
 Alpha  occ. eigenvalues --   -0.67424  -0.66868  -0.65973  -0.64448  -0.63838
 Alpha  occ. eigenvalues --   -0.63074  -0.62161  -0.61743  -0.60723  -0.60510
 Alpha  occ. eigenvalues --   -0.60155  -0.59549  -0.59455  -0.58839  -0.58638
 Alpha  occ. eigenvalues --   -0.58070  -0.57542  -0.57380  -0.56467  -0.54462
 Alpha  occ. eigenvalues --   -0.53970  -0.53338  -0.53194  -0.52906  -0.52291
 Alpha  occ. eigenvalues --   -0.52017  -0.51603  -0.50509  -0.50415  -0.50273
 Alpha  occ. eigenvalues --   -0.50086  -0.49554  -0.49202  -0.48757  -0.48188
 Alpha  occ. eigenvalues --   -0.48074  -0.47948  -0.47579  -0.47379  -0.47059
 Alpha  occ. eigenvalues --   -0.46982  -0.46778  -0.46657  -0.46560  -0.46339
 Alpha  occ. eigenvalues --   -0.45892  -0.45819  -0.45563  -0.45455  -0.45108
 Alpha  occ. eigenvalues --   -0.45035  -0.44662  -0.44453  -0.44399  -0.44098
 Alpha  occ. eigenvalues --   -0.43887  -0.43644  -0.43537  -0.43410  -0.43319
 Alpha  occ. eigenvalues --   -0.43213  -0.42878  -0.42801  -0.42437  -0.42220
 Alpha  occ. eigenvalues --   -0.42000  -0.41872  -0.41568  -0.41375  -0.41150
 Alpha  occ. eigenvalues --   -0.40955  -0.40753  -0.40549  -0.40510  -0.40395
 Alpha  occ. eigenvalues --   -0.40279  -0.40174  -0.40004  -0.39936  -0.39654
 Alpha  occ. eigenvalues --   -0.39482  -0.39351  -0.39109  -0.38954  -0.38665
 Alpha  occ. eigenvalues --   -0.38383  -0.38363  -0.38095  -0.38085  -0.37897
 Alpha  occ. eigenvalues --   -0.37674  -0.37366  -0.37262  -0.37092  -0.36799
 Alpha  occ. eigenvalues --   -0.36591  -0.36424  -0.36309  -0.36237  -0.35925
 Alpha  occ. eigenvalues --   -0.35652  -0.35565  -0.35532  -0.35408  -0.34992
 Alpha  occ. eigenvalues --   -0.34862  -0.34598  -0.34188  -0.33639  -0.33442
 Alpha  occ. eigenvalues --   -0.33395  -0.33055  -0.32898  -0.32656  -0.32378
 Alpha  occ. eigenvalues --   -0.32211  -0.31929  -0.31555  -0.31462  -0.31101
 Alpha  occ. eigenvalues --   -0.30550  -0.30436  -0.30259  -0.29887  -0.29060
 Alpha  occ. eigenvalues --   -0.28729  -0.28497  -0.28342  -0.26942  -0.25909
 Alpha  occ. eigenvalues --   -0.25429  -0.25308  -0.25000  -0.24952  -0.21136
 Alpha  occ. eigenvalues --   -0.19081
 Alpha virt. eigenvalues --   -0.11603  -0.05326  -0.04035  -0.02520  -0.01309
 Alpha virt. eigenvalues --   -0.00441   0.00443   0.01133   0.01610   0.02940
 Alpha virt. eigenvalues --    0.04296   0.04528   0.04886   0.05278   0.05320

 Mulliken charges:
               1
     1  Mg   0.972622
     2  C   -0.081130
     3  C   -0.067580
     4  C   -0.072952
     5  C   -0.081595
     6  N   -0.376797
     7  C    0.033002
     8  C   -0.052927
     9  C   -0.113927
    10  C    0.083072
    11  C    0.013680
    12  C   -0.003952
    13  C    0.013184
    14  C    0.225440
    15  O   -0.272000
    16  O   -0.369279
    17  N   -0.470942
    18  C    0.157989
    19  C   -0.195948
    20  C   -0.054662
    21  C    0.155265
    22  C    0.083708
    23  C    0.039384
    24  O   -0.296480
    25  C   -0.008160
    26  N   -0.401123
    27  C    0.067585
    28  C   -0.152668
    29  C   -0.097028
    30  C    0.005924
    31  C   -0.008250
    32  C    0.003358
    33  C   -0.065853
    34  N   -0.479451
    35  C    0.191202
    36  C   -0.184637
    37  C   -0.042728
    38  C    0.172587
    39  C    0.090566
    40  C    0.170337
    41  O   -0.231460
    42  C   -0.109127
    43  C    0.245423
    44  O   -0.248627
    45  O   -0.351143
    46  C    0.124427
    47  C    0.236602
    48  C   -0.107917
    49  C   -0.268920
    50  C   -0.020322
    51  C    0.044301
    52  C   -0.036296
    53  C   -0.061378
    54  C   -0.180117
    55  C    0.017055
    56  C   -0.001089
    57  C   -0.039363
    58  C   -0.028231
    59  C   -0.230928
    60  C   -0.004870
    61  C    0.051823
    62  C   -0.068767
    63  C   -0.013196
    64  C   -0.275308
    65  C   -0.021069
    66  C    0.006140
    67  H    0.009611
    68  H   -0.009444
    69  H    0.000804
    70  H    0.050358
    71  H    0.076493
    72  H    0.045220
    73  H    0.035115
    74  H    0.047790
    75  H    0.038343
    76  H    0.049337
    77  H    0.056001
    78  H    0.059161
    79  H    0.062682
    80  H    0.063739
    81  H    0.030580
    82  H    0.063146
    83  H    0.067266
    84  H    0.066901
    85  H    0.061535
    86  H    0.049150
    87  H    0.047149
    88  H    0.046612
    89  H    0.058295
    90  H    0.056675
    91  H    0.039531
    92  H    0.048254
    93  H    0.035771
    94  H    0.045498
    95  H    0.073291
    96  H    0.057513
    97  H    0.032326
    98  H    0.090085
    99  H    0.058993
   100  H    0.074171
   101  H    0.061075
   102  H    0.036033
   103  H    0.067073
   104  H    0.026429
   105  H    0.070407
   106  H    0.052323
   107  H    0.061019
   108  H    0.043592
   109  H    0.032221
   110  H    0.032342
   111  H    0.042456
   112  H    0.020744
   113  H    0.026801
   114  H    0.032723
   115  H    0.037383
   116  H    0.028395
   117  H    0.026145
   118  H    0.033323
   119  H    0.031325
   120  H    0.013614
   121  H    0.028444
   122  H    0.022646
   123  H    0.016890
   124  H    0.032512
   125  H    0.034972
   126  H    0.031987
   127  H    0.021054
   128  H    0.027347
   129  H    0.024839
   130  H    0.028474
   131  H    0.019826
   132  H    0.030126
   133  H    0.018327
   134  H    0.036709
   135  H    0.037853
   136  H    0.019655
   137  H    0.032620
   138  H    0.027135
   139  H    0.042938
   140  H    0.045792
 Sum of Mulliken charges =  -0.00000

 Dipole moment (field-independent basis, Debye):
    X=              2.3294    Y=              1.5733    Z=              1.8238  Tot=              3.3508
 Quadrupole moment (field-independent basis, Debye-Ang):
   XX=           -339.7854   YY=           -441.2380   ZZ=           -398.2918
   XY=             11.1428   XZ=              9.9526   YZ=             38.9318

 Normal termination of Gaussian 16 at Wed May  4 00:45:51 2022.
