 Gaussian 16, Revision A.03,
 Gaussian 16:  ES64L-G16RevA.03 25-Dec-2016

 --------------------------------
 #p wB97XD/Def2SVP td=(nstates=5)
 --------------------------------

 ----------------------------------------------------
 step_1151_chromophore_5 TDDFT with wB97XD functional
 ----------------------------------------------------
 Symbolic Z-matrix:
 Charge =  0 Multiplicity = 1

                         Standard orientation:
 ---------------------------------------------------------------------
 Center     Atomic      Atomic             Coordinates (Angstroms)
 Number     Number       Type             X           Y           Z
 ---------------------------------------------------------------------
      1         12           0        5.362020    0.395198   -0.370000
      2          6           0        3.995759   -2.874284   -0.076860
      3          6           0        2.935000    1.027114   -2.669524
      4          6           0        6.044166    3.740247   -0.023132
      5          6           0        7.144325   -0.231913    2.523386
      6          7           0        3.758206   -0.839738   -1.334841
      7          6           0        3.417144   -2.128571   -1.136208
      8          6           0        2.154432   -2.505628   -1.976649
      9          6           0        2.006558   -1.326208   -3.048926
     10          6           0        2.993859   -0.300560   -2.354534
     11          6           0        2.384569   -1.814891   -4.479336
     12          6           0        0.929664   -2.828963   -1.048638
     13          6           0       -0.290366   -3.453225   -1.731246
     14          6           0       -1.289931   -2.412214   -2.233992
     15          8           0       -1.253582   -1.805602   -3.289707
     16          8           0       -2.347041   -2.399803   -1.345923
     17          7           0        4.627284    2.152674   -1.308581
     18          6           0        3.638714    2.187453   -2.223266
     19          6           0        3.586018    3.526216   -2.795090
     20          6           0        4.404927    4.402524   -2.001993
     21          6           0        5.012619    3.469171   -1.045421
     22          6           0        2.717103    3.993727   -3.962092
     23          6           0        4.603275    5.902968   -2.198672
     24          8           0        3.928993    6.589694   -3.043986
     25          6           0        5.560558    6.732054   -1.368919
     26          7           0        6.287856    1.579009    1.131020
     27          6           0        6.614157    2.900108    0.970531
     28          6           0        7.589902    3.492334    2.067351
     29          6           0        7.851037    2.131656    2.977805
     30          6           0        7.054919    1.088154    2.163922
     31          6           0        8.907297    3.988568    1.429851
     32          6           0        7.307191    2.276222    4.456679
     33          6           0        8.377508    2.281792    5.545955
     34          7           0        5.738576   -1.286155    0.825075
     35          6           0        6.455595   -1.345585    2.032099
     36          6           0        6.380604   -2.707718    2.555249
     37          6           0        5.443231   -3.355378    1.736689
     38          6           0        5.030145   -2.438585    0.745429
     39          6           0        7.174392   -3.207940    3.691645
     40          6           0        4.706001   -4.564793    1.557934
     41          8           0        4.627438   -5.654449    2.145560
     42          6           0        3.612109   -4.252432    0.468697
     43          6           0        3.483923   -5.268593   -0.499915
     44          8           0        2.473304   -5.796279   -0.879442
     45          8           0        4.692667   -5.603597   -0.909378
     46          6           0        4.694916   -6.602752   -2.031445
     47          6           0       -3.525009   -1.572414   -1.662862
     48          6           0       -3.468301   -0.367728   -0.763672
     49          6           0       -4.321991   -0.037585    0.287370
     50          6           0       -5.351897   -1.093406    0.812256
     51          6           0       -4.479950    1.383190    0.878650
     52          6           0       -5.264616    2.269321    0.009101
     53          6           0       -6.156370    3.235127    0.850823
     54          6           0       -7.662333    3.121687    0.441492
     55          6           0       -8.338176    4.323552    0.972112
     56          6           0       -8.221098    1.835271    1.024049
     57          6           0       -8.876163    0.938589    0.029397
     58          6           0       -9.287018   -0.413155    0.687226
     59          6           0      -10.795784   -0.746350    0.651640
     60          6           0      -10.951044   -2.260694    0.625575
     61          6           0      -11.517603   -0.031014    1.854177
     62          6           0      -12.470343    0.953017    1.296345
     63          6           0      -13.976627    0.765574    1.751860
     64          6           0      -14.769390   -0.155842    0.739500
     65          6           0      -15.144493    0.614323   -0.525172
     66          6           0      -15.916276   -1.018437    1.365177
     67          1           0        2.168923    1.265051   -3.410422
     68          1           0        6.592139    4.676120   -0.147471
     69          1           0        7.947939   -0.316461    3.257305
     70          1           0        2.556153   -3.413484   -2.426047
     71          1           0        1.039502   -0.822600   -3.061196
     72          1           0        2.540345   -2.891408   -4.560954
     73          1           0        3.226063   -1.308289   -4.949738
     74          1           0        1.604735   -1.542058   -5.190402
     75          1           0        0.620420   -1.894392   -0.580468
     76          1           0        1.034400   -3.423226   -0.140911
     77          1           0       -0.855982   -4.105845   -1.066434
     78          1           0        0.031421   -4.134601   -2.518454
     79          1           0        3.259192    4.642958   -4.650548
     80          1           0        1.920030    4.624573   -3.568522
     81          1           0        2.344684    3.082312   -4.429658
     82          1           0        6.519939    6.249850   -1.554500
     83          1           0        5.335683    6.584924   -0.312958
     84          1           0        5.508844    7.750074   -1.755744
     85          1           0        7.197019    4.339013    2.630329
     86          1           0        8.871767    1.789808    2.808419
     87          1           0        8.717512    5.051345    1.278627
     88          1           0        8.924666    3.544884    0.433966
     89          1           0        9.832038    3.793295    1.971911
     90          1           0        6.527463    1.527245    4.596529
     91          1           0        6.830296    3.255948    4.462537
     92          1           0        8.444594    3.188453    6.146974
     93          1           0        9.318955    2.124384    5.018680
     94          1           0        8.249782    1.469951    6.262701
     95          1           0        7.406970   -4.266717    3.575219
     96          1           0        6.637456   -2.959623    4.607405
     97          1           0        8.087486   -2.625584    3.811278
     98          1           0        2.671781   -4.063952    0.987529
     99          1           0        3.883111   -6.358990   -2.716344
    100          1           0        4.545763   -7.589448   -1.593385
    101          1           0        5.608313   -6.524168   -2.619795
    102          1           0       -4.355464   -2.234480   -1.415973
    103          1           0       -3.697744   -1.145180   -2.650529
    104          1           0       -3.018572    0.507778   -1.231188
    105          1           0       -6.152965   -1.038342    0.076055
    106          1           0       -5.608946   -0.859389    1.845588
    107          1           0       -4.967005   -2.112681    0.787472
    108          1           0       -3.461713    1.770270    0.915147
    109          1           0       -4.904122    1.402680    1.882415
    110          1           0       -5.948028    1.600163   -0.515254
    111          1           0       -4.719936    2.827280   -0.752675
    112          1           0       -5.805667    4.249557    0.663156
    113          1           0       -5.986200    3.100623    1.919360
    114          1           0       -7.555570    3.023074   -0.638252
    115          1           0       -8.012018    4.599081    1.974432
    116          1           0       -9.418994    4.207424    0.900082
    117          1           0       -8.163174    5.225033    0.384361
    118          1           0       -9.046903    2.052328    1.701943
    119          1           0       -7.428548    1.204940    1.427072
    120          1           0       -8.094211    0.617034   -0.657975
    121          1           0       -9.676284    1.306855   -0.613499
    122          1           0       -8.947377   -0.483958    1.720452
    123          1           0       -8.782026   -1.258573    0.221198
    124          1           0      -11.213445   -0.434779   -0.305569
    125          1           0      -10.100444   -2.867749    0.935527
    126          1           0      -11.248911   -2.501857   -0.394343
    127          1           0      -11.750656   -2.602971    1.282479
    128          1           0      -10.874376    0.603059    2.465333
    129          1           0      -11.929594   -0.744152    2.567837
    130          1           0      -12.480228    0.976513    0.206382
    131          1           0      -12.164693    1.942507    1.635090
    132          1           0      -14.414237    1.741368    1.960099
    133          1           0      -14.016287    0.223820    2.696429
    134          1           0      -14.085364   -0.858269    0.262957
    135          1           0      -14.398340    0.565249   -1.319438
    136          1           0      -15.145012    1.657327   -0.211147
    137          1           0      -16.140277    0.419303   -0.923757
    138          1           0      -16.716705   -0.989967    0.626655
    139          1           0      -16.258534   -0.594843    2.309355
    140          1           0      -15.483812   -2.016666    1.447122
 ---------------------------------------------------------------------

 SCF Done:  E(RwB97XD) =  -3007.84025534     A.U. after   19 cycles

 Excitation energies and oscillator strengths:

 Excited State   1:      Singlet-A      1.6180 eV  766.30 nm  f=0.3925  <S**2>=0.000
     245 -> 248        0.18157
     246 -> 247        0.68438
     245 <- 248        0.11662
 This state for optimization and/or second-order correction.
 Total Energy, E(TD-HF/TD-DFT) =  -3007.78079622
 Copying the excited state density for this state as the 1-particle RhoCI density.

 Excited State   2:      Singlet-A      2.1267 eV  582.99 nm  f=0.1318  <S**2>=0.000
     245 -> 247        0.64914
     246 -> 248       -0.26293

 Excited State   3:      Singlet-A      3.3082 eV  374.78 nm  f=0.0036  <S**2>=0.000
     240 -> 247       -0.17524
     241 -> 247        0.11326
     244 -> 247        0.64137

 Excited State   4:      Singlet-A      3.3491 eV  370.20 nm  f=0.0016  <S**2>=0.000
     240 -> 247        0.41857
     240 -> 249        0.26717
     240 -> 250        0.17081
     241 -> 247        0.39653
     241 -> 249        0.13518

 Excited State   5:      Singlet-A      3.4313 eV  361.34 nm  f=0.0439  <S**2>=0.000
     240 -> 247       -0.33398
     241 -> 247        0.43620
     242 -> 247       -0.15760
     244 -> 247       -0.16317
     246 -> 248       -0.32108

 The electronic state is 1-A.
 Alpha  occ. eigenvalues --  -46.96084 -19.30271 -19.29829 -19.24659 -19.23938
 Alpha  occ. eigenvalues --  -19.23930 -19.23128 -14.47287 -14.47060 -14.44456
 Alpha  occ. eigenvalues --  -14.44416 -10.42801 -10.41833 -10.39176 -10.39095
 Alpha  occ. eigenvalues --  -10.35838 -10.35831 -10.35727 -10.35693 -10.35158
 Alpha  occ. eigenvalues --  -10.35033 -10.34670 -10.34647 -10.33552 -10.33246
 Alpha  occ. eigenvalues --  -10.33172 -10.33018 -10.32867 -10.32708 -10.32535
 Alpha  occ. eigenvalues --  -10.32522 -10.32320 -10.32186 -10.31377 -10.31263
 Alpha  occ. eigenvalues --  -10.31174 -10.31129 -10.31050 -10.30814 -10.30612
 Alpha  occ. eigenvalues --  -10.30427 -10.30402 -10.30353 -10.29990 -10.29910
 Alpha  occ. eigenvalues --  -10.29865 -10.29771 -10.29596 -10.29475 -10.29436
 Alpha  occ. eigenvalues --  -10.29353 -10.29275 -10.29135 -10.28932 -10.28891
 Alpha  occ. eigenvalues --  -10.28784 -10.28627 -10.28473 -10.28458 -10.28324
 Alpha  occ. eigenvalues --  -10.28281 -10.28218 -10.28128 -10.28108 -10.27870
 Alpha  occ. eigenvalues --  -10.27687  -3.21959  -1.95535  -1.95073  -1.94926
 Alpha  occ. eigenvalues --   -1.20201  -1.17688  -1.11048  -1.10261  -1.09814
 Alpha  occ. eigenvalues --   -1.08625  -1.06235  -1.05260  -1.05057  -1.04189
 Alpha  occ. eigenvalues --   -0.95270  -0.93186  -0.91697  -0.90929  -0.90843
 Alpha  occ. eigenvalues --   -0.90391  -0.90101  -0.89680  -0.89003  -0.88998
 Alpha  occ. eigenvalues --   -0.87484  -0.87320  -0.86575  -0.86195  -0.85521
 Alpha  occ. eigenvalues --   -0.84910  -0.84453  -0.83252  -0.82992  -0.82578
 Alpha  occ. eigenvalues --   -0.82039  -0.80179  -0.79641  -0.79046  -0.78297
 Alpha  occ. eigenvalues --   -0.77482  -0.77253  -0.76798  -0.76552  -0.76042
 Alpha  occ. eigenvalues --   -0.74989  -0.74451  -0.73507  -0.72062  -0.71436
 Alpha  occ. eigenvalues --   -0.70640  -0.69790  -0.69216  -0.68355  -0.68043
 Alpha  occ. eigenvalues --   -0.67670  -0.67192  -0.66874  -0.66336  -0.66301
 Alpha  occ. eigenvalues --   -0.65631  -0.65113  -0.64890  -0.64090  -0.61950
 Alpha  occ. eigenvalues --   -0.61436  -0.60706  -0.60695  -0.60353  -0.59752
 Alpha  occ. eigenvalues --   -0.59488  -0.59052  -0.58030  -0.57897  -0.57755
 Alpha  occ. eigenvalues --   -0.57534  -0.56912  -0.56555  -0.56206  -0.55579
 Alpha  occ. eigenvalues --   -0.55479  -0.55360  -0.54907  -0.54755  -0.54460
 Alpha  occ. eigenvalues --   -0.54325  -0.54185  -0.53965  -0.53923  -0.53743
 Alpha  occ. eigenvalues --   -0.53304  -0.53233  -0.52999  -0.52789  -0.52395
 Alpha  occ. eigenvalues --   -0.52366  -0.51963  -0.51793  -0.51738  -0.51460
 Alpha  occ. eigenvalues --   -0.51218  -0.50982  -0.50845  -0.50691  -0.50617
 Alpha  occ. eigenvalues --   -0.50509  -0.50108  -0.50084  -0.49686  -0.49420
 Alpha  occ. eigenvalues --   -0.49237  -0.49117  -0.48781  -0.48692  -0.48372
 Alpha  occ. eigenvalues --   -0.48120  -0.47965  -0.47802  -0.47770  -0.47566
 Alpha  occ. eigenvalues --   -0.47479  -0.47373  -0.47307  -0.47153  -0.46920
 Alpha  occ. eigenvalues --   -0.46663  -0.46537  -0.46291  -0.46095  -0.45808
 Alpha  occ. eigenvalues --   -0.45557  -0.45369  -0.45270  -0.45186  -0.45045
 Alpha  occ. eigenvalues --   -0.44760  -0.44587  -0.44363  -0.44236  -0.43774
 Alpha  occ. eigenvalues --   -0.43717  -0.43607  -0.43444  -0.43326  -0.42931
 Alpha  occ. eigenvalues --   -0.42755  -0.42666  -0.42625  -0.42333  -0.42074
 Alpha  occ. eigenvalues --   -0.41940  -0.41629  -0.41162  -0.40694  -0.40437
 Alpha  occ. eigenvalues --   -0.40321  -0.39989  -0.39926  -0.39669  -0.39417
 Alpha  occ. eigenvalues --   -0.39363  -0.38907  -0.38533  -0.38422  -0.38176
 Alpha  occ. eigenvalues --   -0.37452  -0.37412  -0.37085  -0.36770  -0.36300
 Alpha  occ. eigenvalues --   -0.35454  -0.35387  -0.35355  -0.33543  -0.32793
 Alpha  occ. eigenvalues --   -0.32473  -0.32296  -0.31643  -0.31497  -0.26124
 Alpha  occ. eigenvalues --   -0.23254
 Alpha virt. eigenvalues --   -0.07546   0.00186   0.02194   0.03982   0.04649
 Alpha virt. eigenvalues --    0.06249   0.07199   0.07942   0.08300   0.09631
 Alpha virt. eigenvalues --    0.10791   0.11216   0.11473   0.11942   0.12004

 Mulliken charges:
               1
     1  Mg   0.964033
     2  C   -0.084213
     3  C   -0.075123
     4  C   -0.084426
     5  C   -0.101026
     6  N   -0.341534
     7  C   -0.006435
     8  C   -0.020157
     9  C   -0.088356
    10  C    0.062880
    11  C    0.021473
    12  C    0.006740
    13  C    0.028788
    14  C    0.211907
    15  O   -0.267802
    16  O   -0.368967
    17  N   -0.440999
    18  C    0.146457
    19  C   -0.189331
    20  C   -0.051988
    21  C    0.149754
    22  C    0.095903
    23  C    0.036495
    24  O   -0.293050
    25  C    0.006796
    26  N   -0.373101
    27  C    0.060168
    28  C   -0.129761
    29  C   -0.073265
    30  C    0.000149
    31  C    0.001911
    32  C    0.016006
    33  C   -0.049108
    34  N   -0.445452
    35  C    0.187879
    36  C   -0.181453
    37  C   -0.036322
    38  C    0.157146
    39  C    0.099427
    40  C    0.150855
    41  O   -0.220749
    42  C   -0.058766
    43  C    0.216835
    44  O   -0.239560
    45  O   -0.351491
    46  C    0.140825
    47  C    0.251975
    48  C   -0.119095
    49  C   -0.251635
    50  C   -0.004199
    51  C    0.059108
    52  C   -0.012764
    53  C   -0.047508
    54  C   -0.145843
    55  C    0.029002
    56  C    0.029417
    57  C   -0.023816
    58  C   -0.007882
    59  C   -0.197868
    60  C    0.006119
    61  C    0.057189
    62  C   -0.044222
    63  C    0.003084
    64  C   -0.245557
    65  C   -0.010425
    66  C    0.020480
    67  H    0.002909
    68  H   -0.023883
    69  H   -0.006783
    70  H    0.032168
    71  H    0.065885
    72  H    0.039298
    73  H    0.029645
    74  H    0.043340
    75  H    0.029972
    76  H    0.040131
    77  H    0.051926
    78  H    0.054059
    79  H    0.058155
    80  H    0.059048
    81  H    0.023540
    82  H    0.056300
    83  H    0.061387
    84  H    0.065783
    85  H    0.053217
    86  H    0.037168
    87  H    0.041333
    88  H    0.039019
    89  H    0.053495
    90  H    0.048753
    91  H    0.031287
    92  H    0.043453
    93  H    0.027969
    94  H    0.039788
    95  H    0.070731
    96  H    0.053521
    97  H    0.026866
    98  H    0.081433
    99  H    0.054390
   100  H    0.070904
   101  H    0.058514
   102  H    0.031526
   103  H    0.064344
   104  H    0.022528
   105  H    0.058216
   106  H    0.047926
   107  H    0.056315
   108  H    0.036870
   109  H    0.023711
   110  H    0.009755
   111  H    0.037544
   112  H    0.012670
   113  H    0.016309
   114  H    0.020706
   115  H    0.031365
   116  H    0.021597
   117  H    0.020529
   118  H    0.017931
   119  H    0.009542
   120  H    0.001056
   121  H    0.020892
   122  H    0.011572
   123  H    0.006011
   124  H    0.018518
   125  H    0.029373
   126  H    0.026753
   127  H    0.014254
   128  H    0.018080
   129  H    0.016878
   130  H    0.012948
   131  H    0.012789
   132  H    0.023252
   133  H    0.007824
   134  H    0.020745
   135  H    0.032766
   136  H    0.011346
   137  H    0.027350
   138  H    0.020366
   139  H    0.037367
   140  H    0.040203
 Sum of Mulliken charges =  -0.00000

 Dipole moment (field-independent basis, Debye):
    X=              2.4135    Y=              1.2119    Z=              1.9488  Tot=              3.3304
 Quadrupole moment (field-independent basis, Debye-Ang):
   XX=           -338.4570   YY=           -439.9844   ZZ=           -398.2520
   XY=              9.2490   XZ=             10.1456   YZ=             39.0477

 Normal termination of Gaussian 16 at Wed May  4 01:14:51 2022.
