 Gaussian 16, Revision A.03,
 Gaussian 16:  ES64L-G16RevA.03 25-Dec-2016

 --------------------
 #p ZINDO=(nstates=5)
 --------------------

 -----------------------------
 step_1151_chromophore_5 ZINDO
 -----------------------------
 Symbolic Z-matrix:
 Charge =  0 Multiplicity = 1

                         Standard orientation:
 ---------------------------------------------------------------------
 Center     Atomic      Atomic             Coordinates (Angstroms)
 Number     Number       Type             X           Y           Z
 ---------------------------------------------------------------------
      1         12           0        5.362020    0.395198   -0.370000
      2          6           0        3.995759   -2.874284   -0.076860
      3          6           0        2.935000    1.027114   -2.669524
      4          6           0        6.044166    3.740247   -0.023132
      5          6           0        7.144325   -0.231913    2.523386
      6          7           0        3.758206   -0.839738   -1.334841
      7          6           0        3.417144   -2.128571   -1.136208
      8          6           0        2.154432   -2.505628   -1.976649
      9          6           0        2.006558   -1.326208   -3.048926
     10          6           0        2.993859   -0.300560   -2.354534
     11          6           0        2.384569   -1.814891   -4.479336
     12          6           0        0.929664   -2.828963   -1.048638
     13          6           0       -0.290366   -3.453225   -1.731246
     14          6           0       -1.289931   -2.412214   -2.233992
     15          8           0       -1.253582   -1.805602   -3.289707
     16          8           0       -2.347041   -2.399803   -1.345923
     17          7           0        4.627284    2.152674   -1.308581
     18          6           0        3.638714    2.187453   -2.223266
     19          6           0        3.586018    3.526216   -2.795090
     20          6           0        4.404927    4.402524   -2.001993
     21          6           0        5.012619    3.469171   -1.045421
     22          6           0        2.717103    3.993727   -3.962092
     23          6           0        4.603275    5.902968   -2.198672
     24          8           0        3.928993    6.589694   -3.043986
     25          6           0        5.560558    6.732054   -1.368919
     26          7           0        6.287856    1.579009    1.131020
     27          6           0        6.614157    2.900108    0.970531
     28          6           0        7.589902    3.492334    2.067351
     29          6           0        7.851037    2.131656    2.977805
     30          6           0        7.054919    1.088154    2.163922
     31          6           0        8.907297    3.988568    1.429851
     32          6           0        7.307191    2.276222    4.456679
     33          6           0        8.377508    2.281792    5.545955
     34          7           0        5.738576   -1.286155    0.825075
     35          6           0        6.455595   -1.345585    2.032099
     36          6           0        6.380604   -2.707718    2.555249
     37          6           0        5.443231   -3.355378    1.736689
     38          6           0        5.030145   -2.438585    0.745429
     39          6           0        7.174392   -3.207940    3.691645
     40          6           0        4.706001   -4.564793    1.557934
     41          8           0        4.627438   -5.654449    2.145560
     42          6           0        3.612109   -4.252432    0.468697
     43          6           0        3.483923   -5.268593   -0.499915
     44          8           0        2.473304   -5.796279   -0.879442
     45          8           0        4.692667   -5.603597   -0.909378
     46          6           0        4.694916   -6.602752   -2.031445
     47          6           0       -3.525009   -1.572414   -1.662862
     48          6           0       -3.468301   -0.367728   -0.763672
     49          6           0       -4.321991   -0.037585    0.287370
     50          6           0       -5.351897   -1.093406    0.812256
     51          6           0       -4.479950    1.383190    0.878650
     52          6           0       -5.264616    2.269321    0.009101
     53          6           0       -6.156370    3.235127    0.850823
     54          6           0       -7.662333    3.121687    0.441492
     55          6           0       -8.338176    4.323552    0.972112
     56          6           0       -8.221098    1.835271    1.024049
     57          6           0       -8.876163    0.938589    0.029397
     58          6           0       -9.287018   -0.413155    0.687226
     59          6           0      -10.795784   -0.746350    0.651640
     60          6           0      -10.951044   -2.260694    0.625575
     61          6           0      -11.517603   -0.031014    1.854177
     62          6           0      -12.470343    0.953017    1.296345
     63          6           0      -13.976627    0.765574    1.751860
     64          6           0      -14.769390   -0.155842    0.739500
     65          6           0      -15.144493    0.614323   -0.525172
     66          6           0      -15.916276   -1.018437    1.365177
     67          1           0        2.168923    1.265051   -3.410422
     68          1           0        6.592139    4.676120   -0.147471
     69          1           0        7.947939   -0.316461    3.257305
     70          1           0        2.556153   -3.413484   -2.426047
     71          1           0        1.039502   -0.822600   -3.061196
     72          1           0        2.540345   -2.891408   -4.560954
     73          1           0        3.226063   -1.308289   -4.949738
     74          1           0        1.604735   -1.542058   -5.190402
     75          1           0        0.620420   -1.894392   -0.580468
     76          1           0        1.034400   -3.423226   -0.140911
     77          1           0       -0.855982   -4.105845   -1.066434
     78          1           0        0.031421   -4.134601   -2.518454
     79          1           0        3.259192    4.642958   -4.650548
     80          1           0        1.920030    4.624573   -3.568522
     81          1           0        2.344684    3.082312   -4.429658
     82          1           0        6.519939    6.249850   -1.554500
     83          1           0        5.335683    6.584924   -0.312958
     84          1           0        5.508844    7.750074   -1.755744
     85          1           0        7.197019    4.339013    2.630329
     86          1           0        8.871767    1.789808    2.808419
     87          1           0        8.717512    5.051345    1.278627
     88          1           0        8.924666    3.544884    0.433966
     89          1           0        9.832038    3.793295    1.971911
     90          1           0        6.527463    1.527245    4.596529
     91          1           0        6.830296    3.255948    4.462537
     92          1           0        8.444594    3.188453    6.146974
     93          1           0        9.318955    2.124384    5.018680
     94          1           0        8.249782    1.469951    6.262701
     95          1           0        7.406970   -4.266717    3.575219
     96          1           0        6.637456   -2.959623    4.607405
     97          1           0        8.087486   -2.625584    3.811278
     98          1           0        2.671781   -4.063952    0.987529
     99          1           0        3.883111   -6.358990   -2.716344
    100          1           0        4.545763   -7.589448   -1.593385
    101          1           0        5.608313   -6.524168   -2.619795
    102          1           0       -4.355464   -2.234480   -1.415973
    103          1           0       -3.697744   -1.145180   -2.650529
    104          1           0       -3.018572    0.507778   -1.231188
    105          1           0       -6.152965   -1.038342    0.076055
    106          1           0       -5.608946   -0.859389    1.845588
    107          1           0       -4.967005   -2.112681    0.787472
    108          1           0       -3.461713    1.770270    0.915147
    109          1           0       -4.904122    1.402680    1.882415
    110          1           0       -5.948028    1.600163   -0.515254
    111          1           0       -4.719936    2.827280   -0.752675
    112          1           0       -5.805667    4.249557    0.663156
    113          1           0       -5.986200    3.100623    1.919360
    114          1           0       -7.555570    3.023074   -0.638252
    115          1           0       -8.012018    4.599081    1.974432
    116          1           0       -9.418994    4.207424    0.900082
    117          1           0       -8.163174    5.225033    0.384361
    118          1           0       -9.046903    2.052328    1.701943
    119          1           0       -7.428548    1.204940    1.427072
    120          1           0       -8.094211    0.617034   -0.657975
    121          1           0       -9.676284    1.306855   -0.613499
    122          1           0       -8.947377   -0.483958    1.720452
    123          1           0       -8.782026   -1.258573    0.221198
    124          1           0      -11.213445   -0.434779   -0.305569
    125          1           0      -10.100444   -2.867749    0.935527
    126          1           0      -11.248911   -2.501857   -0.394343
    127          1           0      -11.750656   -2.602971    1.282479
    128          1           0      -10.874376    0.603059    2.465333
    129          1           0      -11.929594   -0.744152    2.567837
    130          1           0      -12.480228    0.976513    0.206382
    131          1           0      -12.164693    1.942507    1.635090
    132          1           0      -14.414237    1.741368    1.960099
    133          1           0      -14.016287    0.223820    2.696429
    134          1           0      -14.085364   -0.858269    0.262957
    135          1           0      -14.398340    0.565249   -1.319438
    136          1           0      -15.145012    1.657327   -0.211147
    137          1           0      -16.140277    0.419303   -0.923757
    138          1           0      -16.716705   -0.989967    0.626655
    139          1           0      -16.258534   -0.594843    2.309355
    140          1           0      -15.483812   -2.016666    1.447122
 ---------------------------------------------------------------------

 SCF Done:  E(RZINDO/S) =  -474.194460664     A.U. after   20 cycles

 Excitation energies and oscillator strengths:

 Excited State   1:      Singlet-A      1.2204 eV 1015.96 nm  f=0.6190  <S**2>=0.000
     175 ->178         0.19391
     176 ->177         0.66218
 This state for optimization and/or second-order correction.
 Total Energy, E(CIS/TDA) =  -474.149613061
 Copying the excited state density for this state as the 1-particle RhoCI density.

 Excited State   2:      Singlet-A      1.8781 eV  660.15 nm  f=0.0620  <S**2>=0.000
     175 ->177         0.56121
     176 ->178        -0.40352

 Excited State   3:      Singlet-A      2.8546 eV  434.34 nm  f=0.0142  <S**2>=0.000
     168 ->177         0.36955
     168 ->178         0.11919
     168 ->179         0.39891
     168 ->181         0.22377
     168 ->186         0.18661

 Excited State   4:      Singlet-A      2.9338 eV  422.60 nm  f=0.0145  <S**2>=0.000
     169 ->177         0.23485
     169 ->178         0.15703
     169 ->179        -0.33001
     169 ->180         0.14840
     169 ->181         0.39399
     169 ->183        -0.12628
     169 ->186        -0.20081
     169 ->187        -0.14468

 Excited State   5:      Singlet-A      2.9697 eV  417.50 nm  f=0.9159  <S**2>=0.000
     171 ->177         0.14870
     175 ->177         0.34254
     176 ->178         0.51957
     176 ->179         0.16666
     176 ->180         0.15258

 The electronic state is 1-A.
 Alpha  occ. eigenvalues --   -1.85090  -1.78797  -1.78491  -1.76097  -1.71651
 Alpha  occ. eigenvalues --   -1.69199  -1.68750  -1.63045  -1.58536  -1.55125
 Alpha  occ. eigenvalues --   -1.54180  -1.51309  -1.48166  -1.47246  -1.46355
 Alpha  occ. eigenvalues --   -1.46291  -1.42743  -1.40841  -1.38926  -1.37088
 Alpha  occ. eigenvalues --   -1.35900  -1.34434  -1.33547  -1.31888  -1.30463
 Alpha  occ. eigenvalues --   -1.28940  -1.25845  -1.22397  -1.19969  -1.18552
 Alpha  occ. eigenvalues --   -1.17249  -1.16146  -1.14806  -1.14024  -1.12999
 Alpha  occ. eigenvalues --   -1.12502  -1.10702  -1.09619  -1.05175  -1.03408
 Alpha  occ. eigenvalues --   -1.01768  -1.00612  -0.98002  -0.97536  -0.97359
 Alpha  occ. eigenvalues --   -0.96271  -0.94417  -0.94101  -0.93274  -0.92491
 Alpha  occ. eigenvalues --   -0.91365  -0.91096  -0.89448  -0.87822  -0.86571
 Alpha  occ. eigenvalues --   -0.86093  -0.84539  -0.83691  -0.81922  -0.80691
 Alpha  occ. eigenvalues --   -0.79690  -0.79523  -0.77801  -0.76770  -0.76115
 Alpha  occ. eigenvalues --   -0.76036  -0.75079  -0.74449  -0.73795  -0.72848
 Alpha  occ. eigenvalues --   -0.72320  -0.71984  -0.71451  -0.70969  -0.70617
 Alpha  occ. eigenvalues --   -0.70197  -0.69782  -0.68821  -0.68459  -0.68106
 Alpha  occ. eigenvalues --   -0.67612  -0.67106  -0.66604  -0.66477  -0.65790
 Alpha  occ. eigenvalues --   -0.64996  -0.64406  -0.64271  -0.64066  -0.63776
 Alpha  occ. eigenvalues --   -0.63633  -0.63320  -0.62991  -0.62352  -0.62048
 Alpha  occ. eigenvalues --   -0.61446  -0.61116  -0.60732  -0.60253  -0.60076
 Alpha  occ. eigenvalues --   -0.59890  -0.59002  -0.58881  -0.58602  -0.58077
 Alpha  occ. eigenvalues --   -0.57985  -0.57466  -0.56923  -0.56612  -0.56099
 Alpha  occ. eigenvalues --   -0.55819  -0.55312  -0.54890  -0.54597  -0.54100
 Alpha  occ. eigenvalues --   -0.53871  -0.53739  -0.53543  -0.53359  -0.52889
 Alpha  occ. eigenvalues --   -0.52483  -0.52065  -0.52003  -0.51819  -0.51432
 Alpha  occ. eigenvalues --   -0.51243  -0.51171  -0.50868  -0.50683  -0.50439
 Alpha  occ. eigenvalues --   -0.50184  -0.50150  -0.49536  -0.49359  -0.49038
 Alpha  occ. eigenvalues --   -0.48877  -0.48773  -0.48380  -0.47998  -0.47611
 Alpha  occ. eigenvalues --   -0.47549  -0.47160  -0.47006  -0.46863  -0.46630
 Alpha  occ. eigenvalues --   -0.46342  -0.46030  -0.45676  -0.45377  -0.45152
 Alpha  occ. eigenvalues --   -0.44833  -0.44424  -0.44142  -0.43835  -0.43444
 Alpha  occ. eigenvalues --   -0.43375  -0.43164  -0.43071  -0.42597  -0.42090
 Alpha  occ. eigenvalues --   -0.41967  -0.41160  -0.40784  -0.38780  -0.38660
 Alpha  occ. eigenvalues --   -0.38570  -0.37778  -0.35644  -0.34932  -0.34745
 Alpha  occ. eigenvalues --   -0.33599  -0.32826  -0.31938  -0.31446  -0.26890
 Alpha  occ. eigenvalues --   -0.22088
 Alpha virt. eigenvalues --   -0.09079  -0.02333  -0.00849   0.00766   0.00929
 Alpha virt. eigenvalues --    0.02237   0.02568   0.02975   0.03825   0.04356
 Alpha virt. eigenvalues --    0.05584   0.07109   0.07257   0.07569   0.08062

 Mulliken charges:
               1
     1  Mg   0.435835
     2  C   -0.049908
     3  C   -0.051685
     4  C   -0.099608
     5  C   -0.075372
     6  N   -0.272660
     7  C    0.133331
     8  C    0.011157
     9  C    0.007535
    10  C    0.102346
    11  C   -0.049404
    12  C   -0.015142
    13  C    0.007504
    14  C    0.471502
    15  O   -0.520158
    16  O   -0.268149
    17  N   -0.312448
    18  C    0.098073
    19  C    0.029774
    20  C   -0.059292
    21  C    0.108786
    22  C   -0.041222
    23  C    0.322179
    24  O   -0.552121
    25  C   -0.026997
    26  N   -0.276013
    27  C    0.122942
    28  C   -0.009563
    29  C   -0.014168
    30  C    0.139863
    31  C   -0.056306
    32  C   -0.021810
    33  C   -0.055274
    34  N   -0.338539
    35  C    0.108287
    36  C    0.048478
    37  C   -0.045747
    38  C    0.122898
    39  C   -0.032860
    40  C    0.329706
    41  O   -0.524521
    42  C    0.054080
    43  C    0.510685
    44  O   -0.544737
    45  O   -0.261620
    46  C    0.071721
    47  C    0.109212
    48  C   -0.113777
    49  C   -0.004783
    50  C   -0.050576
    51  C   -0.008508
    52  C   -0.029648
    53  C   -0.046650
    54  C   -0.007662
    55  C   -0.045931
    56  C   -0.026617
    57  C   -0.038780
    58  C   -0.042097
    59  C   -0.012151
    60  C   -0.059265
    61  C   -0.028204
    62  C   -0.033773
    63  C   -0.038403
    64  C   -0.020227
    65  C   -0.059144
    66  C   -0.059473
    67  H    0.023212
    68  H    0.025082
    69  H    0.021156
    70  H    0.036695
    71  H    0.053188
    72  H    0.025662
    73  H    0.021154
    74  H    0.021113
    75  H    0.017428
    76  H    0.036818
    77  H    0.034017
    78  H    0.042664
    79  H    0.043728
    80  H    0.040523
    81  H    0.021022
    82  H    0.034484
    83  H    0.040445
    84  H    0.049877
    85  H    0.041601
    86  H    0.043188
    87  H    0.016472
    88  H    0.023065
    89  H    0.030549
    90  H    0.030665
    91  H    0.020483
    92  H    0.024636
    93  H    0.017859
    94  H    0.019219
    95  H    0.042062
    96  H    0.037707
    97  H    0.021357
    98  H    0.054748
    99  H    0.042498
   100  H    0.052605
   101  H    0.033375
   102  H    0.031359
   103  H    0.061351
   104  H    0.023762
   105  H    0.036563
   106  H    0.024597
   107  H    0.025897
   108  H    0.019120
   109  H    0.028254
   110  H    0.015410
   111  H    0.028192
   112  H    0.006725
   113  H    0.020341
   114  H    0.030034
   115  H    0.024326
   116  H    0.009698
   117  H    0.008321
   118  H    0.022735
   119  H    0.027535
   120  H    0.004828
   121  H    0.027752
   122  H    0.015528
   123  H    0.008996
   124  H    0.026404
   125  H    0.021676
   126  H    0.015071
   127  H    0.009777
   128  H    0.015397
   129  H    0.024523
   130  H    0.023577
   131  H    0.008467
   132  H    0.024205
   133  H    0.009938
   134  H    0.015187
   135  H    0.018978
   136  H    0.007822
   137  H    0.020025
   138  H    0.021484
   139  H    0.026454
   140  H    0.024432
 Sum of Mulliken charges =  -0.00000

 Dipole moment (field-independent basis, Debye):
    X=              4.1919    Y=              1.6350    Z=              3.7732  Tot=              5.8721
 N-N= 4.357049072114D+03 E-N= 0.000000000000D+00  KE=-9.388291546648D+03
 Leave Link  601 at Wed May  4 01:29:18 2022, MaxMem=  6710886400 cpu:               1.5 elap:               0.1
 (Enter /sw/apps/gaussian-16.0/g16/l9999.exe)
 1\1\GINC-BP1-COMPUTE128\SP\RZINDO CIS\STO-3G\C55H74Mg1N4O6\OF15641\04-
 May-2022\0\\#p ZINDO=(nstates=5)\\step_1151_chromophore_5 ZINDO\\0,1\M
 g,0,24.768,-7.129,46.727\C,0,26.945,-4.617,45.465\C,0,22.401,-5.914,44
 .606\C,0,22.984,-10.018,47.223\C,0,27.54,-8.642,48.13\N,0,24.673,-5.38
 8,45.317\C,0,25.611,-4.472,45.004\C,0,25.099,-3.513,43.881\C,0,23.516,
 -3.746,43.831\C,0,23.485,-5.086,44.675\C,0,22.748,-2.523,44.416\C,0,25
 .923,-3.697,42.557\C,0,25.692,-2.649,41.465\C,0,24.569,-3.03,40.501\O,

 Normal termination of Gaussian 16 at Wed May  4 01:29:18 2022.
