 Gaussian 16, Revision A.03,
 Gaussian 16:  ES64L-G16RevA.03 25-Dec-2016

 ------------------------------
 #p blyp/Def2SVP td=(nstates=5)
 ------------------------------

 -----------------------------------------------
 step_1_chromophore_6 TDDFT with blyp functional
 -----------------------------------------------
 Symbolic Z-matrix:
 Charge =  0 Multiplicity = 1

                         Standard orientation:
 ---------------------------------------------------------------------
 Center     Atomic      Atomic             Coordinates (Angstroms)
 Number     Number       Type             X           Y           Z
 ---------------------------------------------------------------------
      1         12           0       -5.601503    1.079346   -0.239005
      2          6           0       -4.507644   -2.306886    0.196743
      3          6           0       -2.320278    1.930439   -0.872047
      4          6           0       -6.526202    4.204572   -0.008570
      5          6           0       -8.773491   -0.005083    0.640164
      6          7           0       -3.537035   -0.055680   -0.051975
      7          6           0       -3.439059   -1.419003    0.017787
      8          6           0       -1.999795   -1.854807   -0.366912
      9          6           0       -1.261003   -0.481783   -0.657259
     10          6           0       -2.407941    0.583373   -0.509132
     11          6           0       -0.029889   -0.092436    0.264674
     12          6           0       -1.903621   -2.820249   -1.578309
     13          6           0       -0.993218   -3.990605   -1.462174
     14          6           0        0.174076   -4.083899   -0.406754
     15          8           0        0.014036   -4.147992    0.797319
     16          8           0        1.452305   -3.830347   -0.899187
     17          7           0       -4.562406    2.898126   -0.405802
     18          6           0       -3.237553    3.073268   -0.804661
     19          6           0       -2.930594    4.516451   -0.814436
     20          6           0       -4.207510    5.183529   -0.671224
     21          6           0       -5.165024    4.102279   -0.341771
     22          6           0       -1.578763    5.129593   -1.021380
     23          6           0       -4.588921    6.679252   -0.772116
     24          8           0       -5.749077    7.113003   -0.933951
     25          6           0       -3.487146    7.657916   -0.852020
     26          7           0       -7.333313    1.919148    0.292716
     27          6           0       -7.428952    3.291249    0.369813
     28          6           0       -8.905117    3.741495    0.550503
     29          6           0       -9.662729    2.350443    0.383494
     30          6           0       -8.528298    1.341317    0.424224
     31          6           0       -9.293647    4.519130    1.873606
     32          6           0      -10.509232    2.169640   -0.866541
     33          6           0      -12.027883    2.032092   -0.630213
     34          7           0       -6.538856   -0.780455    0.123431
     35          6           0       -7.833140   -1.053517    0.498138
     36          6           0       -7.985313   -2.489275    0.767795
     37          6           0       -6.710192   -2.998638    0.597536
     38          6           0       -5.865199   -1.934572    0.210693
     39          6           0       -9.197178   -3.242409    1.207662
     40          6           0       -5.995388   -4.223512    0.635539
     41          8           0       -6.371090   -5.420325    0.790488
     42          6           0       -4.593328   -3.853259    0.394893
     43          6           0       -3.715908   -4.407649    1.484476
     44          8           0       -3.688449   -4.024804    2.603989
     45          8           0       -2.917674   -5.352406    0.987762
     46          6           0       -2.228239   -6.224393    1.877044
     47          6           0        2.475581   -3.473158    0.093733
     48          6           0        3.734169   -2.958722   -0.639177
     49          6           0        4.740029   -3.694417   -1.089903
     50          6           0        4.820465   -5.189971   -0.965622
     51          6           0        5.897704   -3.033370   -1.750683
     52          6           0        6.798601   -2.196887   -0.966700
     53          6           0        8.294428   -2.110590   -1.554227
     54          6           0        8.762004   -0.627422   -1.417074
     55          6           0        8.206567    0.179380   -2.563311
     56          6           0       10.342127   -0.540673   -1.284801
     57          6           0       10.845936   -0.443740    0.176383
     58          6           0       12.354417   -0.928460    0.211308
     59          6           0       13.320838    0.179065   -0.272609
     60          6           0       14.078815   -0.354470   -1.494948
     61          6           0       14.360973    0.583931    0.847421
     62          6           0       13.922662    1.844053    1.666311
     63          6           0       15.030871    2.934439    1.700348
     64          6           0       14.437310    4.361189    1.777602
     65          6           0       13.879508    4.575404    3.169609
     66          6           0       15.520371    5.409748    1.416681
     67          1           0       -1.307855    2.288622   -1.070750
     68          1           0       -6.987108    5.193226    0.057350
     69          1           0       -9.756634   -0.322628    0.991475
     70          1           0       -1.594596   -2.351111    0.515680
     71          1           0       -0.913783   -0.458879   -1.689786
     72          1           0        0.314713   -0.876189    0.938691
     73          1           0       -0.372890    0.708066    0.921768
     74          1           0        0.794357    0.286268   -0.340490
     75          1           0       -1.557715   -2.326381   -2.487105
     76          1           0       -2.859696   -3.279300   -1.828243
     77          1           0       -0.428197   -4.109321   -2.387203
     78          1           0       -1.618475   -4.872065   -1.322832
     79          1           0       -1.357203    5.803628   -0.194207
     80          1           0       -1.645990    5.712250   -1.940130
     81          1           0       -0.828040    4.375312   -1.259389
     82          1           0       -2.926846    7.596681    0.080992
     83          1           0       -3.971066    8.634147   -0.869617
     84          1           0       -2.926109    7.569090   -1.781918
     85          1           0       -9.126408    4.359102   -0.320538
     86          1           0      -10.319535    2.246931    1.247145
     87          1           0       -8.415193    4.645955    2.505312
     88          1           0      -10.144646    4.079260    2.395032
     89          1           0       -9.674060    5.494744    1.570588
     90          1           0      -10.179004    1.409678   -1.574854
     91          1           0      -10.407051    3.086671   -1.445855
     92          1           0      -12.548355    1.259851   -1.196300
     93          1           0      -12.491296    2.912634   -1.075990
     94          1           0      -12.329851    1.883717    0.405682
     95          1           0      -10.120771   -2.689806    1.032936
     96          1           0       -9.203472   -3.337476    2.293394
     97          1           0       -9.111075   -4.240922    0.779289
     98          1           0       -4.327214   -4.305920   -0.559933
     99          1           0       -2.978078   -6.913962    2.267334
    100          1           0       -1.870062   -5.684236    2.753550
    101          1           0       -1.480955   -6.816519    1.348122
    102          1           0        2.722928   -4.342443    0.703628
    103          1           0        2.121182   -2.612660    0.661013
    104          1           0        3.784218   -1.905423   -0.916026
    105          1           0        3.775228   -5.497167   -0.946478
    106          1           0        5.340393   -5.487033   -0.055016
    107          1           0        5.413410   -5.512542   -1.821338
    108          1           0        5.369724   -2.418342   -2.479286
    109          1           0        6.447232   -3.775043   -2.329778
    110          1           0        6.709369   -2.474357    0.083358
    111          1           0        6.361897   -1.201938   -0.888712
    112          1           0        8.394493   -2.403375   -2.600014
    113          1           0        8.862066   -2.763859   -0.890517
    114          1           0        8.481866   -0.204338   -0.452835
    115          1           0        7.806349    1.129498   -2.209771
    116          1           0        7.381410   -0.382423   -2.999260
    117          1           0        8.942631    0.294249   -3.358821
    118          1           0       10.852828    0.137381   -1.967686
    119          1           0       10.677992   -1.550023   -1.521301
    120          1           0       10.161365   -1.094346    0.719407
    121          1           0       10.828357    0.606480    0.466038
    122          1           0       12.493837   -1.791481   -0.438352
    123          1           0       12.528566   -1.324528    1.212070
    124          1           0       12.693688    1.021173   -0.565510
    125          1           0       14.879473   -1.042001   -1.222130
    126          1           0       14.492939    0.496344   -2.036634
    127          1           0       13.359204   -0.910456   -2.094904
    128          1           0       15.269422    0.922519    0.348960
    129          1           0       14.499516   -0.263788    1.518933
    130          1           0       13.864600    1.459482    2.684449
    131          1           0       12.935810    2.200701    1.369563
    132          1           0       15.688093    2.959268    0.831247
    133          1           0       15.841667    2.695257    2.389442
    134          1           0       13.608624    4.267993    1.076267
    135          1           0       13.056472    5.224158    2.868673
    136          1           0       14.473100    5.098403    3.919689
    137          1           0       13.521450    3.661387    3.643833
    138          1           0       15.852744    5.863078    2.351204
    139          1           0       14.975717    6.170051    0.856224
    140          1           0       16.338863    5.035531    0.801646
 ---------------------------------------------------------------------

 SCF Done:  E(RB-LYP) =  -3007.36691704     A.U. after   21 cycles

 Excitation energies and oscillator strengths:

 Excited State   1:      Singlet-A      1.8070 eV  686.14 nm  f=0.2922  <S**2>=0.000
     243 -> 247        0.13993
     245 -> 248       -0.17519
     246 -> 247        0.67004
     246 <- 247       -0.14677
 This state for optimization and/or second-order correction.
 Total Energy, E(TD-HF/TD-DFT) =  -3007.30051148
 Copying the excited state density for this state as the 1-particle RhoCI density.

 Excited State   2:      Singlet-A      1.9078 eV  649.87 nm  f=0.0428  <S**2>=0.000
     243 -> 247       -0.19113
     244 -> 247        0.57230
     245 -> 247        0.33026
     246 -> 247        0.12775

 Excited State   3:      Singlet-A      1.9268 eV  643.48 nm  f=0.0137  <S**2>=0.000
     243 -> 247        0.62591
     244 -> 247        0.29131
     246 -> 247       -0.11290

 Excited State   4:      Singlet-A      2.0050 eV  618.39 nm  f=0.0735  <S**2>=0.000
     243 -> 247        0.22483
     244 -> 247       -0.28781
     245 -> 247        0.55872
     246 -> 248        0.18779

 Excited State   5:      Singlet-A      2.4322 eV  509.77 nm  f=0.0003  <S**2>=0.000
     241 -> 247        0.65454
     242 -> 247        0.26025

 The electronic state is 1-A.
 Alpha  occ. eigenvalues --  -46.27255 -18.81708 -18.81249 -18.77142 -18.75774
 Alpha  occ. eigenvalues --  -18.75564 -18.75219 -14.03063 -14.02753 -14.01161
 Alpha  occ. eigenvalues --  -14.00964 -10.04395 -10.02986  -9.99918  -9.98791
 Alpha  occ. eigenvalues --   -9.98144  -9.96884  -9.96706  -9.96433  -9.96285
 Alpha  occ. eigenvalues --   -9.96190  -9.95686  -9.95478  -9.95453  -9.94472
 Alpha  occ. eigenvalues --   -9.94459  -9.94331  -9.93851  -9.93752  -9.93622
 Alpha  occ. eigenvalues --   -9.93609  -9.93547  -9.93509  -9.93411  -9.93379
 Alpha  occ. eigenvalues --   -9.93330  -9.93169  -9.92981  -9.92582  -9.92491
 Alpha  occ. eigenvalues --   -9.92454  -9.92445  -9.92322  -9.92316  -9.92261
 Alpha  occ. eigenvalues --   -9.92226  -9.92057  -9.91839  -9.91810  -9.91767
 Alpha  occ. eigenvalues --   -9.91748  -9.91716  -9.91629  -9.91379  -9.91351
 Alpha  occ. eigenvalues --   -9.91282  -9.91083  -9.91083  -9.91013  -9.90980
 Alpha  occ. eigenvalues --   -9.90960  -9.90776  -9.90722  -9.90521  -9.90479
 Alpha  occ. eigenvalues --   -9.90414  -2.91929  -1.72336  -1.71824  -1.71644
 Alpha  occ. eigenvalues --   -0.99106  -0.97615  -0.90842  -0.90169  -0.89570
 Alpha  occ. eigenvalues --   -0.89166  -0.86798  -0.85950  -0.84983  -0.84328
 Alpha  occ. eigenvalues --   -0.75933  -0.74758  -0.73075  -0.72865  -0.72354
 Alpha  occ. eigenvalues --   -0.72252  -0.71725  -0.71167  -0.70746  -0.70381
 Alpha  occ. eigenvalues --   -0.69717  -0.68672  -0.68149  -0.67582  -0.66901
 Alpha  occ. eigenvalues --   -0.66585  -0.66005  -0.65607  -0.65098  -0.64598
 Alpha  occ. eigenvalues --   -0.64413  -0.62605  -0.62066  -0.61869  -0.60931
 Alpha  occ. eigenvalues --   -0.60741  -0.60203  -0.60091  -0.59307  -0.58767
 Alpha  occ. eigenvalues --   -0.58202  -0.57836  -0.56556  -0.55561  -0.54597
 Alpha  occ. eigenvalues --   -0.54112  -0.53592  -0.52588  -0.52247  -0.51850
 Alpha  occ. eigenvalues --   -0.51275  -0.51240  -0.50677  -0.50268  -0.49812
 Alpha  occ. eigenvalues --   -0.49639  -0.49022  -0.48873  -0.48607  -0.46330
 Alpha  occ. eigenvalues --   -0.46216  -0.45883  -0.45576  -0.45144  -0.44926
 Alpha  occ. eigenvalues --   -0.44389  -0.43655  -0.43037  -0.42669  -0.42435
 Alpha  occ. eigenvalues --   -0.41998  -0.41623  -0.41248  -0.41120  -0.41038
 Alpha  occ. eigenvalues --   -0.40861  -0.40638  -0.40496  -0.40338  -0.40177
 Alpha  occ. eigenvalues --   -0.39881  -0.39713  -0.39473  -0.39324  -0.39147
 Alpha  occ. eigenvalues --   -0.38916  -0.38824  -0.38681  -0.38384  -0.38181
 Alpha  occ. eigenvalues --   -0.38084  -0.37925  -0.37726  -0.37566  -0.37329
 Alpha  occ. eigenvalues --   -0.37188  -0.37137  -0.36715  -0.36676  -0.36519
 Alpha  occ. eigenvalues --   -0.36297  -0.36085  -0.35944  -0.35603  -0.35483
 Alpha  occ. eigenvalues --   -0.35271  -0.35188  -0.34977  -0.34905  -0.34713
 Alpha  occ. eigenvalues --   -0.34598  -0.34436  -0.34225  -0.34137  -0.33920
 Alpha  occ. eigenvalues --   -0.33876  -0.33579  -0.33546  -0.33190  -0.32987
 Alpha  occ. eigenvalues --   -0.32903  -0.32812  -0.32616  -0.32272  -0.32172
 Alpha  occ. eigenvalues --   -0.32120  -0.31952  -0.31867  -0.31705  -0.31597
 Alpha  occ. eigenvalues --   -0.31232  -0.31167  -0.30892  -0.30764  -0.30474
 Alpha  occ. eigenvalues --   -0.30346  -0.30040  -0.29986  -0.29830  -0.29633
 Alpha  occ. eigenvalues --   -0.29354  -0.29225  -0.29068  -0.28948  -0.28693
 Alpha  occ. eigenvalues --   -0.28618  -0.28424  -0.28348  -0.27855  -0.27751
 Alpha  occ. eigenvalues --   -0.27214  -0.27112  -0.26828  -0.26480  -0.26475
 Alpha  occ. eigenvalues --   -0.26239  -0.26052  -0.25752  -0.25235  -0.25199
 Alpha  occ. eigenvalues --   -0.24874  -0.24692  -0.24104  -0.23656  -0.23380
 Alpha  occ. eigenvalues --   -0.23083  -0.22322  -0.22098  -0.21390  -0.20864
 Alpha  occ. eigenvalues --   -0.20575  -0.20354  -0.18630  -0.18567  -0.17182
 Alpha  occ. eigenvalues --   -0.15884
 Alpha virt. eigenvalues --   -0.11630  -0.06671  -0.06432  -0.04803  -0.04229
 Alpha virt. eigenvalues --   -0.02695  -0.02543  -0.01090  -0.00937   0.00079
 Alpha virt. eigenvalues --    0.01465   0.01867   0.02546   0.03024   0.03119

 Mulliken charges:
               1
     1  Mg   0.698455
     2  C    0.032094
     3  C   -0.010706
     4  C   -0.047537
     5  C   -0.087530
     6  N   -0.185448
     7  C   -0.109388
     8  C    0.040725
     9  C   -0.018880
    10  C    0.007542
    11  C    0.103176
    12  C    0.143929
    13  C    0.103769
    14  C    0.082743
    15  O   -0.199809
    16  O   -0.283164
    17  N   -0.279952
    18  C    0.084821
    19  C   -0.165830
    20  C    0.027906
    21  C    0.110536
    22  C    0.201382
    23  C   -0.073098
    24  O   -0.188082
    25  C    0.143203
    26  N   -0.273103
    27  C    0.059752
    28  C   -0.021491
    29  C    0.020376
    30  C    0.065391
    31  C    0.132207
    32  C    0.118345
    33  C    0.051564
    34  N   -0.230079
    35  C    0.091498
    36  C   -0.170961
    37  C    0.074733
    38  C    0.059635
    39  C    0.181431
    40  C   -0.055499
    41  O   -0.179529
    42  C    0.119644
    43  C    0.073988
    44  O   -0.138050
    45  O   -0.240248
    46  C    0.235604
    47  C    0.328007
    48  C   -0.115996
    49  C   -0.190853
    50  C    0.157046
    51  C    0.146056
    52  C    0.087240
    53  C    0.117370
    54  C   -0.095107
    55  C    0.139088
    56  C    0.062743
    57  C    0.050460
    58  C    0.116790
    59  C   -0.099589
    60  C    0.108128
    61  C    0.121442
    62  C    0.079441
    63  C    0.045621
    64  C   -0.085450
    65  C    0.100510
    66  C    0.127245
    67  H   -0.070976
    68  H   -0.044324
    69  H   -0.065543
    70  H    0.010871
    71  H   -0.018318
    72  H    0.009706
    73  H   -0.008047
    74  H   -0.004790
    75  H   -0.021615
    76  H   -0.021913
    77  H   -0.017693
    78  H    0.005884
    79  H    0.012097
    80  H   -0.004599
    81  H   -0.015446
    82  H    0.005088
    83  H   -0.015850
    84  H    0.017895
    85  H   -0.013315
    86  H   -0.034214
    87  H    0.004862
    88  H   -0.008999
    89  H   -0.007759
    90  H   -0.014366
    91  H   -0.033358
    92  H   -0.018106
    93  H   -0.014033
    94  H   -0.004530
    95  H   -0.018168
    96  H    0.004633
    97  H    0.021571
    98  H   -0.007419
    99  H   -0.003327
   100  H    0.016688
   101  H    0.013232
   102  H   -0.001441
   103  H   -0.005714
   104  H   -0.047640
   105  H    0.010423
   106  H    0.007517
   107  H   -0.010269
   108  H   -0.021193
   109  H   -0.044762
   110  H   -0.036968
   111  H   -0.035533
   112  H   -0.017583
   113  H   -0.025950
   114  H   -0.036378
   115  H   -0.013404
   116  H   -0.028403
   117  H   -0.014133
   118  H   -0.026925
   119  H   -0.049589
   120  H   -0.029784
   121  H   -0.015005
   122  H   -0.045264
   123  H   -0.041582
   124  H   -0.031209
   125  H   -0.013788
   126  H   -0.015737
   127  H   -0.019038
   128  H   -0.035168
   129  H   -0.027231
   130  H   -0.029096
   131  H   -0.019358
   132  H   -0.050785
   133  H   -0.044828
   134  H   -0.033943
   135  H   -0.023012
   136  H   -0.013401
   137  H   -0.012431
   138  H   -0.013862
   139  H   -0.020217
   140  H   -0.009393
 Sum of Mulliken charges =  -0.00000

 Dipole moment (field-independent basis, Debye):
    X=              3.6567    Y=              1.6092    Z=             -3.1365  Tot=              5.0792
 Quadrupole moment (field-independent basis, Debye-Ang):
   XX=           -380.3042   YY=           -429.5890   ZZ=           -409.2043
   XY=            -16.3100   XZ=              5.1001   YZ=             11.6874

 Normal termination of Gaussian 16 at Fri Apr 29 07:46:52 2022.
