 Gaussian 16, Revision A.03,
 Gaussian 16:  ES64L-G16RevA.03 25-Dec-2016

 -----------------------------------
 #p cam-b3lyp/Def2SVP td=(nstates=5)
 -----------------------------------

 ----------------------------------------------------
 step_1_chromophore_6 TDDFT with cam-b3lyp functional
 ----------------------------------------------------
 Symbolic Z-matrix:
 Charge =  0 Multiplicity = 1

                         Standard orientation:
 ---------------------------------------------------------------------
 Center     Atomic      Atomic             Coordinates (Angstroms)
 Number     Number       Type             X           Y           Z
 ---------------------------------------------------------------------
      1         12           0       -5.601503    1.079346   -0.239005
      2          6           0       -4.507644   -2.306886    0.196743
      3          6           0       -2.320278    1.930439   -0.872047
      4          6           0       -6.526202    4.204572   -0.008570
      5          6           0       -8.773491   -0.005083    0.640164
      6          7           0       -3.537035   -0.055680   -0.051975
      7          6           0       -3.439059   -1.419003    0.017787
      8          6           0       -1.999795   -1.854807   -0.366912
      9          6           0       -1.261003   -0.481783   -0.657259
     10          6           0       -2.407941    0.583373   -0.509132
     11          6           0       -0.029889   -0.092436    0.264674
     12          6           0       -1.903621   -2.820249   -1.578309
     13          6           0       -0.993218   -3.990605   -1.462174
     14          6           0        0.174076   -4.083899   -0.406754
     15          8           0        0.014036   -4.147992    0.797319
     16          8           0        1.452305   -3.830347   -0.899187
     17          7           0       -4.562406    2.898126   -0.405802
     18          6           0       -3.237553    3.073268   -0.804661
     19          6           0       -2.930594    4.516451   -0.814436
     20          6           0       -4.207510    5.183529   -0.671224
     21          6           0       -5.165024    4.102279   -0.341771
     22          6           0       -1.578763    5.129593   -1.021380
     23          6           0       -4.588921    6.679252   -0.772116
     24          8           0       -5.749077    7.113003   -0.933951
     25          6           0       -3.487146    7.657916   -0.852020
     26          7           0       -7.333313    1.919148    0.292716
     27          6           0       -7.428952    3.291249    0.369813
     28          6           0       -8.905117    3.741495    0.550503
     29          6           0       -9.662729    2.350443    0.383494
     30          6           0       -8.528298    1.341317    0.424224
     31          6           0       -9.293647    4.519130    1.873606
     32          6           0      -10.509232    2.169640   -0.866541
     33          6           0      -12.027883    2.032092   -0.630213
     34          7           0       -6.538856   -0.780455    0.123431
     35          6           0       -7.833140   -1.053517    0.498138
     36          6           0       -7.985313   -2.489275    0.767795
     37          6           0       -6.710192   -2.998638    0.597536
     38          6           0       -5.865199   -1.934572    0.210693
     39          6           0       -9.197178   -3.242409    1.207662
     40          6           0       -5.995388   -4.223512    0.635539
     41          8           0       -6.371090   -5.420325    0.790488
     42          6           0       -4.593328   -3.853259    0.394893
     43          6           0       -3.715908   -4.407649    1.484476
     44          8           0       -3.688449   -4.024804    2.603989
     45          8           0       -2.917674   -5.352406    0.987762
     46          6           0       -2.228239   -6.224393    1.877044
     47          6           0        2.475581   -3.473158    0.093733
     48          6           0        3.734169   -2.958722   -0.639177
     49          6           0        4.740029   -3.694417   -1.089903
     50          6           0        4.820465   -5.189971   -0.965622
     51          6           0        5.897704   -3.033370   -1.750683
     52          6           0        6.798601   -2.196887   -0.966700
     53          6           0        8.294428   -2.110590   -1.554227
     54          6           0        8.762004   -0.627422   -1.417074
     55          6           0        8.206567    0.179380   -2.563311
     56          6           0       10.342127   -0.540673   -1.284801
     57          6           0       10.845936   -0.443740    0.176383
     58          6           0       12.354417   -0.928460    0.211308
     59          6           0       13.320838    0.179065   -0.272609
     60          6           0       14.078815   -0.354470   -1.494948
     61          6           0       14.360973    0.583931    0.847421
     62          6           0       13.922662    1.844053    1.666311
     63          6           0       15.030871    2.934439    1.700348
     64          6           0       14.437310    4.361189    1.777602
     65          6           0       13.879508    4.575404    3.169609
     66          6           0       15.520371    5.409748    1.416681
     67          1           0       -1.307855    2.288622   -1.070750
     68          1           0       -6.987108    5.193226    0.057350
     69          1           0       -9.756634   -0.322628    0.991475
     70          1           0       -1.594596   -2.351111    0.515680
     71          1           0       -0.913783   -0.458879   -1.689786
     72          1           0        0.314713   -0.876189    0.938691
     73          1           0       -0.372890    0.708066    0.921768
     74          1           0        0.794357    0.286268   -0.340490
     75          1           0       -1.557715   -2.326381   -2.487105
     76          1           0       -2.859696   -3.279300   -1.828243
     77          1           0       -0.428197   -4.109321   -2.387203
     78          1           0       -1.618475   -4.872065   -1.322832
     79          1           0       -1.357203    5.803628   -0.194207
     80          1           0       -1.645990    5.712250   -1.940130
     81          1           0       -0.828040    4.375312   -1.259389
     82          1           0       -2.926846    7.596681    0.080992
     83          1           0       -3.971066    8.634147   -0.869617
     84          1           0       -2.926109    7.569090   -1.781918
     85          1           0       -9.126408    4.359102   -0.320538
     86          1           0      -10.319535    2.246931    1.247145
     87          1           0       -8.415193    4.645955    2.505312
     88          1           0      -10.144646    4.079260    2.395032
     89          1           0       -9.674060    5.494744    1.570588
     90          1           0      -10.179004    1.409678   -1.574854
     91          1           0      -10.407051    3.086671   -1.445855
     92          1           0      -12.548355    1.259851   -1.196300
     93          1           0      -12.491296    2.912634   -1.075990
     94          1           0      -12.329851    1.883717    0.405682
     95          1           0      -10.120771   -2.689806    1.032936
     96          1           0       -9.203472   -3.337476    2.293394
     97          1           0       -9.111075   -4.240922    0.779289
     98          1           0       -4.327214   -4.305920   -0.559933
     99          1           0       -2.978078   -6.913962    2.267334
    100          1           0       -1.870062   -5.684236    2.753550
    101          1           0       -1.480955   -6.816519    1.348122
    102          1           0        2.722928   -4.342443    0.703628
    103          1           0        2.121182   -2.612660    0.661013
    104          1           0        3.784218   -1.905423   -0.916026
    105          1           0        3.775228   -5.497167   -0.946478
    106          1           0        5.340393   -5.487033   -0.055016
    107          1           0        5.413410   -5.512542   -1.821338
    108          1           0        5.369724   -2.418342   -2.479286
    109          1           0        6.447232   -3.775043   -2.329778
    110          1           0        6.709369   -2.474357    0.083358
    111          1           0        6.361897   -1.201938   -0.888712
    112          1           0        8.394493   -2.403375   -2.600014
    113          1           0        8.862066   -2.763859   -0.890517
    114          1           0        8.481866   -0.204338   -0.452835
    115          1           0        7.806349    1.129498   -2.209771
    116          1           0        7.381410   -0.382423   -2.999260
    117          1           0        8.942631    0.294249   -3.358821
    118          1           0       10.852828    0.137381   -1.967686
    119          1           0       10.677992   -1.550023   -1.521301
    120          1           0       10.161365   -1.094346    0.719407
    121          1           0       10.828357    0.606480    0.466038
    122          1           0       12.493837   -1.791481   -0.438352
    123          1           0       12.528566   -1.324528    1.212070
    124          1           0       12.693688    1.021173   -0.565510
    125          1           0       14.879473   -1.042001   -1.222130
    126          1           0       14.492939    0.496344   -2.036634
    127          1           0       13.359204   -0.910456   -2.094904
    128          1           0       15.269422    0.922519    0.348960
    129          1           0       14.499516   -0.263788    1.518933
    130          1           0       13.864600    1.459482    2.684449
    131          1           0       12.935810    2.200701    1.369563
    132          1           0       15.688093    2.959268    0.831247
    133          1           0       15.841667    2.695257    2.389442
    134          1           0       13.608624    4.267993    1.076267
    135          1           0       13.056472    5.224158    2.868673
    136          1           0       14.473100    5.098403    3.919689
    137          1           0       13.521450    3.661387    3.643833
    138          1           0       15.852744    5.863078    2.351204
    139          1           0       14.975717    6.170051    0.856224
    140          1           0       16.338863    5.035531    0.801646
 ---------------------------------------------------------------------

 SCF Done:  E(RCAM-B3LYP) =  -3007.16692034     A.U. after   17 cycles

 Excitation energies and oscillator strengths:

 Excited State   1:      Singlet-A      1.7217 eV  720.11 nm  f=0.4110  <S**2>=0.000
     245 -> 248        0.17611
     246 -> 247        0.68708
     245 <- 248        0.10588
 This state for optimization and/or second-order correction.
 Total Energy, E(TD-HF/TD-DFT) =  -3007.10364787
 Copying the excited state density for this state as the 1-particle RhoCI density.

 Excited State   2:      Singlet-A      2.2104 eV  560.92 nm  f=0.1381  <S**2>=0.000
     245 -> 247        0.65038
     246 -> 248       -0.26589

 Excited State   3:      Singlet-A      3.3717 eV  367.72 nm  f=0.0100  <S**2>=0.000
     239 -> 247        0.39039
     239 -> 249       -0.25569
     239 -> 250       -0.11632
     240 -> 247        0.32791
     240 -> 249       -0.18755
     243 -> 247        0.20237
     244 -> 247       -0.17041
     246 -> 248        0.10728

 Excited State   4:      Singlet-A      3.4289 eV  361.59 nm  f=0.0020  <S**2>=0.000
     239 -> 247        0.19891
     242 -> 247       -0.12891
     243 -> 247       -0.25453
     244 -> 247        0.57321

 Excited State   5:      Singlet-A      3.5207 eV  352.16 nm  f=0.1808  <S**2>=0.000
     239 -> 247       -0.10088
     242 -> 247        0.16731
     243 -> 247        0.34940
     244 -> 247        0.26646
     245 -> 247        0.14020
     246 -> 248        0.46449

 The electronic state is 1-A.
 Alpha  occ. eigenvalues --  -46.88831 -19.24550 -19.24217 -19.20186 -19.18958
 Alpha  occ. eigenvalues --  -19.18847 -19.18479 -14.41981 -14.41536 -14.39599
 Alpha  occ. eigenvalues --  -14.39479 -10.39772 -10.38401 -10.34893 -10.34518
 Alpha  occ. eigenvalues --  -10.32268 -10.31682 -10.30959 -10.30901 -10.30473
 Alpha  occ. eigenvalues --  -10.30414 -10.30063 -10.29608 -10.29454 -10.29196
 Alpha  occ. eigenvalues --  -10.28661 -10.28661 -10.28315 -10.28243 -10.27980
 Alpha  occ. eigenvalues --  -10.27936 -10.27676 -10.27498 -10.27470 -10.27443
 Alpha  occ. eigenvalues --  -10.27121 -10.26967 -10.26949 -10.26657 -10.26651
 Alpha  occ. eigenvalues --  -10.26370 -10.26173 -10.26150 -10.25981 -10.25858
 Alpha  occ. eigenvalues --  -10.25826 -10.25785 -10.25561 -10.25532 -10.25456
 Alpha  occ. eigenvalues --  -10.25448 -10.25396 -10.25308 -10.25252 -10.25098
 Alpha  occ. eigenvalues --  -10.25080 -10.24949 -10.24746 -10.24709 -10.24646
 Alpha  occ. eigenvalues --  -10.24630 -10.24569 -10.24474 -10.24306 -10.24137
 Alpha  occ. eigenvalues --  -10.23955  -3.17409  -1.92291  -1.91879  -1.91708
 Alpha  occ. eigenvalues --   -1.17822  -1.16088  -1.08969  -1.08241  -1.07881
 Alpha  occ. eigenvalues --   -1.07393  -1.04738  -1.03685  -1.02464  -1.01708
 Alpha  occ. eigenvalues --   -0.93401  -0.91675  -0.89890  -0.89704  -0.89049
 Alpha  occ. eigenvalues --   -0.88962  -0.88297  -0.87762  -0.87657  -0.86811
 Alpha  occ. eigenvalues --   -0.86223  -0.84966  -0.84422  -0.83830  -0.83008
 Alpha  occ. eigenvalues --   -0.82650  -0.82051  -0.81543  -0.80916  -0.80450
 Alpha  occ. eigenvalues --   -0.80212  -0.78335  -0.77622  -0.77437  -0.76448
 Alpha  occ. eigenvalues --   -0.76148  -0.75544  -0.75323  -0.74572  -0.73962
 Alpha  occ. eigenvalues --   -0.73295  -0.72987  -0.71417  -0.70376  -0.69264
 Alpha  occ. eigenvalues --   -0.68850  -0.68087  -0.66994  -0.66561  -0.65932
 Alpha  occ. eigenvalues --   -0.65522  -0.65396  -0.64778  -0.64225  -0.63814
 Alpha  occ. eigenvalues --   -0.63613  -0.62783  -0.62738  -0.62445  -0.60096
 Alpha  occ. eigenvalues --   -0.59851  -0.59395  -0.59047  -0.58867  -0.58340
 Alpha  occ. eigenvalues --   -0.57811  -0.56826  -0.56199  -0.56078  -0.55713
 Alpha  occ. eigenvalues --   -0.55114  -0.54756  -0.54383  -0.53948  -0.53929
 Alpha  occ. eigenvalues --   -0.53627  -0.53515  -0.53150  -0.52894  -0.52821
 Alpha  occ. eigenvalues --   -0.52671  -0.52575  -0.52288  -0.51800  -0.51546
 Alpha  occ. eigenvalues --   -0.51522  -0.51394  -0.51242  -0.51127  -0.50998
 Alpha  occ. eigenvalues --   -0.50548  -0.50061  -0.49966  -0.49846  -0.49644
 Alpha  occ. eigenvalues --   -0.49484  -0.49278  -0.49101  -0.48987  -0.48721
 Alpha  occ. eigenvalues --   -0.48670  -0.48453  -0.48268  -0.48155  -0.47645
 Alpha  occ. eigenvalues --   -0.47436  -0.47330  -0.46952  -0.46671  -0.46652
 Alpha  occ. eigenvalues --   -0.46594  -0.46107  -0.46035  -0.45969  -0.45902
 Alpha  occ. eigenvalues --   -0.45684  -0.45399  -0.45312  -0.45130  -0.44856
 Alpha  occ. eigenvalues --   -0.44552  -0.44428  -0.44344  -0.44193  -0.44106
 Alpha  occ. eigenvalues --   -0.43619  -0.43396  -0.43332  -0.43152  -0.43015
 Alpha  occ. eigenvalues --   -0.42648  -0.42604  -0.42238  -0.42127  -0.41995
 Alpha  occ. eigenvalues --   -0.41570  -0.41457  -0.41338  -0.41299  -0.41161
 Alpha  occ. eigenvalues --   -0.40965  -0.40840  -0.40214  -0.40019  -0.39951
 Alpha  occ. eigenvalues --   -0.39610  -0.39568  -0.39461  -0.38891  -0.38730
 Alpha  occ. eigenvalues --   -0.38129  -0.37971  -0.37811  -0.37553  -0.37216
 Alpha  occ. eigenvalues --   -0.36975  -0.36740  -0.36577  -0.36343  -0.35855
 Alpha  occ. eigenvalues --   -0.35822  -0.35704  -0.35149  -0.34214  -0.34087
 Alpha  occ. eigenvalues --   -0.33871  -0.33718  -0.32786  -0.31423  -0.31309
 Alpha  occ. eigenvalues --   -0.30690  -0.30568  -0.30473  -0.29401  -0.24024
 Alpha  occ. eigenvalues --   -0.21224
 Alpha virt. eigenvalues --   -0.08841  -0.01375  -0.00063   0.01993   0.02439
 Alpha virt. eigenvalues --    0.03456   0.04936   0.06179   0.06820   0.07105
 Alpha virt. eigenvalues --    0.07605   0.08664   0.09189   0.09323   0.09481

 Mulliken charges:
               1
     1  Mg   0.831044
     2  C   -0.005150
     3  C   -0.023116
     4  C   -0.061463
     5  C   -0.094372
     6  N   -0.253369
     7  C   -0.045430
     8  C   -0.021240
     9  C   -0.062194
    10  C    0.020227
    11  C    0.047647
    12  C    0.085709
    13  C    0.043850
    14  C    0.159418
    15  O   -0.238139
    16  O   -0.347772
    17  N   -0.364037
    18  C    0.090673
    19  C   -0.170754
    20  C   -0.041688
    21  C    0.129091
    22  C    0.140754
    23  C    0.009499
    24  O   -0.230003
    25  C    0.054965
    26  N   -0.351597
    27  C    0.076837
    28  C   -0.074870
    29  C   -0.035882
    30  C    0.084838
    31  C    0.075337
    32  C    0.058437
    33  C   -0.010473
    34  N   -0.321472
    35  C    0.100813
    36  C   -0.161516
    37  C   -0.006349
    38  C    0.104605
    39  C    0.130371
    40  C    0.044266
    41  O   -0.215414
    42  C    0.040799
    43  C    0.161909
    44  O   -0.174448
    45  O   -0.303626
    46  C    0.191270
    47  C    0.296318
    48  C   -0.139201
    49  C   -0.204421
    50  C    0.095848
    51  C    0.083170
    52  C    0.034288
    53  C    0.057831
    54  C   -0.150524
    55  C    0.079082
    56  C    0.016599
    57  C   -0.002275
    58  C    0.058770
    59  C   -0.153654
    60  C    0.050950
    61  C    0.071125
    62  C    0.023069
    63  C   -0.003337
    64  C   -0.147524
    65  C    0.040042
    66  C    0.066408
    67  H   -0.039248
    68  H   -0.005822
    69  H   -0.029217
    70  H    0.045418
    71  H    0.015279
    72  H    0.029565
    73  H    0.019419
    74  H    0.017629
    75  H    0.010773
    76  H    0.008073
    77  H    0.017769
    78  H    0.035477
    79  H    0.036132
    80  H    0.019553
    81  H    0.010961
    82  H    0.032205
    83  H    0.020237
    84  H    0.044759
    85  H    0.021184
    86  H    0.000802
    87  H    0.029769
    88  H    0.013995
    89  H    0.016239
    90  H    0.016317
    91  H   -0.002499
    92  H    0.007180
    93  H    0.010426
    94  H    0.017296
    95  H    0.008471
    96  H    0.034522
    97  H    0.049501
    98  H    0.036109
    99  H    0.020063
   100  H    0.043936
   101  H    0.035462
   102  H    0.026992
   103  H    0.021074
   104  H   -0.015436
   105  H    0.033856
   106  H    0.031712
   107  H    0.013775
   108  H    0.008559
   109  H   -0.014346
   110  H   -0.006194
   111  H   -0.008260
   112  H    0.011190
   113  H    0.002940
   114  H   -0.003690
   115  H    0.011482
   116  H   -0.005106
   117  H    0.010345
   118  H   -0.000752
   119  H   -0.021924
   120  H   -0.001728
   121  H    0.009351
   122  H   -0.014520
   123  H   -0.010862
   124  H   -0.001488
   125  H    0.010387
   126  H    0.008956
   127  H    0.003356
   128  H   -0.006067
   129  H    0.000681
   130  H   -0.000577
   131  H    0.004829
   132  H   -0.023225
   133  H   -0.014866
   134  H   -0.002546
   135  H    0.001755
   136  H    0.011097
   137  H    0.011596
   138  H    0.009737
   139  H    0.004773
   140  H    0.014857
 Sum of Mulliken charges =  -0.00000

 Dipole moment (field-independent basis, Debye):
    X=              3.4178    Y=              1.1258    Z=             -3.1923  Tot=              4.8104
 Quadrupole moment (field-independent basis, Debye-Ang):
   XX=           -374.8833   YY=           -427.1403   ZZ=           -409.4915
   XY=            -12.8383   XZ=              4.3867   YZ=             11.8619

 Normal termination of Gaussian 16 at Fri Apr 29 06:29:58 2022.
