 Gaussian 16, Revision A.03,
 Gaussian 16:  ES64L-G16RevA.03 25-Dec-2016

 ---------------------------------
 #p PBE1PBE/Def2SVP td=(nstates=5)
 ---------------------------------

 --------------------------------------------------
 step_1_chromophore_6 TDDFT with PBE1PBE functional
 --------------------------------------------------
 Symbolic Z-matrix:
 Charge =  0 Multiplicity = 1

                         Standard orientation:
 ---------------------------------------------------------------------
 Center     Atomic      Atomic             Coordinates (Angstroms)
 Number     Number       Type             X           Y           Z
 ---------------------------------------------------------------------
      1         12           0       -5.601503    1.079346   -0.239005
      2          6           0       -4.507644   -2.306886    0.196743
      3          6           0       -2.320278    1.930439   -0.872047
      4          6           0       -6.526202    4.204572   -0.008570
      5          6           0       -8.773491   -0.005083    0.640164
      6          7           0       -3.537035   -0.055680   -0.051975
      7          6           0       -3.439059   -1.419003    0.017787
      8          6           0       -1.999795   -1.854807   -0.366912
      9          6           0       -1.261003   -0.481783   -0.657259
     10          6           0       -2.407941    0.583373   -0.509132
     11          6           0       -0.029889   -0.092436    0.264674
     12          6           0       -1.903621   -2.820249   -1.578309
     13          6           0       -0.993218   -3.990605   -1.462174
     14          6           0        0.174076   -4.083899   -0.406754
     15          8           0        0.014036   -4.147992    0.797319
     16          8           0        1.452305   -3.830347   -0.899187
     17          7           0       -4.562406    2.898126   -0.405802
     18          6           0       -3.237553    3.073268   -0.804661
     19          6           0       -2.930594    4.516451   -0.814436
     20          6           0       -4.207510    5.183529   -0.671224
     21          6           0       -5.165024    4.102279   -0.341771
     22          6           0       -1.578763    5.129593   -1.021380
     23          6           0       -4.588921    6.679252   -0.772116
     24          8           0       -5.749077    7.113003   -0.933951
     25          6           0       -3.487146    7.657916   -0.852020
     26          7           0       -7.333313    1.919148    0.292716
     27          6           0       -7.428952    3.291249    0.369813
     28          6           0       -8.905117    3.741495    0.550503
     29          6           0       -9.662729    2.350443    0.383494
     30          6           0       -8.528298    1.341317    0.424224
     31          6           0       -9.293647    4.519130    1.873606
     32          6           0      -10.509232    2.169640   -0.866541
     33          6           0      -12.027883    2.032092   -0.630213
     34          7           0       -6.538856   -0.780455    0.123431
     35          6           0       -7.833140   -1.053517    0.498138
     36          6           0       -7.985313   -2.489275    0.767795
     37          6           0       -6.710192   -2.998638    0.597536
     38          6           0       -5.865199   -1.934572    0.210693
     39          6           0       -9.197178   -3.242409    1.207662
     40          6           0       -5.995388   -4.223512    0.635539
     41          8           0       -6.371090   -5.420325    0.790488
     42          6           0       -4.593328   -3.853259    0.394893
     43          6           0       -3.715908   -4.407649    1.484476
     44          8           0       -3.688449   -4.024804    2.603989
     45          8           0       -2.917674   -5.352406    0.987762
     46          6           0       -2.228239   -6.224393    1.877044
     47          6           0        2.475581   -3.473158    0.093733
     48          6           0        3.734169   -2.958722   -0.639177
     49          6           0        4.740029   -3.694417   -1.089903
     50          6           0        4.820465   -5.189971   -0.965622
     51          6           0        5.897704   -3.033370   -1.750683
     52          6           0        6.798601   -2.196887   -0.966700
     53          6           0        8.294428   -2.110590   -1.554227
     54          6           0        8.762004   -0.627422   -1.417074
     55          6           0        8.206567    0.179380   -2.563311
     56          6           0       10.342127   -0.540673   -1.284801
     57          6           0       10.845936   -0.443740    0.176383
     58          6           0       12.354417   -0.928460    0.211308
     59          6           0       13.320838    0.179065   -0.272609
     60          6           0       14.078815   -0.354470   -1.494948
     61          6           0       14.360973    0.583931    0.847421
     62          6           0       13.922662    1.844053    1.666311
     63          6           0       15.030871    2.934439    1.700348
     64          6           0       14.437310    4.361189    1.777602
     65          6           0       13.879508    4.575404    3.169609
     66          6           0       15.520371    5.409748    1.416681
     67          1           0       -1.307855    2.288622   -1.070750
     68          1           0       -6.987108    5.193226    0.057350
     69          1           0       -9.756634   -0.322628    0.991475
     70          1           0       -1.594596   -2.351111    0.515680
     71          1           0       -0.913783   -0.458879   -1.689786
     72          1           0        0.314713   -0.876189    0.938691
     73          1           0       -0.372890    0.708066    0.921768
     74          1           0        0.794357    0.286268   -0.340490
     75          1           0       -1.557715   -2.326381   -2.487105
     76          1           0       -2.859696   -3.279300   -1.828243
     77          1           0       -0.428197   -4.109321   -2.387203
     78          1           0       -1.618475   -4.872065   -1.322832
     79          1           0       -1.357203    5.803628   -0.194207
     80          1           0       -1.645990    5.712250   -1.940130
     81          1           0       -0.828040    4.375312   -1.259389
     82          1           0       -2.926846    7.596681    0.080992
     83          1           0       -3.971066    8.634147   -0.869617
     84          1           0       -2.926109    7.569090   -1.781918
     85          1           0       -9.126408    4.359102   -0.320538
     86          1           0      -10.319535    2.246931    1.247145
     87          1           0       -8.415193    4.645955    2.505312
     88          1           0      -10.144646    4.079260    2.395032
     89          1           0       -9.674060    5.494744    1.570588
     90          1           0      -10.179004    1.409678   -1.574854
     91          1           0      -10.407051    3.086671   -1.445855
     92          1           0      -12.548355    1.259851   -1.196300
     93          1           0      -12.491296    2.912634   -1.075990
     94          1           0      -12.329851    1.883717    0.405682
     95          1           0      -10.120771   -2.689806    1.032936
     96          1           0       -9.203472   -3.337476    2.293394
     97          1           0       -9.111075   -4.240922    0.779289
     98          1           0       -4.327214   -4.305920   -0.559933
     99          1           0       -2.978078   -6.913962    2.267334
    100          1           0       -1.870062   -5.684236    2.753550
    101          1           0       -1.480955   -6.816519    1.348122
    102          1           0        2.722928   -4.342443    0.703628
    103          1           0        2.121182   -2.612660    0.661013
    104          1           0        3.784218   -1.905423   -0.916026
    105          1           0        3.775228   -5.497167   -0.946478
    106          1           0        5.340393   -5.487033   -0.055016
    107          1           0        5.413410   -5.512542   -1.821338
    108          1           0        5.369724   -2.418342   -2.479286
    109          1           0        6.447232   -3.775043   -2.329778
    110          1           0        6.709369   -2.474357    0.083358
    111          1           0        6.361897   -1.201938   -0.888712
    112          1           0        8.394493   -2.403375   -2.600014
    113          1           0        8.862066   -2.763859   -0.890517
    114          1           0        8.481866   -0.204338   -0.452835
    115          1           0        7.806349    1.129498   -2.209771
    116          1           0        7.381410   -0.382423   -2.999260
    117          1           0        8.942631    0.294249   -3.358821
    118          1           0       10.852828    0.137381   -1.967686
    119          1           0       10.677992   -1.550023   -1.521301
    120          1           0       10.161365   -1.094346    0.719407
    121          1           0       10.828357    0.606480    0.466038
    122          1           0       12.493837   -1.791481   -0.438352
    123          1           0       12.528566   -1.324528    1.212070
    124          1           0       12.693688    1.021173   -0.565510
    125          1           0       14.879473   -1.042001   -1.222130
    126          1           0       14.492939    0.496344   -2.036634
    127          1           0       13.359204   -0.910456   -2.094904
    128          1           0       15.269422    0.922519    0.348960
    129          1           0       14.499516   -0.263788    1.518933
    130          1           0       13.864600    1.459482    2.684449
    131          1           0       12.935810    2.200701    1.369563
    132          1           0       15.688093    2.959268    0.831247
    133          1           0       15.841667    2.695257    2.389442
    134          1           0       13.608624    4.267993    1.076267
    135          1           0       13.056472    5.224158    2.868673
    136          1           0       14.473100    5.098403    3.919689
    137          1           0       13.521450    3.661387    3.643833
    138          1           0       15.852744    5.863078    2.351204
    139          1           0       14.975717    6.170051    0.856224
    140          1           0       16.338863    5.035531    0.801646
 ---------------------------------------------------------------------

 SCF Done:  E(RPBE1PBE) =  -3005.35398091     A.U. after   16 cycles

 Excitation energies and oscillator strengths:

 Excited State   1:      Singlet-A      1.8639 eV  665.19 nm  f=0.3954  <S**2>=0.000
     245 -> 248       -0.17261
     246 -> 247        0.69411
     246 <- 247       -0.11074
 This state for optimization and/or second-order correction.
 Total Energy, E(TD-HF/TD-DFT) =  -3005.28548427
 Copying the excited state density for this state as the 1-particle RhoCI density.

 Excited State   2:      Singlet-A      2.2040 eV  562.54 nm  f=0.1304  <S**2>=0.000
     245 -> 247        0.66089
     246 -> 248        0.23992

 Excited State   3:      Singlet-A      2.9525 eV  419.93 nm  f=0.0005  <S**2>=0.000
     240 -> 247       -0.20251
     241 -> 247        0.53816
     241 -> 249       -0.16296
     242 -> 247       -0.31107
     244 -> 247       -0.10382

 Excited State   4:      Singlet-A      3.0559 eV  405.72 nm  f=0.0034  <S**2>=0.000
     240 -> 247       -0.13772
     244 -> 247        0.68076

 Excited State   5:      Singlet-A      3.1092 eV  398.77 nm  f=0.0000  <S**2>=0.000
     243 -> 247        0.66483
     243 -> 249        0.15383
     243 -> 250        0.11659

 The electronic state is 1-A.
 Alpha  occ. eigenvalues --  -46.92220 -19.25206 -19.24749 -19.20396 -19.19036
 Alpha  occ. eigenvalues --  -19.18921 -19.18839 -14.41454 -14.41069 -14.39259
 Alpha  occ. eigenvalues --  -14.39113 -10.36794 -10.35261 -10.32231 -10.31380
 Alpha  occ. eigenvalues --  -10.29660 -10.29229 -10.28825 -10.28464 -10.28166
 Alpha  occ. eigenvalues --  -10.27864 -10.27545 -10.27490 -10.27385 -10.26656
 Alpha  occ. eigenvalues --  -10.26604 -10.26177 -10.25980 -10.25946 -10.25743
 Alpha  occ. eigenvalues --  -10.25392 -10.25345 -10.25218 -10.25095 -10.25028
 Alpha  occ. eigenvalues --  -10.25022 -10.24921 -10.24557 -10.24308 -10.24202
 Alpha  occ. eigenvalues --  -10.23803 -10.23746 -10.23578 -10.23517 -10.23497
 Alpha  occ. eigenvalues --  -10.23364 -10.23290 -10.23248 -10.23117 -10.23031
 Alpha  occ. eigenvalues --  -10.22962 -10.22889 -10.22842 -10.22833 -10.22807
 Alpha  occ. eigenvalues --  -10.22489 -10.22469 -10.22318 -10.22307 -10.22263
 Alpha  occ. eigenvalues --  -10.22080 -10.22025 -10.21970 -10.21718 -10.21717
 Alpha  occ. eigenvalues --  -10.21341  -3.14377  -1.87200  -1.86766  -1.86598
 Alpha  occ. eigenvalues --   -1.12510  -1.10849  -1.03683  -1.03154  -1.02337
 Alpha  occ. eigenvalues --   -1.02225  -0.99239  -0.98269  -0.97163  -0.96462
 Alpha  occ. eigenvalues --   -0.87603  -0.85851  -0.83997  -0.83851  -0.83385
 Alpha  occ. eigenvalues --   -0.83075  -0.82625  -0.81888  -0.81809  -0.81220
 Alpha  occ. eigenvalues --   -0.80555  -0.79205  -0.78656  -0.78073  -0.77278
 Alpha  occ. eigenvalues --   -0.76844  -0.76329  -0.75815  -0.75134  -0.74784
 Alpha  occ. eigenvalues --   -0.74415  -0.72651  -0.71948  -0.71728  -0.70679
 Alpha  occ. eigenvalues --   -0.70329  -0.69717  -0.69637  -0.68724  -0.68167
 Alpha  occ. eigenvalues --   -0.67621  -0.67319  -0.65886  -0.64670  -0.63578
 Alpha  occ. eigenvalues --   -0.63262  -0.62335  -0.61230  -0.61067  -0.60340
 Alpha  occ. eigenvalues --   -0.59874  -0.59730  -0.59359  -0.58769  -0.57944
 Alpha  occ. eigenvalues --   -0.57780  -0.57247  -0.56966  -0.56916  -0.54531
 Alpha  occ. eigenvalues --   -0.54413  -0.53956  -0.53467  -0.53200  -0.52890
 Alpha  occ. eigenvalues --   -0.52393  -0.51167  -0.50754  -0.50474  -0.50306
 Alpha  occ. eigenvalues --   -0.49581  -0.49291  -0.48812  -0.48437  -0.48374
 Alpha  occ. eigenvalues --   -0.48150  -0.48057  -0.47590  -0.47486  -0.47315
 Alpha  occ. eigenvalues --   -0.47180  -0.47135  -0.46877  -0.46330  -0.46118
 Alpha  occ. eigenvalues --   -0.46105  -0.45901  -0.45755  -0.45540  -0.45533
 Alpha  occ. eigenvalues --   -0.45206  -0.44648  -0.44564  -0.44474  -0.44179
 Alpha  occ. eigenvalues --   -0.44070  -0.43783  -0.43655  -0.43637  -0.43285
 Alpha  occ. eigenvalues --   -0.43261  -0.43179  -0.42915  -0.42763  -0.42338
 Alpha  occ. eigenvalues --   -0.42126  -0.42005  -0.41614  -0.41396  -0.41293
 Alpha  occ. eigenvalues --   -0.41239  -0.40862  -0.40752  -0.40642  -0.40483
 Alpha  occ. eigenvalues --   -0.40327  -0.40190  -0.39962  -0.39732  -0.39546
 Alpha  occ. eigenvalues --   -0.39315  -0.39128  -0.38996  -0.38867  -0.38801
 Alpha  occ. eigenvalues --   -0.38328  -0.38251  -0.38121  -0.38004  -0.37881
 Alpha  occ. eigenvalues --   -0.37548  -0.37431  -0.37007  -0.36885  -0.36709
 Alpha  occ. eigenvalues --   -0.36445  -0.36313  -0.36133  -0.36041  -0.35902
 Alpha  occ. eigenvalues --   -0.35794  -0.35707  -0.35134  -0.34877  -0.34751
 Alpha  occ. eigenvalues --   -0.34559  -0.34382  -0.34267  -0.33793  -0.33514
 Alpha  occ. eigenvalues --   -0.33147  -0.32806  -0.32766  -0.32414  -0.32093
 Alpha  occ. eigenvalues --   -0.31971  -0.31593  -0.31510  -0.31208  -0.30854
 Alpha  occ. eigenvalues --   -0.30703  -0.30502  -0.30112  -0.29313  -0.28990
 Alpha  occ. eigenvalues --   -0.28748  -0.28660  -0.28274  -0.26948  -0.25983
 Alpha  occ. eigenvalues --   -0.25866  -0.25826  -0.25610  -0.25239  -0.20911
 Alpha  occ. eigenvalues --   -0.18839
 Alpha virt. eigenvalues --   -0.11276  -0.04944  -0.04226  -0.02298  -0.01125
 Alpha virt. eigenvalues --   -0.00399   0.00502   0.01733   0.02261   0.03148
 Alpha virt. eigenvalues --    0.04145   0.04683   0.05518   0.06023   0.06110

 Mulliken charges:
               1
     1  Mg   0.977237
     2  C   -0.017345
     3  C   -0.032749
     4  C   -0.059485
     5  C   -0.074739
     6  N   -0.355208
     7  C    0.037838
     8  C   -0.094542
     9  C   -0.132835
    10  C    0.055226
    11  C   -0.011059
    12  C    0.032954
    13  C   -0.027217
    14  C    0.221615
    15  O   -0.268239
    16  O   -0.377701
    17  N   -0.476315
    18  C    0.127776
    19  C   -0.199405
    20  C   -0.081704
    21  C    0.161677
    22  C    0.076448
    23  C    0.059505
    24  O   -0.263772
    25  C   -0.021160
    26  N   -0.462402
    27  C    0.117458
    28  C   -0.152035
    29  C   -0.109989
    30  C    0.111653
    31  C    0.017800
    32  C    0.003510
    33  C   -0.080590
    34  N   -0.448897
    35  C    0.116024
    36  C   -0.174462
    37  C   -0.054530
    38  C    0.160191
    39  C    0.078910
    40  C    0.128649
    41  O   -0.265032
    42  C   -0.070399
    43  C    0.261149
    44  O   -0.213628
    45  O   -0.340490
    46  C    0.136937
    47  C    0.246005
    48  C   -0.149034
    49  C   -0.240415
    50  C    0.030386
    51  C    0.017624
    52  C   -0.023556
    53  C   -0.005923
    54  C   -0.236874
    55  C    0.020165
    56  C   -0.028505
    57  C   -0.078552
    58  C    0.009937
    59  C   -0.237355
    60  C   -0.013774
    61  C    0.018178
    62  C   -0.040596
    63  C   -0.051112
    64  C   -0.248475
    65  C   -0.016144
    66  C    0.005226
    67  H   -0.004853
    68  H    0.026203
    69  H    0.003143
    70  H    0.085378
    71  H    0.051789
    72  H    0.057853
    73  H    0.047605
    74  H    0.044061
    75  H    0.041717
    76  H    0.042695
    77  H    0.049828
    78  H    0.067745
    79  H    0.064497
    80  H    0.049504
    81  H    0.039987
    82  H    0.059778
    83  H    0.049232
    84  H    0.071161
    85  H    0.057416
    86  H    0.037784
    87  H    0.056916
    88  H    0.041022
    89  H    0.043569
    90  H    0.048335
    91  H    0.030558
    92  H    0.035235
    93  H    0.037724
    94  H    0.043147
    95  H    0.034463
    96  H    0.061536
    97  H    0.075000
    98  H    0.074874
    99  H    0.043249
   100  H    0.064589
   101  H    0.056462
   102  H    0.053405
   103  H    0.051519
   104  H    0.013848
   105  H    0.062342
   106  H    0.059936
   107  H    0.041355
   108  H    0.042137
   109  H    0.017830
   110  H    0.026783
   111  H    0.023914
   112  H    0.042503
   113  H    0.036774
   114  H    0.034840
   115  H    0.039120
   116  H    0.024024
   117  H    0.037731
   118  H    0.030033
   119  H    0.012654
   120  H    0.031755
   121  H    0.044504
   122  H    0.017934
   123  H    0.021328
   124  H    0.034959
   125  H    0.038634
   126  H    0.037775
   127  H    0.031845
   128  H    0.027460
   129  H    0.032054
   130  H    0.033297
   131  H    0.034835
   132  H    0.009093
   133  H    0.017394
   134  H    0.035120
   135  H    0.030220
   136  H    0.037505
   137  H    0.039191
   138  H    0.037087
   139  H    0.033419
   140  H    0.040810
 Sum of Mulliken charges =  -0.00000

 Dipole moment (field-independent basis, Debye):
    X=              3.6298    Y=              1.6581    Z=             -3.2840  Tot=              5.1681
 Quadrupole moment (field-independent basis, Debye-Ang):
   XX=           -371.0268   YY=           -423.2562   ZZ=           -407.0982
   XY=            -16.3119   XZ=              4.3205   YZ=             11.7298

 Normal termination of Gaussian 16 at Fri Apr 29 06:53:36 2022.
