 Gaussian 16, Revision A.03,
 Gaussian 16:  ES64L-G16RevA.03 25-Dec-2016

 --------------------------------
 #p wB97XD/Def2SVP td=(nstates=5)
 --------------------------------

 -------------------------------------------------
 step_1_chromophore_6 TDDFT with wB97XD functional
 -------------------------------------------------
 Symbolic Z-matrix:
 Charge =  0 Multiplicity = 1

                         Standard orientation:
 ---------------------------------------------------------------------
 Center     Atomic      Atomic             Coordinates (Angstroms)
 Number     Number       Type             X           Y           Z
 ---------------------------------------------------------------------
      1         12           0       -5.601503    1.079346   -0.239005
      2          6           0       -4.507644   -2.306886    0.196743
      3          6           0       -2.320278    1.930439   -0.872047
      4          6           0       -6.526202    4.204572   -0.008570
      5          6           0       -8.773491   -0.005083    0.640164
      6          7           0       -3.537035   -0.055680   -0.051975
      7          6           0       -3.439059   -1.419003    0.017787
      8          6           0       -1.999795   -1.854807   -0.366912
      9          6           0       -1.261003   -0.481783   -0.657259
     10          6           0       -2.407941    0.583373   -0.509132
     11          6           0       -0.029889   -0.092436    0.264674
     12          6           0       -1.903621   -2.820249   -1.578309
     13          6           0       -0.993218   -3.990605   -1.462174
     14          6           0        0.174076   -4.083899   -0.406754
     15          8           0        0.014036   -4.147992    0.797319
     16          8           0        1.452305   -3.830347   -0.899187
     17          7           0       -4.562406    2.898126   -0.405802
     18          6           0       -3.237553    3.073268   -0.804661
     19          6           0       -2.930594    4.516451   -0.814436
     20          6           0       -4.207510    5.183529   -0.671224
     21          6           0       -5.165024    4.102279   -0.341771
     22          6           0       -1.578763    5.129593   -1.021380
     23          6           0       -4.588921    6.679252   -0.772116
     24          8           0       -5.749077    7.113003   -0.933951
     25          6           0       -3.487146    7.657916   -0.852020
     26          7           0       -7.333313    1.919148    0.292716
     27          6           0       -7.428952    3.291249    0.369813
     28          6           0       -8.905117    3.741495    0.550503
     29          6           0       -9.662729    2.350443    0.383494
     30          6           0       -8.528298    1.341317    0.424224
     31          6           0       -9.293647    4.519130    1.873606
     32          6           0      -10.509232    2.169640   -0.866541
     33          6           0      -12.027883    2.032092   -0.630213
     34          7           0       -6.538856   -0.780455    0.123431
     35          6           0       -7.833140   -1.053517    0.498138
     36          6           0       -7.985313   -2.489275    0.767795
     37          6           0       -6.710192   -2.998638    0.597536
     38          6           0       -5.865199   -1.934572    0.210693
     39          6           0       -9.197178   -3.242409    1.207662
     40          6           0       -5.995388   -4.223512    0.635539
     41          8           0       -6.371090   -5.420325    0.790488
     42          6           0       -4.593328   -3.853259    0.394893
     43          6           0       -3.715908   -4.407649    1.484476
     44          8           0       -3.688449   -4.024804    2.603989
     45          8           0       -2.917674   -5.352406    0.987762
     46          6           0       -2.228239   -6.224393    1.877044
     47          6           0        2.475581   -3.473158    0.093733
     48          6           0        3.734169   -2.958722   -0.639177
     49          6           0        4.740029   -3.694417   -1.089903
     50          6           0        4.820465   -5.189971   -0.965622
     51          6           0        5.897704   -3.033370   -1.750683
     52          6           0        6.798601   -2.196887   -0.966700
     53          6           0        8.294428   -2.110590   -1.554227
     54          6           0        8.762004   -0.627422   -1.417074
     55          6           0        8.206567    0.179380   -2.563311
     56          6           0       10.342127   -0.540673   -1.284801
     57          6           0       10.845936   -0.443740    0.176383
     58          6           0       12.354417   -0.928460    0.211308
     59          6           0       13.320838    0.179065   -0.272609
     60          6           0       14.078815   -0.354470   -1.494948
     61          6           0       14.360973    0.583931    0.847421
     62          6           0       13.922662    1.844053    1.666311
     63          6           0       15.030871    2.934439    1.700348
     64          6           0       14.437310    4.361189    1.777602
     65          6           0       13.879508    4.575404    3.169609
     66          6           0       15.520371    5.409748    1.416681
     67          1           0       -1.307855    2.288622   -1.070750
     68          1           0       -6.987108    5.193226    0.057350
     69          1           0       -9.756634   -0.322628    0.991475
     70          1           0       -1.594596   -2.351111    0.515680
     71          1           0       -0.913783   -0.458879   -1.689786
     72          1           0        0.314713   -0.876189    0.938691
     73          1           0       -0.372890    0.708066    0.921768
     74          1           0        0.794357    0.286268   -0.340490
     75          1           0       -1.557715   -2.326381   -2.487105
     76          1           0       -2.859696   -3.279300   -1.828243
     77          1           0       -0.428197   -4.109321   -2.387203
     78          1           0       -1.618475   -4.872065   -1.322832
     79          1           0       -1.357203    5.803628   -0.194207
     80          1           0       -1.645990    5.712250   -1.940130
     81          1           0       -0.828040    4.375312   -1.259389
     82          1           0       -2.926846    7.596681    0.080992
     83          1           0       -3.971066    8.634147   -0.869617
     84          1           0       -2.926109    7.569090   -1.781918
     85          1           0       -9.126408    4.359102   -0.320538
     86          1           0      -10.319535    2.246931    1.247145
     87          1           0       -8.415193    4.645955    2.505312
     88          1           0      -10.144646    4.079260    2.395032
     89          1           0       -9.674060    5.494744    1.570588
     90          1           0      -10.179004    1.409678   -1.574854
     91          1           0      -10.407051    3.086671   -1.445855
     92          1           0      -12.548355    1.259851   -1.196300
     93          1           0      -12.491296    2.912634   -1.075990
     94          1           0      -12.329851    1.883717    0.405682
     95          1           0      -10.120771   -2.689806    1.032936
     96          1           0       -9.203472   -3.337476    2.293394
     97          1           0       -9.111075   -4.240922    0.779289
     98          1           0       -4.327214   -4.305920   -0.559933
     99          1           0       -2.978078   -6.913962    2.267334
    100          1           0       -1.870062   -5.684236    2.753550
    101          1           0       -1.480955   -6.816519    1.348122
    102          1           0        2.722928   -4.342443    0.703628
    103          1           0        2.121182   -2.612660    0.661013
    104          1           0        3.784218   -1.905423   -0.916026
    105          1           0        3.775228   -5.497167   -0.946478
    106          1           0        5.340393   -5.487033   -0.055016
    107          1           0        5.413410   -5.512542   -1.821338
    108          1           0        5.369724   -2.418342   -2.479286
    109          1           0        6.447232   -3.775043   -2.329778
    110          1           0        6.709369   -2.474357    0.083358
    111          1           0        6.361897   -1.201938   -0.888712
    112          1           0        8.394493   -2.403375   -2.600014
    113          1           0        8.862066   -2.763859   -0.890517
    114          1           0        8.481866   -0.204338   -0.452835
    115          1           0        7.806349    1.129498   -2.209771
    116          1           0        7.381410   -0.382423   -2.999260
    117          1           0        8.942631    0.294249   -3.358821
    118          1           0       10.852828    0.137381   -1.967686
    119          1           0       10.677992   -1.550023   -1.521301
    120          1           0       10.161365   -1.094346    0.719407
    121          1           0       10.828357    0.606480    0.466038
    122          1           0       12.493837   -1.791481   -0.438352
    123          1           0       12.528566   -1.324528    1.212070
    124          1           0       12.693688    1.021173   -0.565510
    125          1           0       14.879473   -1.042001   -1.222130
    126          1           0       14.492939    0.496344   -2.036634
    127          1           0       13.359204   -0.910456   -2.094904
    128          1           0       15.269422    0.922519    0.348960
    129          1           0       14.499516   -0.263788    1.518933
    130          1           0       13.864600    1.459482    2.684449
    131          1           0       12.935810    2.200701    1.369563
    132          1           0       15.688093    2.959268    0.831247
    133          1           0       15.841667    2.695257    2.389442
    134          1           0       13.608624    4.267993    1.076267
    135          1           0       13.056472    5.224158    2.868673
    136          1           0       14.473100    5.098403    3.919689
    137          1           0       13.521450    3.661387    3.643833
    138          1           0       15.852744    5.863078    2.351204
    139          1           0       14.975717    6.170051    0.856224
    140          1           0       16.338863    5.035531    0.801646
 ---------------------------------------------------------------------

 SCF Done:  E(RwB97XD) =  -3007.86349663     A.U. after   19 cycles

 Excitation energies and oscillator strengths:

 Excited State   1:      Singlet-A      1.6736 eV  740.83 nm  f=0.4091  <S**2>=0.000
     245 -> 248        0.18083
     246 -> 247        0.68463
     245 <- 248        0.11395
 This state for optimization and/or second-order correction.
 Total Energy, E(TD-HF/TD-DFT) =  -3007.80199316
 Copying the excited state density for this state as the 1-particle RhoCI density.

 Excited State   2:      Singlet-A      2.1579 eV  574.57 nm  f=0.1341  <S**2>=0.000
     245 -> 247        0.64782
     246 -> 248       -0.26914

 Excited State   3:      Singlet-A      3.3757 eV  367.28 nm  f=0.0126  <S**2>=0.000
     239 -> 247       -0.13993
     239 -> 249        0.11496
     240 -> 247        0.48348
     240 -> 249       -0.31738
     240 -> 250        0.14752
     241 -> 247        0.21450
     244 -> 247       -0.11383
     246 -> 248        0.12460

 Excited State   4:      Singlet-A      3.4591 eV  358.43 nm  f=0.0172  <S**2>=0.000
     239 -> 247       -0.10505
     240 -> 247        0.20302
     240 -> 249       -0.13102
     241 -> 247       -0.41291
     243 -> 247       -0.12728
     244 -> 247        0.44990
     246 -> 248       -0.11443

 Excited State   5:      Singlet-A      3.5423 eV  350.01 nm  f=0.2333  <S**2>=0.000
     241 -> 247        0.20044
     244 -> 247        0.40229
     245 -> 247        0.15967
     246 -> 248        0.48882

 The electronic state is 1-A.
 Alpha  occ. eigenvalues --  -46.95168 -19.29779 -19.29458 -19.25094 -19.24010
 Alpha  occ. eigenvalues --  -19.23914 -19.23443 -14.46580 -14.46137 -14.44235
 Alpha  occ. eigenvalues --  -14.44018 -10.43592 -10.42265 -10.38796 -10.38603
 Alpha  occ. eigenvalues --  -10.36181 -10.35763 -10.35009 -10.34880 -10.34602
 Alpha  occ. eigenvalues --  -10.34173 -10.34020 -10.33564 -10.33374 -10.33283
 Alpha  occ. eigenvalues --  -10.32897 -10.32711 -10.32422 -10.32356 -10.32061
 Alpha  occ. eigenvalues --  -10.32037 -10.31594 -10.31537 -10.31489 -10.31455
 Alpha  occ. eigenvalues --  -10.31182 -10.30985 -10.30811 -10.30707 -10.30628
 Alpha  occ. eigenvalues --  -10.30320 -10.30144 -10.30092 -10.29819 -10.29777
 Alpha  occ. eigenvalues --  -10.29685 -10.29665 -10.29548 -10.29395 -10.29380
 Alpha  occ. eigenvalues --  -10.29340 -10.29228 -10.29224 -10.29204 -10.29190
 Alpha  occ. eigenvalues --  -10.29070 -10.28862 -10.28671 -10.28652 -10.28586
 Alpha  occ. eigenvalues --  -10.28447 -10.28417 -10.28381 -10.28146 -10.28056
 Alpha  occ. eigenvalues --  -10.27759  -3.21189  -1.94760  -1.94324  -1.94157
 Alpha  occ. eigenvalues --   -1.20031  -1.18242  -1.11192  -1.10382  -1.10175
 Alpha  occ. eigenvalues --   -1.09589  -1.06819  -1.05721  -1.04442  -1.03692
 Alpha  occ. eigenvalues --   -0.95470  -0.93492  -0.91668  -0.91537  -0.90952
 Alpha  occ. eigenvalues --   -0.90724  -0.90170  -0.89662  -0.89537  -0.88696
 Alpha  occ. eigenvalues --   -0.88141  -0.86838  -0.86311  -0.85748  -0.84878
 Alpha  occ. eigenvalues --   -0.84488  -0.83946  -0.83484  -0.82774  -0.82389
 Alpha  occ. eigenvalues --   -0.82080  -0.80282  -0.79522  -0.79365  -0.78398
 Alpha  occ. eigenvalues --   -0.78001  -0.77324  -0.77245  -0.76395  -0.75808
 Alpha  occ. eigenvalues --   -0.75238  -0.74962  -0.73395  -0.72304  -0.71227
 Alpha  occ. eigenvalues --   -0.70829  -0.69962  -0.68854  -0.68507  -0.67856
 Alpha  occ. eigenvalues --   -0.67381  -0.67351  -0.66774  -0.66225  -0.65616
 Alpha  occ. eigenvalues --   -0.65435  -0.64737  -0.64594  -0.64452  -0.62073
 Alpha  occ. eigenvalues --   -0.61869  -0.61335  -0.60983  -0.60842  -0.60311
 Alpha  occ. eigenvalues --   -0.59792  -0.58692  -0.58176  -0.58030  -0.57658
 Alpha  occ. eigenvalues --   -0.57021  -0.56703  -0.56352  -0.55845  -0.55796
 Alpha  occ. eigenvalues --   -0.55553  -0.55425  -0.55019  -0.54866  -0.54694
 Alpha  occ. eigenvalues --   -0.54548  -0.54499  -0.54200  -0.53685  -0.53452
 Alpha  occ. eigenvalues --   -0.53410  -0.53347  -0.53182  -0.53087  -0.52873
 Alpha  occ. eigenvalues --   -0.52441  -0.51941  -0.51867  -0.51754  -0.51570
 Alpha  occ. eigenvalues --   -0.51366  -0.51131  -0.51003  -0.50958  -0.50640
 Alpha  occ. eigenvalues --   -0.50584  -0.50379  -0.50182  -0.50061  -0.49552
 Alpha  occ. eigenvalues --   -0.49339  -0.49253  -0.48855  -0.48607  -0.48566
 Alpha  occ. eigenvalues --   -0.48478  -0.48011  -0.47960  -0.47912  -0.47798
 Alpha  occ. eigenvalues --   -0.47552  -0.47317  -0.47201  -0.47048  -0.46737
 Alpha  occ. eigenvalues --   -0.46487  -0.46336  -0.46295  -0.46133  -0.45985
 Alpha  occ. eigenvalues --   -0.45505  -0.45317  -0.45246  -0.45026  -0.44883
 Alpha  occ. eigenvalues --   -0.44558  -0.44457  -0.44181  -0.43984  -0.43935
 Alpha  occ. eigenvalues --   -0.43494  -0.43394  -0.43296  -0.43199  -0.43037
 Alpha  occ. eigenvalues --   -0.42903  -0.42778  -0.42135  -0.41932  -0.41804
 Alpha  occ. eigenvalues --   -0.41496  -0.41417  -0.41319  -0.40798  -0.40568
 Alpha  occ. eigenvalues --   -0.40025  -0.39826  -0.39740  -0.39405  -0.39095
 Alpha  occ. eigenvalues --   -0.39045  -0.38649  -0.38556  -0.38200  -0.37766
 Alpha  occ. eigenvalues --   -0.37699  -0.37688  -0.36998  -0.36204  -0.36060
 Alpha  occ. eigenvalues --   -0.35813  -0.35556  -0.35024  -0.33580  -0.33390
 Alpha  occ. eigenvalues --   -0.32762  -0.32576  -0.32524  -0.31507  -0.25954
 Alpha  occ. eigenvalues --   -0.23031
 Alpha virt. eigenvalues --   -0.07185   0.00549   0.01980   0.04205   0.05427
 Alpha virt. eigenvalues --    0.05735   0.07263   0.08489   0.08937   0.09946
 Alpha virt. eigenvalues --    0.10235   0.11434   0.12400   0.12796   0.12899

 Mulliken charges:
               1
     1  Mg   0.968427
     2  C   -0.023093
     3  C   -0.037738
     4  C   -0.069037
     5  C   -0.100638
     6  N   -0.319652
     7  C    0.005918
     8  C   -0.069044
     9  C   -0.108634
    10  C    0.040910
    11  C    0.002416
    12  C    0.044146
    13  C   -0.009946
    14  C    0.208238
    15  O   -0.263907
    16  O   -0.376652
    17  N   -0.444789
    18  C    0.109307
    19  C   -0.188717
    20  C   -0.082434
    21  C    0.150361
    22  C    0.091070
    23  C    0.056627
    24  O   -0.260358
    25  C   -0.010050
    26  N   -0.429073
    27  C    0.096442
    28  C   -0.122904
    29  C   -0.082067
    30  C    0.106830
    31  C    0.028049
    32  C    0.012509
    33  C   -0.064865
    34  N   -0.411527
    35  C    0.114351
    36  C   -0.171031
    37  C   -0.050189
    38  C    0.144180
    39  C    0.088628
    40  C    0.114167
    41  O   -0.250535
    42  C   -0.026985
    43  C    0.232189
    44  O   -0.206421
    45  O   -0.334441
    46  C    0.147138
    47  C    0.262948
    48  C   -0.159673
    49  C   -0.228068
    50  C    0.044865
    51  C    0.038900
    52  C   -0.009114
    53  C    0.011101
    54  C   -0.204962
    55  C    0.030001
    56  C   -0.014329
    57  C   -0.052638
    58  C    0.022314
    59  C   -0.209804
    60  C    0.002786
    61  C    0.034879
    62  C   -0.025020
    63  C   -0.036266
    64  C   -0.213373
    65  C   -0.008207
    66  C    0.017464
    67  H   -0.014633
    68  H    0.019888
    69  H   -0.001553
    70  H    0.069779
    71  H    0.040965
    72  H    0.049401
    73  H    0.041135
    74  H    0.038908
    75  H    0.035756
    76  H    0.032209
    77  H    0.045295
    78  H    0.059640
    79  H    0.057989
    80  H    0.040965
    81  H    0.034699
    82  H    0.054000
    83  H    0.046686
    84  H    0.065952
    85  H    0.046144
    86  H    0.023322
    87  H    0.051698
    88  H    0.034733
    89  H    0.038053
    90  H    0.040846
    91  H    0.022447
    92  H    0.029548
    93  H    0.032144
    94  H    0.037131
    95  H    0.030618
    96  H    0.058592
    97  H    0.072600
    98  H    0.065107
    99  H    0.039498
   100  H    0.062708
   101  H    0.054577
   102  H    0.048807
   103  H    0.044289
   104  H    0.010804
   105  H    0.055796
   106  H    0.054610
   107  H    0.035750
   108  H    0.032566
   109  H    0.008338
   110  H    0.018606
   111  H    0.013319
   112  H    0.034313
   113  H    0.028070
   114  H    0.020952
   115  H    0.034800
   116  H    0.015151
   117  H    0.032240
   118  H    0.021411
   119  H   -0.002812
   120  H    0.022798
   121  H    0.032732
   122  H    0.006787
   123  H    0.014283
   124  H    0.020438
   125  H    0.032373
   126  H    0.032255
   127  H    0.022922
   128  H    0.015877
   129  H    0.024436
   130  H    0.024362
   131  H    0.024000
   132  H   -0.003771
   133  H    0.009769
   134  H    0.023445
   135  H    0.023955
   136  H    0.032281
   137  H    0.032622
   138  H    0.030267
   139  H    0.027547
   140  H    0.035787
 Sum of Mulliken charges =  -0.00000

 Dipole moment (field-independent basis, Debye):
    X=              3.3805    Y=              0.9781    Z=             -3.2080  Tot=              4.7619
 Quadrupole moment (field-independent basis, Debye-Ang):
   XX=           -368.3728   YY=           -422.8666   ZZ=           -406.8190
   XY=            -11.9990   XZ=              3.9678   YZ=             11.7594

 Normal termination of Gaussian 16 at Fri Apr 29 07:27:20 2022.
