 Gaussian 16, Revision A.03,
 Gaussian 16:  ES64L-G16RevA.03 25-Dec-2016

 --------------------
 #p ZINDO=(nstates=5)
 --------------------

 --------------------------
 step_1_chromophore_6 ZINDO
 --------------------------
 Symbolic Z-matrix:
 Charge =  0 Multiplicity = 1

                         Standard orientation:
 ---------------------------------------------------------------------
 Center     Atomic      Atomic             Coordinates (Angstroms)
 Number     Number       Type             X           Y           Z
 ---------------------------------------------------------------------
      1         12           0       -5.601503    1.079346   -0.239005
      2          6           0       -4.507644   -2.306886    0.196743
      3          6           0       -2.320278    1.930439   -0.872047
      4          6           0       -6.526202    4.204572   -0.008570
      5          6           0       -8.773491   -0.005083    0.640164
      6          7           0       -3.537035   -0.055680   -0.051975
      7          6           0       -3.439059   -1.419003    0.017787
      8          6           0       -1.999795   -1.854807   -0.366912
      9          6           0       -1.261003   -0.481783   -0.657259
     10          6           0       -2.407941    0.583373   -0.509132
     11          6           0       -0.029889   -0.092436    0.264674
     12          6           0       -1.903621   -2.820249   -1.578309
     13          6           0       -0.993218   -3.990605   -1.462174
     14          6           0        0.174076   -4.083899   -0.406754
     15          8           0        0.014036   -4.147992    0.797319
     16          8           0        1.452305   -3.830347   -0.899187
     17          7           0       -4.562406    2.898126   -0.405802
     18          6           0       -3.237553    3.073268   -0.804661
     19          6           0       -2.930594    4.516451   -0.814436
     20          6           0       -4.207510    5.183529   -0.671224
     21          6           0       -5.165024    4.102279   -0.341771
     22          6           0       -1.578763    5.129593   -1.021380
     23          6           0       -4.588921    6.679252   -0.772116
     24          8           0       -5.749077    7.113003   -0.933951
     25          6           0       -3.487146    7.657916   -0.852020
     26          7           0       -7.333313    1.919148    0.292716
     27          6           0       -7.428952    3.291249    0.369813
     28          6           0       -8.905117    3.741495    0.550503
     29          6           0       -9.662729    2.350443    0.383494
     30          6           0       -8.528298    1.341317    0.424224
     31          6           0       -9.293647    4.519130    1.873606
     32          6           0      -10.509232    2.169640   -0.866541
     33          6           0      -12.027883    2.032092   -0.630213
     34          7           0       -6.538856   -0.780455    0.123431
     35          6           0       -7.833140   -1.053517    0.498138
     36          6           0       -7.985313   -2.489275    0.767795
     37          6           0       -6.710192   -2.998638    0.597536
     38          6           0       -5.865199   -1.934572    0.210693
     39          6           0       -9.197178   -3.242409    1.207662
     40          6           0       -5.995388   -4.223512    0.635539
     41          8           0       -6.371090   -5.420325    0.790488
     42          6           0       -4.593328   -3.853259    0.394893
     43          6           0       -3.715908   -4.407649    1.484476
     44          8           0       -3.688449   -4.024804    2.603989
     45          8           0       -2.917674   -5.352406    0.987762
     46          6           0       -2.228239   -6.224393    1.877044
     47          6           0        2.475581   -3.473158    0.093733
     48          6           0        3.734169   -2.958722   -0.639177
     49          6           0        4.740029   -3.694417   -1.089903
     50          6           0        4.820465   -5.189971   -0.965622
     51          6           0        5.897704   -3.033370   -1.750683
     52          6           0        6.798601   -2.196887   -0.966700
     53          6           0        8.294428   -2.110590   -1.554227
     54          6           0        8.762004   -0.627422   -1.417074
     55          6           0        8.206567    0.179380   -2.563311
     56          6           0       10.342127   -0.540673   -1.284801
     57          6           0       10.845936   -0.443740    0.176383
     58          6           0       12.354417   -0.928460    0.211308
     59          6           0       13.320838    0.179065   -0.272609
     60          6           0       14.078815   -0.354470   -1.494948
     61          6           0       14.360973    0.583931    0.847421
     62          6           0       13.922662    1.844053    1.666311
     63          6           0       15.030871    2.934439    1.700348
     64          6           0       14.437310    4.361189    1.777602
     65          6           0       13.879508    4.575404    3.169609
     66          6           0       15.520371    5.409748    1.416681
     67          1           0       -1.307855    2.288622   -1.070750
     68          1           0       -6.987108    5.193226    0.057350
     69          1           0       -9.756634   -0.322628    0.991475
     70          1           0       -1.594596   -2.351111    0.515680
     71          1           0       -0.913783   -0.458879   -1.689786
     72          1           0        0.314713   -0.876189    0.938691
     73          1           0       -0.372890    0.708066    0.921768
     74          1           0        0.794357    0.286268   -0.340490
     75          1           0       -1.557715   -2.326381   -2.487105
     76          1           0       -2.859696   -3.279300   -1.828243
     77          1           0       -0.428197   -4.109321   -2.387203
     78          1           0       -1.618475   -4.872065   -1.322832
     79          1           0       -1.357203    5.803628   -0.194207
     80          1           0       -1.645990    5.712250   -1.940130
     81          1           0       -0.828040    4.375312   -1.259389
     82          1           0       -2.926846    7.596681    0.080992
     83          1           0       -3.971066    8.634147   -0.869617
     84          1           0       -2.926109    7.569090   -1.781918
     85          1           0       -9.126408    4.359102   -0.320538
     86          1           0      -10.319535    2.246931    1.247145
     87          1           0       -8.415193    4.645955    2.505312
     88          1           0      -10.144646    4.079260    2.395032
     89          1           0       -9.674060    5.494744    1.570588
     90          1           0      -10.179004    1.409678   -1.574854
     91          1           0      -10.407051    3.086671   -1.445855
     92          1           0      -12.548355    1.259851   -1.196300
     93          1           0      -12.491296    2.912634   -1.075990
     94          1           0      -12.329851    1.883717    0.405682
     95          1           0      -10.120771   -2.689806    1.032936
     96          1           0       -9.203472   -3.337476    2.293394
     97          1           0       -9.111075   -4.240922    0.779289
     98          1           0       -4.327214   -4.305920   -0.559933
     99          1           0       -2.978078   -6.913962    2.267334
    100          1           0       -1.870062   -5.684236    2.753550
    101          1           0       -1.480955   -6.816519    1.348122
    102          1           0        2.722928   -4.342443    0.703628
    103          1           0        2.121182   -2.612660    0.661013
    104          1           0        3.784218   -1.905423   -0.916026
    105          1           0        3.775228   -5.497167   -0.946478
    106          1           0        5.340393   -5.487033   -0.055016
    107          1           0        5.413410   -5.512542   -1.821338
    108          1           0        5.369724   -2.418342   -2.479286
    109          1           0        6.447232   -3.775043   -2.329778
    110          1           0        6.709369   -2.474357    0.083358
    111          1           0        6.361897   -1.201938   -0.888712
    112          1           0        8.394493   -2.403375   -2.600014
    113          1           0        8.862066   -2.763859   -0.890517
    114          1           0        8.481866   -0.204338   -0.452835
    115          1           0        7.806349    1.129498   -2.209771
    116          1           0        7.381410   -0.382423   -2.999260
    117          1           0        8.942631    0.294249   -3.358821
    118          1           0       10.852828    0.137381   -1.967686
    119          1           0       10.677992   -1.550023   -1.521301
    120          1           0       10.161365   -1.094346    0.719407
    121          1           0       10.828357    0.606480    0.466038
    122          1           0       12.493837   -1.791481   -0.438352
    123          1           0       12.528566   -1.324528    1.212070
    124          1           0       12.693688    1.021173   -0.565510
    125          1           0       14.879473   -1.042001   -1.222130
    126          1           0       14.492939    0.496344   -2.036634
    127          1           0       13.359204   -0.910456   -2.094904
    128          1           0       15.269422    0.922519    0.348960
    129          1           0       14.499516   -0.263788    1.518933
    130          1           0       13.864600    1.459482    2.684449
    131          1           0       12.935810    2.200701    1.369563
    132          1           0       15.688093    2.959268    0.831247
    133          1           0       15.841667    2.695257    2.389442
    134          1           0       13.608624    4.267993    1.076267
    135          1           0       13.056472    5.224158    2.868673
    136          1           0       14.473100    5.098403    3.919689
    137          1           0       13.521450    3.661387    3.643833
    138          1           0       15.852744    5.863078    2.351204
    139          1           0       14.975717    6.170051    0.856224
    140          1           0       16.338863    5.035531    0.801646
 ---------------------------------------------------------------------

 SCF Done:  E(RZINDO/S) =  -474.447177029     A.U. after   19 cycles

 Excitation energies and oscillator strengths:

 Excited State   1:      Singlet-A      1.3006 eV  953.25 nm  f=0.5858  <S**2>=0.000
     175 ->178         0.17039
     176 ->177         0.66834
 This state for optimization and/or second-order correction.
 Total Energy, E(CIS/TDA) =  -474.399379157
 Copying the excited state density for this state as the 1-particle RhoCI density.

 Excited State   2:      Singlet-A      1.9022 eV  651.80 nm  f=0.0681  <S**2>=0.000
     175 ->177         0.56522
     176 ->178        -0.37544
     176 ->179         0.11610

 Excited State   3:      Singlet-A      2.8656 eV  432.66 nm  f=0.0268  <S**2>=0.000
     168 ->177         0.38873
     168 ->178        -0.22656
     168 ->179        -0.39894
     168 ->181         0.17597
     168 ->185        -0.17107
     168 ->195         0.11289

 Excited State   4:      Singlet-A      2.9332 eV  422.69 nm  f=0.7790  <S**2>=0.000
     175 ->177         0.31735
     176 ->178         0.54988
     176 ->179         0.17241

 Excited State   5:      Singlet-A      3.0594 eV  405.26 nm  f=0.1398  <S**2>=0.000
     169 ->181         0.16757
     170 ->177         0.13569
     170 ->179         0.16151
     170 ->181         0.28328
     170 ->185         0.13310
     170 ->187         0.12149
     175 ->177        -0.11594
     176 ->179         0.43054
     176 ->181         0.22603

 The electronic state is 1-A.
 Alpha  occ. eigenvalues --   -1.86157  -1.81641  -1.77395  -1.75291  -1.72553
 Alpha  occ. eigenvalues --   -1.68981  -1.65955  -1.62065  -1.60593  -1.57938
 Alpha  occ. eigenvalues --   -1.56535  -1.52943  -1.49174  -1.48184  -1.47176
 Alpha  occ. eigenvalues --   -1.45157  -1.43042  -1.40922  -1.38882  -1.37378
 Alpha  occ. eigenvalues --   -1.35742  -1.34180  -1.32470  -1.30731  -1.28696
 Alpha  occ. eigenvalues --   -1.27917  -1.25135  -1.21149  -1.19955  -1.18604
 Alpha  occ. eigenvalues --   -1.17617  -1.16051  -1.15567  -1.14595  -1.13557
 Alpha  occ. eigenvalues --   -1.12873  -1.09850  -1.09487  -1.05477  -1.04320
 Alpha  occ. eigenvalues --   -1.01918  -1.01557  -0.98049  -0.97556  -0.96813
 Alpha  occ. eigenvalues --   -0.95026  -0.93955  -0.93711  -0.93093  -0.92585
 Alpha  occ. eigenvalues --   -0.91451  -0.91068  -0.89290  -0.88625  -0.86967
 Alpha  occ. eigenvalues --   -0.86494  -0.83443  -0.83182  -0.81929  -0.80447
 Alpha  occ. eigenvalues --   -0.79165  -0.78430  -0.77294  -0.76958  -0.76622
 Alpha  occ. eigenvalues --   -0.76226  -0.75931  -0.74462  -0.74060  -0.73485
 Alpha  occ. eigenvalues --   -0.73099  -0.72476  -0.71282  -0.71169  -0.70661
 Alpha  occ. eigenvalues --   -0.70503  -0.69457  -0.68681  -0.68601  -0.67833
 Alpha  occ. eigenvalues --   -0.67458  -0.66901  -0.66625  -0.66092  -0.65559
 Alpha  occ. eigenvalues --   -0.65223  -0.65121  -0.64644  -0.63717  -0.63521
 Alpha  occ. eigenvalues --   -0.63283  -0.62714  -0.62442  -0.62238  -0.61915
 Alpha  occ. eigenvalues --   -0.61059  -0.60951  -0.60571  -0.60151  -0.59714
 Alpha  occ. eigenvalues --   -0.59436  -0.59330  -0.59024  -0.58245  -0.58056
 Alpha  occ. eigenvalues --   -0.57732  -0.57682  -0.57292  -0.56748  -0.56139
 Alpha  occ. eigenvalues --   -0.55983  -0.55785  -0.55583  -0.55444  -0.54636
 Alpha  occ. eigenvalues --   -0.54514  -0.54451  -0.53605  -0.53482  -0.52553
 Alpha  occ. eigenvalues --   -0.52422  -0.52294  -0.51774  -0.51423  -0.51358
 Alpha  occ. eigenvalues --   -0.51025  -0.50699  -0.50525  -0.50311  -0.50127
 Alpha  occ. eigenvalues --   -0.49568  -0.49234  -0.49182  -0.49085  -0.48940
 Alpha  occ. eigenvalues --   -0.48587  -0.48293  -0.47862  -0.47593  -0.47447
 Alpha  occ. eigenvalues --   -0.47201  -0.46973  -0.46329  -0.46215  -0.46120
 Alpha  occ. eigenvalues --   -0.45839  -0.45564  -0.45471  -0.45410  -0.45177
 Alpha  occ. eigenvalues --   -0.44364  -0.44216  -0.43816  -0.43626  -0.43492
 Alpha  occ. eigenvalues --   -0.43356  -0.43175  -0.42538  -0.42442  -0.42193
 Alpha  occ. eigenvalues --   -0.41551  -0.41316  -0.41148  -0.39067  -0.38795
 Alpha  occ. eigenvalues --   -0.37900  -0.37206  -0.35922  -0.34501  -0.34473
 Alpha  occ. eigenvalues --   -0.34143  -0.32690  -0.32639  -0.31340  -0.26642
 Alpha  occ. eigenvalues --   -0.21866
 Alpha virt. eigenvalues --   -0.08519  -0.01940  -0.00733   0.01193   0.01567
 Alpha virt. eigenvalues --    0.02275   0.03020   0.03528   0.04742   0.05130
 Alpha virt. eigenvalues --    0.06434   0.06741   0.07604   0.07894   0.07989

 Mulliken charges:
               1
     1  Mg   0.430417
     2  C   -0.064505
     3  C   -0.069634
     4  C   -0.035546
     5  C   -0.081298
     6  N   -0.292361
     7  C    0.163190
     8  C    0.006703
     9  C   -0.000659
    10  C    0.097786
    11  C   -0.054226
    12  C   -0.010437
    13  C    0.012437
    14  C    0.452038
    15  O   -0.505433
    16  O   -0.278961
    17  N   -0.306198
    18  C    0.051775
    19  C   -0.005741
    20  C   -0.078026
    21  C    0.121688
    22  C   -0.040971
    23  C    0.328697
    24  O   -0.541578
    25  C   -0.031088
    26  N   -0.265418
    27  C    0.091380
    28  C   -0.011748
    29  C    0.002883
    30  C    0.182686
    31  C   -0.052255
    32  C   -0.022047
    33  C   -0.062400
    34  N   -0.329951
    35  C    0.125226
    36  C    0.062073
    37  C   -0.038124
    38  C    0.137825
    39  C   -0.035180
    40  C    0.343936
    41  O   -0.543876
    42  C    0.062318
    43  C    0.503135
    44  O   -0.510093
    45  O   -0.268580
    46  C    0.079462
    47  C    0.108175
    48  C   -0.112308
    49  C    0.011350
    50  C   -0.048972
    51  C   -0.015290
    52  C   -0.031214
    53  C   -0.032589
    54  C   -0.016485
    55  C   -0.052212
    56  C   -0.055225
    57  C   -0.042691
    58  C   -0.040874
    59  C   -0.014473
    60  C   -0.056149
    61  C   -0.044149
    62  C   -0.042142
    63  C   -0.043960
    64  C   -0.010000
    65  C   -0.059369
    66  C   -0.057871
    67  H    0.015889
    68  H    0.036505
    69  H    0.027749
    70  H    0.054005
    71  H    0.026499
    72  H    0.029564
    73  H    0.022314
    74  H    0.021051
    75  H    0.024865
    76  H    0.021834
    77  H    0.024417
    78  H    0.041289
    79  H    0.036702
    80  H    0.022763
    81  H    0.026268
    82  H    0.036650
    83  H    0.028499
    84  H    0.047133
    85  H    0.034428
    86  H    0.028937
    87  H    0.031804
    88  H    0.022561
    89  H    0.019601
    90  H    0.026095
    91  H    0.017566
    92  H    0.015403
    93  H    0.017271
    94  H    0.024048
    95  H    0.027566
    96  H    0.039028
    97  H    0.047349
    98  H    0.050933
    99  H    0.030816
   100  H    0.054648
   101  H    0.038321
   102  H    0.053272
   103  H    0.044327
   104  H    0.025612
   105  H    0.033006
   106  H    0.033298
   107  H    0.027802
   108  H    0.017633
   109  H    0.013120
   110  H    0.020626
   111  H    0.014431
   112  H    0.033309
   113  H    0.017994
   114  H    0.021426
   115  H    0.019266
   116  H    0.012987
   117  H    0.022052
   118  H    0.026799
   119  H    0.008566
   120  H    0.024947
   121  H    0.023622
   122  H    0.018027
   123  H    0.013413
   124  H    0.027244
   125  H    0.021145
   126  H    0.014447
   127  H    0.015808
   128  H    0.021367
   129  H    0.028169
   130  H    0.012579
   131  H    0.030372
   132  H    0.004393
   133  H    0.020005
   134  H    0.027132
   135  H    0.011013
   136  H    0.024356
   137  H    0.019294
   138  H    0.024203
   139  H    0.012402
   140  H    0.027294
 Sum of Mulliken charges =  -0.00000

 Dipole moment (field-independent basis, Debye):
    X=              2.6776    Y=             -1.2060    Z=             -4.5834  Tot=              5.4434
 N-N= 4.238110568949D+03 E-N= 0.000000000000D+00  KE=-9.151044042944D+03
 Leave Link  601 at Fri Apr 29 07:46:59 2022, MaxMem=  6710886400 cpu:               1.1 elap:               0.1
 (Enter /sw/apps/gaussian-16.0/g16/l9999.exe)
 1\1\GINC-BP1-COMPUTE138\SP\RZINDO CIS\STO-3G\C55H74Mg1N4O6\OF15641\29-
 Apr-2022\0\\#p ZINDO=(nstates=5)\\step_1_chromophore_6 ZINDO\\0,1\Mg,0
 ,17.054,-2.288,27.75\C,0,16.548,-0.354,30.726\C,0,18.852,-4.529,29.657
 \C,0,18.013,-3.67,24.949\C,0,15.392,0.222,26.033\N,0,17.886,-2.277,29.
 962\C,0,17.412,-1.437,30.933\C,0,17.782,-2.001,32.331\C,0,18.585,-3.32
 7,31.996\C,0,18.484,-3.424,30.43\C,0,20.102,-3.411,32.453\C,0,16.578,-
 2.286,33.268\C,0,16.684,-1.85,34.686\C,0,18.053,-1.523,35.396\O,0,18.7

 Normal termination of Gaussian 16 at Fri Apr 29 07:46:59 2022.
