 Gaussian 16, Revision A.03,
 Gaussian 16:  ES64L-G16RevA.03 25-Dec-2016

 ------------------------------
 #p blyp/Def2SVP td=(nstates=5)
 ------------------------------

 --------------------------------------------------
 step_551_chromophore_21 TDDFT with blyp functional
 --------------------------------------------------
 Symbolic Z-matrix:
 Charge =  0 Multiplicity = 1

                         Standard orientation:
 ---------------------------------------------------------------------
 Center     Atomic      Atomic             Coordinates (Angstroms)
 Number     Number       Type             X           Y           Z
 ---------------------------------------------------------------------
      1         12           0       -4.990023    1.246641   -0.295895
      2          6           0       -4.945773   -2.248424    0.128088
      3          6           0       -1.539511    1.228034   -0.038863
      4          6           0       -5.083792    4.576906   -0.112643
      5          6           0       -8.518656    1.217611    0.203318
      6          7           0       -3.462499   -0.303629   -0.018065
      7          6           0       -3.663475   -1.706626   -0.135405
      8          6           0       -2.379150   -2.449433   -0.265315
      9          6           0       -1.316546   -1.293003   -0.143462
     10          6           0       -2.169622   -0.015891   -0.133429
     11          6           0       -0.437572   -1.237854    1.192685
     12          6           0       -2.302323   -3.261894   -1.462752
     13          6           0       -1.642898   -4.582809   -1.510981
     14          6           0       -0.503092   -4.920910   -0.515427
     15          8           0       -0.527408   -5.749087    0.379411
     16          8           0        0.682060   -4.188146   -0.791582
     17          7           0       -3.523016    2.761383   -0.283161
     18          6           0       -2.172553    2.526462   -0.078424
     19          6           0       -1.532091    3.737069    0.025930
     20          6           0       -2.497716    4.760157   -0.055609
     21          6           0       -3.786013    4.105174   -0.220568
     22          6           0        0.047048    3.838154   -0.127329
     23          6           0       -2.308406    6.303527    0.045141
     24          8           0       -3.272054    7.068045   -0.083011
     25          6           0       -0.943656    6.948067    0.537288
     26          7           0       -6.561139    2.705936    0.014331
     27          6           0       -6.324148    4.009067   -0.190243
     28          6           0       -7.627989    4.810181   -0.360720
     29          6           0       -8.712466    3.700730   -0.247030
     30          6           0       -7.892669    2.469293   -0.023805
     31          6           0       -7.740382    6.019220    0.562216
     32          6           0       -9.648915    3.591020   -1.480495
     33          6           0      -11.120410    3.228898   -1.090249
     34          7           0       -6.472822   -0.191579    0.031563
     35          6           0       -7.851738   -0.084779    0.226157
     36          6           0       -8.456256   -1.432777    0.442634
     37          6           0       -7.335440   -2.302742    0.424586
     38          6           0       -6.151669   -1.493998    0.189882
     39          6           0       -9.911349   -1.776702    0.482006
     40          6           0       -6.940254   -3.681477    0.445094
     41          8           0       -7.625610   -4.710412    0.633176
     42          6           0       -5.385733   -3.659449    0.342084
     43          6           0       -4.938014   -4.198270    1.589721
     44          8           0       -5.207067   -3.813171    2.771150
     45          8           0       -4.155300   -5.268950    1.427580
     46          6           0       -3.378601   -5.772979    2.592754
     47          6           0        1.867532   -4.585074    0.080494
     48          6           0        2.913418   -3.502953   -0.138328
     49          6           0        4.271987   -3.506788    0.151022
     50          6           0        4.933153   -4.697641    0.667160
     51          6           0        5.206639   -2.341347   -0.143053
     52          6           0        5.949354   -2.541375   -1.448089
     53          6           0        7.425609   -2.217638   -1.224467
     54          6           0        7.958620   -1.221612   -2.346243
     55          6           0        7.621098   -1.845606   -3.712121
     56          6           0        9.513882   -1.186773   -2.262895
     57          6           0       10.145509   -0.846234   -0.904399
     58          6           0       11.600432   -0.345342   -1.175120
     59          6           0       11.838038    1.197547   -0.952795
     60          6           0       11.695248    2.074490   -2.251420
     61          6           0       13.275271    1.373164   -0.351896
     62          6           0       13.558917    2.665200    0.384571
     63          6           0       13.771136    2.439893    1.906729
     64          6           0       15.273226    2.699805    2.326202
     65          6           0       15.809160    1.623548    3.292183
     66          6           0       15.434549    4.127447    2.928044
     67          1           0       -0.498680    1.311577    0.283301
     68          1           0       -5.195452    5.661077   -0.051208
     69          1           0       -9.602779    1.234532    0.334877
     70          1           0       -2.282473   -3.054183    0.636015
     71          1           0       -0.616044   -1.383939   -0.974005
     72          1           0       -0.291745   -2.258657    1.547304
     73          1           0       -0.971410   -0.587434    1.885341
     74          1           0        0.548959   -0.791282    1.074661
     75          1           0       -1.868746   -2.820167   -2.360227
     76          1           0       -3.347922   -3.379656   -1.747296
     77          1           0       -1.269546   -4.858577   -2.497694
     78          1           0       -2.430385   -5.294524   -1.260162
     79          1           0        0.526449    2.887900   -0.361502
     80          1           0        0.359182    4.058023    0.893399
     81          1           0        0.474190    4.521639   -0.861009
     82          1           0       -0.059643    6.835714   -0.089356
     83          1           0       -0.654548    6.452282    1.464108
     84          1           0       -1.127742    7.976470    0.846735
     85          1           0       -7.541916    5.164658   -1.388125
     86          1           0       -9.339078    3.894605    0.624254
     87          1           0       -8.683283    6.050627    1.108835
     88          1           0       -7.587612    6.975910    0.062742
     89          1           0       -6.882886    5.916830    1.226309
     90          1           0       -9.269627    3.046144   -2.344652
     91          1           0       -9.705503    4.569741   -1.955436
     92          1           0      -11.720286    4.051178   -1.481061
     93          1           0      -11.277698    3.185024   -0.011912
     94          1           0      -11.445944    2.257831   -1.462885
     95          1           0      -10.349419   -1.102159    1.218120
     96          1           0       -9.995680   -2.839560    0.707011
     97          1           0      -10.435376   -1.491592   -0.430856
     98          1           0       -5.112441   -4.239395   -0.540184
     99          1           0       -2.496368   -6.303636    2.232412
    100          1           0       -4.018945   -6.372031    3.239593
    101          1           0       -2.880475   -5.051656    3.240681
    102          1           0        2.106967   -5.615637   -0.179701
    103          1           0        1.588231   -4.521189    1.132193
    104          1           0        2.480145   -2.565249   -0.485205
    105          1           0        5.895733   -4.834398    0.174310
    106          1           0        4.341323   -5.550987    0.337293
    107          1           0        5.038509   -4.565815    1.744388
    108          1           0        5.825445   -2.164016    0.737544
    109          1           0        4.566273   -1.466700   -0.250485
    110          1           0        5.573232   -1.883764   -2.232468
    111          1           0        5.764366   -3.559445   -1.789957
    112          1           0        8.009710   -3.136095   -1.292160
    113          1           0        7.579857   -1.791651   -0.232591
    114          1           0        7.558597   -0.226024   -2.151631
    115          1           0        7.351057   -2.899114   -3.778186
    116          1           0        8.407441   -1.792826   -4.465366
    117          1           0        6.734409   -1.393318   -4.158327
    118          1           0        9.966241   -0.434388   -2.908356
    119          1           0       10.007176   -2.116847   -2.542476
    120          1           0       10.163383   -1.742552   -0.284983
    121          1           0        9.506878   -0.118383   -0.405490
    122          1           0       11.895587   -0.612835   -2.189811
    123          1           0       12.256280   -1.022928   -0.628061
    124          1           0       11.173925    1.647490   -0.215886
    125          1           0       11.901635    1.502587   -3.156619
    126          1           0       12.394025    2.889798   -2.066043
    127          1           0       10.661986    2.400877   -2.374744
    128          1           0       14.074593    1.249114   -1.083055
    129          1           0       13.427640    0.493145    0.273124
    130          1           0       12.821346    3.466855    0.348374
    131          1           0       14.417652    3.117494   -0.112828
    132          1           0       13.441474    1.450902    2.224853
    133          1           0       13.145008    3.194399    2.384045
    134          1           0       15.901637    2.726482    1.435665
    135          1           0       14.955103    1.078103    3.692022
    136          1           0       16.395935    1.967969    4.144126
    137          1           0       16.439784    0.864207    2.827571
    138          1           0       15.286994    4.049128    4.005018
    139          1           0       14.766552    4.779535    2.365584
    140          1           0       16.382716    4.568490    2.619989
 ---------------------------------------------------------------------

 SCF Done:  E(RB-LYP) =  -3007.36820269     A.U. after   22 cycles

 Excitation energies and oscillator strengths:

 Excited State   1:      Singlet-A      1.7846 eV  694.76 nm  f=0.2838  <S**2>=0.000
     245 -> 248        0.20974
     246 -> 247        0.68451
     246 <- 247       -0.14834
 This state for optimization and/or second-order correction.
 Total Energy, E(TD-HF/TD-DFT) =  -3007.30262142
 Copying the excited state density for this state as the 1-particle RhoCI density.

 Excited State   2:      Singlet-A      1.9194 eV  645.94 nm  f=0.0313  <S**2>=0.000
     243 -> 247       -0.13534
     244 -> 247        0.56736
     245 -> 247        0.36983
     246 -> 248       -0.11707

 Excited State   3:      Singlet-A      1.9497 eV  635.92 nm  f=0.0171  <S**2>=0.000
     243 -> 247        0.53176
     244 -> 247        0.34343
     245 -> 247       -0.29031
     246 -> 248        0.10362

 Excited State   4:      Singlet-A      1.9763 eV  627.34 nm  f=0.0446  <S**2>=0.000
     243 -> 247        0.44476
     244 -> 247       -0.23719
     245 -> 247        0.44767
     246 -> 248       -0.18631

 Excited State   5:      Singlet-A      2.2662 eV  547.10 nm  f=0.0003  <S**2>=0.000
     241 -> 247        0.52227
     242 -> 247       -0.47262

 The electronic state is 1-A.
 Alpha  occ. eigenvalues --  -46.27582 -18.82131 -18.81756 -18.78202 -18.75985
 Alpha  occ. eigenvalues --  -18.75529 -18.74783 -14.03744 -14.03056 -14.01440
 Alpha  occ. eigenvalues --  -14.00719 -10.05030 -10.03073 -10.00674  -9.99413
 Alpha  occ. eigenvalues --   -9.98834  -9.97138  -9.96802  -9.96549  -9.96363
 Alpha  occ. eigenvalues --   -9.96331  -9.95851  -9.95599  -9.95081  -9.94980
 Alpha  occ. eigenvalues --   -9.94206  -9.94185  -9.94162  -9.94089  -9.94022
 Alpha  occ. eigenvalues --   -9.93810  -9.93723  -9.93579  -9.93438  -9.93389
 Alpha  occ. eigenvalues --   -9.93383  -9.93192  -9.93162  -9.93090  -9.92978
 Alpha  occ. eigenvalues --   -9.92909  -9.92879  -9.92648  -9.92458  -9.92455
 Alpha  occ. eigenvalues --   -9.92433  -9.92341  -9.92262  -9.92193  -9.92123
 Alpha  occ. eigenvalues --   -9.92053  -9.91982  -9.91768  -9.91595  -9.91521
 Alpha  occ. eigenvalues --   -9.91301  -9.91270  -9.91193  -9.91174  -9.91084
 Alpha  occ. eigenvalues --   -9.91044  -9.90977  -9.90936  -9.90861  -9.90731
 Alpha  occ. eigenvalues --   -9.90655  -2.92109  -1.72535  -1.71993  -1.71820
 Alpha  occ. eigenvalues --   -0.97182  -0.97000  -0.90939  -0.89746  -0.89510
 Alpha  occ. eigenvalues --   -0.87036  -0.86345  -0.86156  -0.85292  -0.84817
 Alpha  occ. eigenvalues --   -0.76276  -0.74900  -0.74396  -0.72867  -0.72748
 Alpha  occ. eigenvalues --   -0.72100  -0.72087  -0.70737  -0.70574  -0.69979
 Alpha  occ. eigenvalues --   -0.69409  -0.69152  -0.68504  -0.67586  -0.67421
 Alpha  occ. eigenvalues --   -0.66728  -0.65891  -0.65256  -0.64988  -0.64386
 Alpha  occ. eigenvalues --   -0.63705  -0.63030  -0.62215  -0.61912  -0.60976
 Alpha  occ. eigenvalues --   -0.60560  -0.60131  -0.60071  -0.59654  -0.58687
 Alpha  occ. eigenvalues --   -0.58166  -0.57776  -0.56689  -0.56111  -0.55040
 Alpha  occ. eigenvalues --   -0.54379  -0.54194  -0.52786  -0.52567  -0.52032
 Alpha  occ. eigenvalues --   -0.51698  -0.51381  -0.50782  -0.50749  -0.49897
 Alpha  occ. eigenvalues --   -0.49425  -0.49417  -0.48721  -0.48371  -0.46961
 Alpha  occ. eigenvalues --   -0.46649  -0.46122  -0.45919  -0.45504  -0.45361
 Alpha  occ. eigenvalues --   -0.44383  -0.43705  -0.43214  -0.42977  -0.42672
 Alpha  occ. eigenvalues --   -0.42206  -0.42130  -0.41677  -0.41397  -0.41192
 Alpha  occ. eigenvalues --   -0.40994  -0.40728  -0.40338  -0.40303  -0.39973
 Alpha  occ. eigenvalues --   -0.39782  -0.39724  -0.39441  -0.39332  -0.39053
 Alpha  occ. eigenvalues --   -0.38981  -0.38770  -0.38651  -0.38587  -0.38172
 Alpha  occ. eigenvalues --   -0.37990  -0.37749  -0.37599  -0.37401  -0.37314
 Alpha  occ. eigenvalues --   -0.37117  -0.37023  -0.36760  -0.36432  -0.36344
 Alpha  occ. eigenvalues --   -0.36258  -0.35881  -0.35716  -0.35549  -0.35463
 Alpha  occ. eigenvalues --   -0.35325  -0.35161  -0.35121  -0.34833  -0.34519
 Alpha  occ. eigenvalues --   -0.34422  -0.34314  -0.34200  -0.34076  -0.33910
 Alpha  occ. eigenvalues --   -0.33820  -0.33752  -0.33649  -0.33353  -0.33179
 Alpha  occ. eigenvalues --   -0.32915  -0.32904  -0.32766  -0.32590  -0.32235
 Alpha  occ. eigenvalues --   -0.32146  -0.32033  -0.31944  -0.31789  -0.31668
 Alpha  occ. eigenvalues --   -0.31604  -0.31447  -0.31126  -0.30972  -0.30700
 Alpha  occ. eigenvalues --   -0.30541  -0.30300  -0.30198  -0.29988  -0.29875
 Alpha  occ. eigenvalues --   -0.29625  -0.29461  -0.29281  -0.29209  -0.29032
 Alpha  occ. eigenvalues --   -0.28613  -0.28513  -0.28445  -0.28291  -0.28171
 Alpha  occ. eigenvalues --   -0.27987  -0.27511  -0.27384  -0.26962  -0.26468
 Alpha  occ. eigenvalues --   -0.26314  -0.26195  -0.25856  -0.25802  -0.25553
 Alpha  occ. eigenvalues --   -0.25366  -0.24924  -0.24085  -0.23704  -0.23415
 Alpha  occ. eigenvalues --   -0.23389  -0.22736  -0.22024  -0.20679  -0.20381
 Alpha  occ. eigenvalues --   -0.20065  -0.19978  -0.18836  -0.18701  -0.17251
 Alpha  occ. eigenvalues --   -0.15947
 Alpha virt. eigenvalues --   -0.11725  -0.07194  -0.06638  -0.04613  -0.04013
 Alpha virt. eigenvalues --   -0.02726  -0.02266  -0.02178  -0.01632  -0.00008
 Alpha virt. eigenvalues --    0.01190   0.01497   0.02087   0.02528   0.02753

 Mulliken charges:
               1
     1  Mg   0.681628
     2  C   -0.004671
     3  C   -0.087348
     4  C   -0.032868
     5  C   -0.062839
     6  N   -0.227093
     7  C   -0.112549
     8  C    0.090906
     9  C   -0.037669
    10  C    0.095881
    11  C    0.093134
    12  C    0.150856
    13  C    0.155358
    14  C    0.073437
    15  O   -0.181168
    16  O   -0.331880
    17  N   -0.305351
    18  C    0.105543
    19  C   -0.117836
    20  C    0.026847
    21  C    0.100045
    22  C    0.135264
    23  C   -0.034920
    24  O   -0.170262
    25  C    0.095127
    26  N   -0.189853
    27  C   -0.035293
    28  C    0.044058
    29  C    0.045854
    30  C    0.029415
    31  C    0.143065
    32  C    0.086294
    33  C    0.059843
    34  N   -0.259188
    35  C    0.089827
    36  C   -0.176702
    37  C    0.100051
    38  C    0.081175
    39  C    0.178456
    40  C   -0.070653
    41  O   -0.156908
    42  C    0.131064
    43  C    0.108144
    44  O   -0.234783
    45  O   -0.245140
    46  C    0.216157
    47  C    0.304758
    48  C   -0.101593
    49  C   -0.215065
    50  C    0.176221
    51  C    0.168674
    52  C    0.100288
    53  C    0.054354
    54  C   -0.022997
    55  C    0.117189
    56  C    0.032334
    57  C    0.074372
    58  C    0.105207
    59  C   -0.042633
    60  C    0.105934
    61  C    0.071519
    62  C    0.067334
    63  C    0.105637
    64  C   -0.094093
    65  C    0.101594
    66  C    0.106293
    67  H   -0.044592
    68  H   -0.049547
    69  H   -0.067838
    70  H   -0.012961
    71  H   -0.020208
    72  H   -0.001602
    73  H    0.006602
    74  H    0.002150
    75  H   -0.030178
    76  H   -0.030408
    77  H    0.002326
    78  H   -0.005296
    79  H   -0.014240
    80  H   -0.003511
    81  H    0.015265
    82  H    0.008092
    83  H   -0.005224
    84  H   -0.001317
    85  H   -0.020872
    86  H   -0.025519
    87  H   -0.007058
    88  H   -0.003933
    89  H    0.000580
    90  H   -0.026250
    91  H   -0.032085
    92  H   -0.004235
    93  H   -0.005674
    94  H    0.002026
    95  H   -0.004547
    96  H    0.023249
    97  H   -0.000169
    98  H   -0.010276
    99  H    0.020508
   100  H    0.020501
   101  H    0.004691
   102  H    0.013921
   103  H    0.017299
   104  H   -0.033567
   105  H   -0.015316
   106  H   -0.018200
   107  H    0.011564
   108  H   -0.024499
   109  H   -0.047528
   110  H   -0.026366
   111  H   -0.019245
   112  H   -0.032081
   113  H   -0.017637
   114  H   -0.033822
   115  H   -0.020993
   116  H   -0.021932
   117  H   -0.024984
   118  H   -0.028378
   119  H   -0.032716
   120  H   -0.030163
   121  H   -0.034557
   122  H   -0.041929
   123  H   -0.044694
   124  H   -0.034172
   125  H   -0.013816
   126  H   -0.007953
   127  H   -0.016438
   128  H   -0.042178
   129  H   -0.037799
   130  H   -0.032015
   131  H   -0.031401
   132  H   -0.024121
   133  H   -0.039173
   134  H   -0.033665
   135  H   -0.024319
   136  H   -0.021832
   137  H   -0.018633
   138  H    0.000383
   139  H   -0.029342
   140  H   -0.023925
 Sum of Mulliken charges =  -0.00000

 Dipole moment (field-independent basis, Debye):
    X=              4.8589    Y=              2.2885    Z=             -3.5311  Tot=              6.4277
 Quadrupole moment (field-independent basis, Debye-Ang):
   XX=           -387.9424   YY=           -439.7889   ZZ=           -408.1701
   XY=            -43.5711   XZ=             21.7279   YZ=             10.5916

 Normal termination of Gaussian 16 at Sat Apr 30 04:11:57 2022.
