 Gaussian 16, Revision A.03,
 Gaussian 16:  ES64L-G16RevA.03 25-Dec-2016

 -----------------------------------
 #p cam-b3lyp/Def2SVP td=(nstates=5)
 -----------------------------------

 -------------------------------------------------------
 step_551_chromophore_21 TDDFT with cam-b3lyp functional
 -------------------------------------------------------
 Symbolic Z-matrix:
 Charge =  0 Multiplicity = 1

                         Standard orientation:
 ---------------------------------------------------------------------
 Center     Atomic      Atomic             Coordinates (Angstroms)
 Number     Number       Type             X           Y           Z
 ---------------------------------------------------------------------
      1         12           0       -4.990023    1.246641   -0.295895
      2          6           0       -4.945773   -2.248424    0.128088
      3          6           0       -1.539511    1.228034   -0.038863
      4          6           0       -5.083792    4.576906   -0.112643
      5          6           0       -8.518656    1.217611    0.203318
      6          7           0       -3.462499   -0.303629   -0.018065
      7          6           0       -3.663475   -1.706626   -0.135405
      8          6           0       -2.379150   -2.449433   -0.265315
      9          6           0       -1.316546   -1.293003   -0.143462
     10          6           0       -2.169622   -0.015891   -0.133429
     11          6           0       -0.437572   -1.237854    1.192685
     12          6           0       -2.302323   -3.261894   -1.462752
     13          6           0       -1.642898   -4.582809   -1.510981
     14          6           0       -0.503092   -4.920910   -0.515427
     15          8           0       -0.527408   -5.749087    0.379411
     16          8           0        0.682060   -4.188146   -0.791582
     17          7           0       -3.523016    2.761383   -0.283161
     18          6           0       -2.172553    2.526462   -0.078424
     19          6           0       -1.532091    3.737069    0.025930
     20          6           0       -2.497716    4.760157   -0.055609
     21          6           0       -3.786013    4.105174   -0.220568
     22          6           0        0.047048    3.838154   -0.127329
     23          6           0       -2.308406    6.303527    0.045141
     24          8           0       -3.272054    7.068045   -0.083011
     25          6           0       -0.943656    6.948067    0.537288
     26          7           0       -6.561139    2.705936    0.014331
     27          6           0       -6.324148    4.009067   -0.190243
     28          6           0       -7.627989    4.810181   -0.360720
     29          6           0       -8.712466    3.700730   -0.247030
     30          6           0       -7.892669    2.469293   -0.023805
     31          6           0       -7.740382    6.019220    0.562216
     32          6           0       -9.648915    3.591020   -1.480495
     33          6           0      -11.120410    3.228898   -1.090249
     34          7           0       -6.472822   -0.191579    0.031563
     35          6           0       -7.851738   -0.084779    0.226157
     36          6           0       -8.456256   -1.432777    0.442634
     37          6           0       -7.335440   -2.302742    0.424586
     38          6           0       -6.151669   -1.493998    0.189882
     39          6           0       -9.911349   -1.776702    0.482006
     40          6           0       -6.940254   -3.681477    0.445094
     41          8           0       -7.625610   -4.710412    0.633176
     42          6           0       -5.385733   -3.659449    0.342084
     43          6           0       -4.938014   -4.198270    1.589721
     44          8           0       -5.207067   -3.813171    2.771150
     45          8           0       -4.155300   -5.268950    1.427580
     46          6           0       -3.378601   -5.772979    2.592754
     47          6           0        1.867532   -4.585074    0.080494
     48          6           0        2.913418   -3.502953   -0.138328
     49          6           0        4.271987   -3.506788    0.151022
     50          6           0        4.933153   -4.697641    0.667160
     51          6           0        5.206639   -2.341347   -0.143053
     52          6           0        5.949354   -2.541375   -1.448089
     53          6           0        7.425609   -2.217638   -1.224467
     54          6           0        7.958620   -1.221612   -2.346243
     55          6           0        7.621098   -1.845606   -3.712121
     56          6           0        9.513882   -1.186773   -2.262895
     57          6           0       10.145509   -0.846234   -0.904399
     58          6           0       11.600432   -0.345342   -1.175120
     59          6           0       11.838038    1.197547   -0.952795
     60          6           0       11.695248    2.074490   -2.251420
     61          6           0       13.275271    1.373164   -0.351896
     62          6           0       13.558917    2.665200    0.384571
     63          6           0       13.771136    2.439893    1.906729
     64          6           0       15.273226    2.699805    2.326202
     65          6           0       15.809160    1.623548    3.292183
     66          6           0       15.434549    4.127447    2.928044
     67          1           0       -0.498680    1.311577    0.283301
     68          1           0       -5.195452    5.661077   -0.051208
     69          1           0       -9.602779    1.234532    0.334877
     70          1           0       -2.282473   -3.054183    0.636015
     71          1           0       -0.616044   -1.383939   -0.974005
     72          1           0       -0.291745   -2.258657    1.547304
     73          1           0       -0.971410   -0.587434    1.885341
     74          1           0        0.548959   -0.791282    1.074661
     75          1           0       -1.868746   -2.820167   -2.360227
     76          1           0       -3.347922   -3.379656   -1.747296
     77          1           0       -1.269546   -4.858577   -2.497694
     78          1           0       -2.430385   -5.294524   -1.260162
     79          1           0        0.526449    2.887900   -0.361502
     80          1           0        0.359182    4.058023    0.893399
     81          1           0        0.474190    4.521639   -0.861009
     82          1           0       -0.059643    6.835714   -0.089356
     83          1           0       -0.654548    6.452282    1.464108
     84          1           0       -1.127742    7.976470    0.846735
     85          1           0       -7.541916    5.164658   -1.388125
     86          1           0       -9.339078    3.894605    0.624254
     87          1           0       -8.683283    6.050627    1.108835
     88          1           0       -7.587612    6.975910    0.062742
     89          1           0       -6.882886    5.916830    1.226309
     90          1           0       -9.269627    3.046144   -2.344652
     91          1           0       -9.705503    4.569741   -1.955436
     92          1           0      -11.720286    4.051178   -1.481061
     93          1           0      -11.277698    3.185024   -0.011912
     94          1           0      -11.445944    2.257831   -1.462885
     95          1           0      -10.349419   -1.102159    1.218120
     96          1           0       -9.995680   -2.839560    0.707011
     97          1           0      -10.435376   -1.491592   -0.430856
     98          1           0       -5.112441   -4.239395   -0.540184
     99          1           0       -2.496368   -6.303636    2.232412
    100          1           0       -4.018945   -6.372031    3.239593
    101          1           0       -2.880475   -5.051656    3.240681
    102          1           0        2.106967   -5.615637   -0.179701
    103          1           0        1.588231   -4.521189    1.132193
    104          1           0        2.480145   -2.565249   -0.485205
    105          1           0        5.895733   -4.834398    0.174310
    106          1           0        4.341323   -5.550987    0.337293
    107          1           0        5.038509   -4.565815    1.744388
    108          1           0        5.825445   -2.164016    0.737544
    109          1           0        4.566273   -1.466700   -0.250485
    110          1           0        5.573232   -1.883764   -2.232468
    111          1           0        5.764366   -3.559445   -1.789957
    112          1           0        8.009710   -3.136095   -1.292160
    113          1           0        7.579857   -1.791651   -0.232591
    114          1           0        7.558597   -0.226024   -2.151631
    115          1           0        7.351057   -2.899114   -3.778186
    116          1           0        8.407441   -1.792826   -4.465366
    117          1           0        6.734409   -1.393318   -4.158327
    118          1           0        9.966241   -0.434388   -2.908356
    119          1           0       10.007176   -2.116847   -2.542476
    120          1           0       10.163383   -1.742552   -0.284983
    121          1           0        9.506878   -0.118383   -0.405490
    122          1           0       11.895587   -0.612835   -2.189811
    123          1           0       12.256280   -1.022928   -0.628061
    124          1           0       11.173925    1.647490   -0.215886
    125          1           0       11.901635    1.502587   -3.156619
    126          1           0       12.394025    2.889798   -2.066043
    127          1           0       10.661986    2.400877   -2.374744
    128          1           0       14.074593    1.249114   -1.083055
    129          1           0       13.427640    0.493145    0.273124
    130          1           0       12.821346    3.466855    0.348374
    131          1           0       14.417652    3.117494   -0.112828
    132          1           0       13.441474    1.450902    2.224853
    133          1           0       13.145008    3.194399    2.384045
    134          1           0       15.901637    2.726482    1.435665
    135          1           0       14.955103    1.078103    3.692022
    136          1           0       16.395935    1.967969    4.144126
    137          1           0       16.439784    0.864207    2.827571
    138          1           0       15.286994    4.049128    4.005018
    139          1           0       14.766552    4.779535    2.365584
    140          1           0       16.382716    4.568490    2.619989
 ---------------------------------------------------------------------

 SCF Done:  E(RCAM-B3LYP) =  -3007.15573901     A.U. after   19 cycles

 Excitation energies and oscillator strengths:

 Excited State   1:      Singlet-A      1.6806 eV  737.73 nm  f=0.3808  <S**2>=0.000
     245 -> 248        0.18702
     246 -> 247        0.68431
     245 <- 248        0.10973
 This state for optimization and/or second-order correction.
 Total Energy, E(TD-HF/TD-DFT) =  -3007.09397752
 Copying the excited state density for this state as the 1-particle RhoCI density.

 Excited State   2:      Singlet-A      2.1764 eV  569.68 nm  f=0.1166  <S**2>=0.000
     245 -> 247        0.63999
     246 -> 248       -0.28700

 Excited State   3:      Singlet-A      3.2999 eV  375.72 nm  f=0.0348  <S**2>=0.000
     242 -> 247       -0.39149
     243 -> 247        0.50838
     246 -> 248       -0.25257

 Excited State   4:      Singlet-A      3.4404 eV  360.37 nm  f=0.2531  <S**2>=0.000
     241 -> 247        0.25302
     241 -> 249        0.12551
     242 -> 247        0.16468
     243 -> 247        0.36471
     245 -> 247        0.17900
     246 -> 248        0.44845

 Excited State   5:      Singlet-A      3.4710 eV  357.20 nm  f=0.0095  <S**2>=0.000
     239 -> 247        0.14214
     239 -> 249        0.10436
     240 -> 247       -0.16054
     241 -> 247        0.41787
     241 -> 249        0.28170
     241 -> 251       -0.11155
     242 -> 247       -0.23562
     243 -> 247       -0.24299

 The electronic state is 1-A.
 Alpha  occ. eigenvalues --  -46.89141 -19.24979 -19.24694 -19.21260 -19.19372
 Alpha  occ. eigenvalues --  -19.18644 -19.17735 -14.42584 -14.41979 -14.39881
 Alpha  occ. eigenvalues --  -14.39135 -10.40438 -10.38441 -10.36125 -10.34762
 Alpha  occ. eigenvalues --  -10.32980 -10.31708 -10.31040 -10.30798 -10.30620
 Alpha  occ. eigenvalues --  -10.30591 -10.30286 -10.30011 -10.29461 -10.29296
 Alpha  occ. eigenvalues --  -10.28647 -10.28471 -10.28186 -10.28120 -10.28067
 Alpha  occ. eigenvalues --  -10.28035 -10.27985 -10.27590 -10.27559 -10.27484
 Alpha  occ. eigenvalues --  -10.27468 -10.27410 -10.27359 -10.27019 -10.26963
 Alpha  occ. eigenvalues --  -10.26770 -10.26745 -10.26502 -10.26465 -10.26393
 Alpha  occ. eigenvalues --  -10.26249 -10.26087 -10.25956 -10.25895 -10.25857
 Alpha  occ. eigenvalues --  -10.25716 -10.25697 -10.25619 -10.25432 -10.25337
 Alpha  occ. eigenvalues --  -10.25323 -10.25009 -10.24829 -10.24789 -10.24782
 Alpha  occ. eigenvalues --  -10.24741 -10.24634 -10.24633 -10.24466 -10.24405
 Alpha  occ. eigenvalues --  -10.24252  -3.17567  -1.92470  -1.92022  -1.91865
 Alpha  occ. eigenvalues --   -1.15648  -1.15459  -1.09463  -1.08030  -1.07276
 Alpha  occ. eigenvalues --   -1.04790  -1.04093  -1.03908  -1.02895  -1.02287
 Alpha  occ. eigenvalues --   -0.93439  -0.91820  -0.91328  -0.89684  -0.89452
 Alpha  occ. eigenvalues --   -0.88820  -0.88767  -0.87302  -0.87146  -0.86515
 Alpha  occ. eigenvalues --   -0.85817  -0.85647  -0.84818  -0.83826  -0.83560
 Alpha  occ. eigenvalues --   -0.82792  -0.81888  -0.81083  -0.80825  -0.80205
 Alpha  occ. eigenvalues --   -0.79869  -0.78713  -0.77803  -0.77534  -0.76398
 Alpha  occ. eigenvalues --   -0.75941  -0.75496  -0.75352  -0.74973  -0.73900
 Alpha  occ. eigenvalues --   -0.73215  -0.72795  -0.71576  -0.70951  -0.69616
 Alpha  occ. eigenvalues --   -0.69052  -0.68848  -0.67232  -0.66984  -0.66117
 Alpha  occ. eigenvalues --   -0.65865  -0.65651  -0.64978  -0.64688  -0.63914
 Alpha  occ. eigenvalues --   -0.63384  -0.63165  -0.62626  -0.62059  -0.60617
 Alpha  occ. eigenvalues --   -0.60338  -0.59616  -0.59403  -0.58900  -0.58779
 Alpha  occ. eigenvalues --   -0.57683  -0.56866  -0.56479  -0.56133  -0.55599
 Alpha  occ. eigenvalues --   -0.55173  -0.54987  -0.54936  -0.54405  -0.54012
 Alpha  occ. eigenvalues --   -0.53933  -0.53452  -0.53317  -0.53158  -0.52766
 Alpha  occ. eigenvalues --   -0.52646  -0.52337  -0.52246  -0.51890  -0.51680
 Alpha  occ. eigenvalues --   -0.51384  -0.51128  -0.51037  -0.50937  -0.50751
 Alpha  occ. eigenvalues --   -0.50456  -0.50001  -0.49892  -0.49822  -0.49616
 Alpha  occ. eigenvalues --   -0.49421  -0.49238  -0.49124  -0.48849  -0.48614
 Alpha  occ. eigenvalues --   -0.48397  -0.48198  -0.48028  -0.47742  -0.47631
 Alpha  occ. eigenvalues --   -0.47550  -0.47316  -0.47141  -0.46946  -0.46614
 Alpha  occ. eigenvalues --   -0.46243  -0.46189  -0.46098  -0.46045  -0.45709
 Alpha  occ. eigenvalues --   -0.45628  -0.45497  -0.45440  -0.45034  -0.44930
 Alpha  occ. eigenvalues --   -0.44590  -0.44459  -0.44392  -0.44270  -0.43895
 Alpha  occ. eigenvalues --   -0.43838  -0.43577  -0.43562  -0.43322  -0.43084
 Alpha  occ. eigenvalues --   -0.43053  -0.42979  -0.42626  -0.42385  -0.42276
 Alpha  occ. eigenvalues --   -0.42102  -0.41886  -0.41515  -0.41441  -0.41258
 Alpha  occ. eigenvalues --   -0.40815  -0.40801  -0.40564  -0.40450  -0.40356
 Alpha  occ. eigenvalues --   -0.40076  -0.39641  -0.39413  -0.39228  -0.39127
 Alpha  occ. eigenvalues --   -0.38867  -0.38409  -0.38321  -0.37785  -0.37725
 Alpha  occ. eigenvalues --   -0.37462  -0.37043  -0.37020  -0.36480  -0.36341
 Alpha  occ. eigenvalues --   -0.35926  -0.35492  -0.35127  -0.34819  -0.34661
 Alpha  occ. eigenvalues --   -0.33768  -0.33071  -0.32615  -0.31309  -0.31077
 Alpha  occ. eigenvalues --   -0.30733  -0.29891  -0.29709  -0.29615  -0.24003
 Alpha  occ. eigenvalues --   -0.21241
 Alpha virt. eigenvalues --   -0.08904  -0.02048  -0.00170   0.02209   0.02408
 Alpha virt. eigenvalues --    0.03784   0.05204   0.05351   0.05675   0.07014
 Alpha virt. eigenvalues --    0.07797   0.08228   0.08710   0.08827   0.09129

 Mulliken charges:
               1
     1  Mg   0.812415
     2  C   -0.030912
     3  C   -0.097407
     4  C   -0.053207
     5  C   -0.063827
     6  N   -0.295566
     7  C   -0.065495
     8  C    0.023483
     9  C   -0.079442
    10  C    0.107225
    11  C    0.039913
    12  C    0.095729
    13  C    0.092052
    14  C    0.149067
    15  O   -0.222160
    16  O   -0.395845
    17  N   -0.394517
    18  C    0.115842
    19  C   -0.123623
    20  C   -0.039013
    21  C    0.127610
    22  C    0.076838
    23  C    0.039101
    24  O   -0.210184
    25  C    0.024039
    26  N   -0.258125
    27  C   -0.011095
    28  C   -0.011546
    29  C   -0.014451
    30  C    0.046244
    31  C    0.077625
    32  C    0.029517
    33  C   -0.002742
    34  N   -0.346433
    35  C    0.091247
    36  C   -0.164681
    37  C    0.020341
    38  C    0.118306
    39  C    0.124392
    40  C    0.028006
    41  O   -0.196451
    42  C    0.040628
    43  C    0.203125
    44  O   -0.273847
    45  O   -0.308915
    46  C    0.178222
    47  C    0.275247
    48  C   -0.119520
    49  C   -0.234405
    50  C    0.109859
    51  C    0.111229
    52  C    0.040711
    53  C    0.006072
    54  C   -0.082289
    55  C    0.049078
    56  C   -0.012221
    57  C    0.021084
    58  C    0.045836
    59  C   -0.096652
    60  C    0.052098
    61  C    0.019670
    62  C    0.009418
    63  C    0.048490
    64  C   -0.150699
    65  C    0.040009
    66  C    0.048097
    67  H   -0.011806
    68  H   -0.010322
    69  H   -0.031501
    70  H    0.020368
    71  H    0.014450
    72  H    0.018714
    73  H    0.033015
    74  H    0.023589
    75  H    0.003291
    76  H    0.002094
    77  H    0.035804
    78  H    0.026652
    79  H    0.014539
    80  H    0.022435
    81  H    0.040199
    82  H    0.034805
    83  H    0.022065
    84  H    0.032471
    85  H    0.014669
    86  H    0.009889
    87  H    0.018546
    88  H    0.021639
    89  H    0.025768
    90  H    0.004780
    91  H   -0.002058
    92  H    0.020195
    93  H    0.015573
    94  H    0.024565
    95  H    0.019094
    96  H    0.050544
    97  H    0.025741
    98  H    0.034980
    99  H    0.044321
   100  H    0.044654
   101  H    0.028270
   102  H    0.040793
   103  H    0.044365
   104  H   -0.002514
   105  H    0.008866
   106  H    0.005918
   107  H    0.036791
   108  H    0.005379
   109  H   -0.015635
   110  H    0.003908
   111  H    0.009550
   112  H   -0.004033
   113  H    0.008422
   114  H   -0.002274
   115  H    0.004817
   116  H    0.005452
   117  H    0.000759
   118  H   -0.002019
   119  H   -0.004736
   120  H   -0.002183
   121  H   -0.007427
   122  H   -0.012589
   123  H   -0.012980
   124  H   -0.003751
   125  H    0.008432
   126  H    0.014132
   127  H    0.007065
   128  H   -0.012461
   129  H   -0.009346
   130  H   -0.003673
   131  H   -0.002898
   132  H    0.003247
   133  H   -0.008479
   134  H   -0.002578
   135  H   -0.000845
   136  H    0.003559
   137  H    0.005997
   138  H    0.022836
   139  H   -0.005992
   140  H    0.001500
 Sum of Mulliken charges =  -0.00000

 Dipole moment (field-independent basis, Debye):
    X=              5.4188    Y=              2.7675    Z=             -3.6789  Tot=              7.1103
 Quadrupole moment (field-independent basis, Debye-Ang):
   XX=           -389.0237   YY=           -436.2936   ZZ=           -408.3920
   XY=            -44.8820   XZ=             23.3206   YZ=             11.5763

 Normal termination of Gaussian 16 at Sat Apr 30 03:01:31 2022.
