 Gaussian 16, Revision A.03,
 Gaussian 16:  ES64L-G16RevA.03 25-Dec-2016

 ---------------------------------
 #p PBE1PBE/Def2SVP td=(nstates=5)
 ---------------------------------

 -----------------------------------------------------
 step_551_chromophore_21 TDDFT with PBE1PBE functional
 -----------------------------------------------------
 Symbolic Z-matrix:
 Charge =  0 Multiplicity = 1

                         Standard orientation:
 ---------------------------------------------------------------------
 Center     Atomic      Atomic             Coordinates (Angstroms)
 Number     Number       Type             X           Y           Z
 ---------------------------------------------------------------------
      1         12           0       -4.990023    1.246641   -0.295895
      2          6           0       -4.945773   -2.248424    0.128088
      3          6           0       -1.539511    1.228034   -0.038863
      4          6           0       -5.083792    4.576906   -0.112643
      5          6           0       -8.518656    1.217611    0.203318
      6          7           0       -3.462499   -0.303629   -0.018065
      7          6           0       -3.663475   -1.706626   -0.135405
      8          6           0       -2.379150   -2.449433   -0.265315
      9          6           0       -1.316546   -1.293003   -0.143462
     10          6           0       -2.169622   -0.015891   -0.133429
     11          6           0       -0.437572   -1.237854    1.192685
     12          6           0       -2.302323   -3.261894   -1.462752
     13          6           0       -1.642898   -4.582809   -1.510981
     14          6           0       -0.503092   -4.920910   -0.515427
     15          8           0       -0.527408   -5.749087    0.379411
     16          8           0        0.682060   -4.188146   -0.791582
     17          7           0       -3.523016    2.761383   -0.283161
     18          6           0       -2.172553    2.526462   -0.078424
     19          6           0       -1.532091    3.737069    0.025930
     20          6           0       -2.497716    4.760157   -0.055609
     21          6           0       -3.786013    4.105174   -0.220568
     22          6           0        0.047048    3.838154   -0.127329
     23          6           0       -2.308406    6.303527    0.045141
     24          8           0       -3.272054    7.068045   -0.083011
     25          6           0       -0.943656    6.948067    0.537288
     26          7           0       -6.561139    2.705936    0.014331
     27          6           0       -6.324148    4.009067   -0.190243
     28          6           0       -7.627989    4.810181   -0.360720
     29          6           0       -8.712466    3.700730   -0.247030
     30          6           0       -7.892669    2.469293   -0.023805
     31          6           0       -7.740382    6.019220    0.562216
     32          6           0       -9.648915    3.591020   -1.480495
     33          6           0      -11.120410    3.228898   -1.090249
     34          7           0       -6.472822   -0.191579    0.031563
     35          6           0       -7.851738   -0.084779    0.226157
     36          6           0       -8.456256   -1.432777    0.442634
     37          6           0       -7.335440   -2.302742    0.424586
     38          6           0       -6.151669   -1.493998    0.189882
     39          6           0       -9.911349   -1.776702    0.482006
     40          6           0       -6.940254   -3.681477    0.445094
     41          8           0       -7.625610   -4.710412    0.633176
     42          6           0       -5.385733   -3.659449    0.342084
     43          6           0       -4.938014   -4.198270    1.589721
     44          8           0       -5.207067   -3.813171    2.771150
     45          8           0       -4.155300   -5.268950    1.427580
     46          6           0       -3.378601   -5.772979    2.592754
     47          6           0        1.867532   -4.585074    0.080494
     48          6           0        2.913418   -3.502953   -0.138328
     49          6           0        4.271987   -3.506788    0.151022
     50          6           0        4.933153   -4.697641    0.667160
     51          6           0        5.206639   -2.341347   -0.143053
     52          6           0        5.949354   -2.541375   -1.448089
     53          6           0        7.425609   -2.217638   -1.224467
     54          6           0        7.958620   -1.221612   -2.346243
     55          6           0        7.621098   -1.845606   -3.712121
     56          6           0        9.513882   -1.186773   -2.262895
     57          6           0       10.145509   -0.846234   -0.904399
     58          6           0       11.600432   -0.345342   -1.175120
     59          6           0       11.838038    1.197547   -0.952795
     60          6           0       11.695248    2.074490   -2.251420
     61          6           0       13.275271    1.373164   -0.351896
     62          6           0       13.558917    2.665200    0.384571
     63          6           0       13.771136    2.439893    1.906729
     64          6           0       15.273226    2.699805    2.326202
     65          6           0       15.809160    1.623548    3.292183
     66          6           0       15.434549    4.127447    2.928044
     67          1           0       -0.498680    1.311577    0.283301
     68          1           0       -5.195452    5.661077   -0.051208
     69          1           0       -9.602779    1.234532    0.334877
     70          1           0       -2.282473   -3.054183    0.636015
     71          1           0       -0.616044   -1.383939   -0.974005
     72          1           0       -0.291745   -2.258657    1.547304
     73          1           0       -0.971410   -0.587434    1.885341
     74          1           0        0.548959   -0.791282    1.074661
     75          1           0       -1.868746   -2.820167   -2.360227
     76          1           0       -3.347922   -3.379656   -1.747296
     77          1           0       -1.269546   -4.858577   -2.497694
     78          1           0       -2.430385   -5.294524   -1.260162
     79          1           0        0.526449    2.887900   -0.361502
     80          1           0        0.359182    4.058023    0.893399
     81          1           0        0.474190    4.521639   -0.861009
     82          1           0       -0.059643    6.835714   -0.089356
     83          1           0       -0.654548    6.452282    1.464108
     84          1           0       -1.127742    7.976470    0.846735
     85          1           0       -7.541916    5.164658   -1.388125
     86          1           0       -9.339078    3.894605    0.624254
     87          1           0       -8.683283    6.050627    1.108835
     88          1           0       -7.587612    6.975910    0.062742
     89          1           0       -6.882886    5.916830    1.226309
     90          1           0       -9.269627    3.046144   -2.344652
     91          1           0       -9.705503    4.569741   -1.955436
     92          1           0      -11.720286    4.051178   -1.481061
     93          1           0      -11.277698    3.185024   -0.011912
     94          1           0      -11.445944    2.257831   -1.462885
     95          1           0      -10.349419   -1.102159    1.218120
     96          1           0       -9.995680   -2.839560    0.707011
     97          1           0      -10.435376   -1.491592   -0.430856
     98          1           0       -5.112441   -4.239395   -0.540184
     99          1           0       -2.496368   -6.303636    2.232412
    100          1           0       -4.018945   -6.372031    3.239593
    101          1           0       -2.880475   -5.051656    3.240681
    102          1           0        2.106967   -5.615637   -0.179701
    103          1           0        1.588231   -4.521189    1.132193
    104          1           0        2.480145   -2.565249   -0.485205
    105          1           0        5.895733   -4.834398    0.174310
    106          1           0        4.341323   -5.550987    0.337293
    107          1           0        5.038509   -4.565815    1.744388
    108          1           0        5.825445   -2.164016    0.737544
    109          1           0        4.566273   -1.466700   -0.250485
    110          1           0        5.573232   -1.883764   -2.232468
    111          1           0        5.764366   -3.559445   -1.789957
    112          1           0        8.009710   -3.136095   -1.292160
    113          1           0        7.579857   -1.791651   -0.232591
    114          1           0        7.558597   -0.226024   -2.151631
    115          1           0        7.351057   -2.899114   -3.778186
    116          1           0        8.407441   -1.792826   -4.465366
    117          1           0        6.734409   -1.393318   -4.158327
    118          1           0        9.966241   -0.434388   -2.908356
    119          1           0       10.007176   -2.116847   -2.542476
    120          1           0       10.163383   -1.742552   -0.284983
    121          1           0        9.506878   -0.118383   -0.405490
    122          1           0       11.895587   -0.612835   -2.189811
    123          1           0       12.256280   -1.022928   -0.628061
    124          1           0       11.173925    1.647490   -0.215886
    125          1           0       11.901635    1.502587   -3.156619
    126          1           0       12.394025    2.889798   -2.066043
    127          1           0       10.661986    2.400877   -2.374744
    128          1           0       14.074593    1.249114   -1.083055
    129          1           0       13.427640    0.493145    0.273124
    130          1           0       12.821346    3.466855    0.348374
    131          1           0       14.417652    3.117494   -0.112828
    132          1           0       13.441474    1.450902    2.224853
    133          1           0       13.145008    3.194399    2.384045
    134          1           0       15.901637    2.726482    1.435665
    135          1           0       14.955103    1.078103    3.692022
    136          1           0       16.395935    1.967969    4.144126
    137          1           0       16.439784    0.864207    2.827571
    138          1           0       15.286994    4.049128    4.005018
    139          1           0       14.766552    4.779535    2.365584
    140          1           0       16.382716    4.568490    2.619989
 ---------------------------------------------------------------------

 SCF Done:  E(RPBE1PBE) =  -3005.34491572     A.U. after   16 cycles

 Excitation energies and oscillator strengths:

 Excited State   1:      Singlet-A      1.8366 eV  675.08 nm  f=0.3630  <S**2>=0.000
     245 -> 248        0.18276
     246 -> 247        0.69113
     246 <- 247       -0.10711
 This state for optimization and/or second-order correction.
 Total Energy, E(TD-HF/TD-DFT) =  -3005.27742228
 Copying the excited state density for this state as the 1-particle RhoCI density.

 Excited State   2:      Singlet-A      2.1811 eV  568.44 nm  f=0.1127  <S**2>=0.000
     245 -> 247        0.65136
     246 -> 248       -0.26128

 Excited State   3:      Singlet-A      2.9664 eV  417.97 nm  f=0.0011  <S**2>=0.000
     241 -> 247       -0.35594
     241 -> 249       -0.14244
     242 -> 247        0.31187
     243 -> 247        0.47833

 Excited State   4:      Singlet-A      3.0040 eV  412.73 nm  f=0.0008  <S**2>=0.000
     240 -> 247       -0.12620
     241 -> 247        0.38264
     242 -> 247       -0.26575
     243 -> 247        0.47835
     246 -> 248        0.10312

 Excited State   5:      Singlet-A      3.0762 eV  403.04 nm  f=0.0009  <S**2>=0.000
     240 -> 247        0.65312
     240 -> 249       -0.12830
     243 -> 247        0.14328

 The electronic state is 1-A.
 Alpha  occ. eigenvalues --  -46.92542 -19.25705 -19.25313 -19.21530 -19.19500
 Alpha  occ. eigenvalues --  -19.18965 -19.18036 -14.42157 -14.41417 -14.39573
 Alpha  occ. eigenvalues --  -14.38812 -10.37526 -10.35461 -10.33226 -10.31972
 Alpha  occ. eigenvalues --  -10.30411 -10.29509 -10.28694 -10.28482 -10.28414
 Alpha  occ. eigenvalues --  -10.28043 -10.27950 -10.27632 -10.27069 -10.27056
 Alpha  occ. eigenvalues --  -10.26403 -10.26336 -10.25846 -10.25829 -10.25743
 Alpha  occ. eigenvalues --  -10.25658 -10.25584 -10.25419 -10.25277 -10.25226
 Alpha  occ. eigenvalues --  -10.25035 -10.25012 -10.24874 -10.24689 -10.24593
 Alpha  occ. eigenvalues --  -10.24460 -10.24452 -10.24089 -10.23957 -10.23887
 Alpha  occ. eigenvalues --  -10.23670 -10.23565 -10.23443 -10.23408 -10.23396
 Alpha  occ. eigenvalues --  -10.23251 -10.23194 -10.23180 -10.23169 -10.22987
 Alpha  occ. eigenvalues --  -10.22906 -10.22613 -10.22370 -10.22275 -10.22211
 Alpha  occ. eigenvalues --  -10.22207 -10.22194 -10.22192 -10.21972 -10.21851
 Alpha  occ. eigenvalues --  -10.21636  -3.14550  -1.87394  -1.86923  -1.86771
 Alpha  occ. eigenvalues --   -1.10431  -1.10250  -1.04108  -1.02806  -1.02167
 Alpha  occ. eigenvalues --   -0.99396  -0.98825  -0.98574  -0.97557  -0.97009
 Alpha  occ. eigenvalues --   -0.87824  -0.86089  -0.85454  -0.83767  -0.83759
 Alpha  occ. eigenvalues --   -0.83086  -0.82914  -0.81638  -0.81244  -0.80849
 Alpha  occ. eigenvalues --   -0.80098  -0.79893  -0.78986  -0.78159  -0.77845
 Alpha  occ. eigenvalues --   -0.76974  -0.76177  -0.75320  -0.75170  -0.74362
 Alpha  occ. eigenvalues --   -0.73945  -0.73021  -0.72106  -0.71794  -0.70713
 Alpha  occ. eigenvalues --   -0.70088  -0.69719  -0.69574  -0.69077  -0.68079
 Alpha  occ. eigenvalues --   -0.67655  -0.67140  -0.66009  -0.65257  -0.63960
 Alpha  occ. eigenvalues --   -0.63457  -0.63132  -0.61658  -0.61201  -0.60553
 Alpha  occ. eigenvalues --   -0.60367  -0.59839  -0.59502  -0.59283  -0.58044
 Alpha  occ. eigenvalues --   -0.57694  -0.57560  -0.56812  -0.56643  -0.55082
 Alpha  occ. eigenvalues --   -0.54851  -0.54144  -0.53923  -0.53482  -0.53337
 Alpha  occ. eigenvalues --   -0.52332  -0.51424  -0.50958  -0.50669  -0.50047
 Alpha  occ. eigenvalues --   -0.49748  -0.49531  -0.49355  -0.48924  -0.48542
 Alpha  occ. eigenvalues --   -0.48448  -0.47969  -0.47814  -0.47707  -0.47419
 Alpha  occ. eigenvalues --   -0.47122  -0.46866  -0.46796  -0.46413  -0.46092
 Alpha  occ. eigenvalues --   -0.45939  -0.45672  -0.45639  -0.45490  -0.45356
 Alpha  occ. eigenvalues --   -0.45127  -0.44597  -0.44508  -0.44391  -0.44209
 Alpha  occ. eigenvalues --   -0.43946  -0.43748  -0.43629  -0.43492  -0.43244
 Alpha  occ. eigenvalues --   -0.43084  -0.42846  -0.42630  -0.42384  -0.42284
 Alpha  occ. eigenvalues --   -0.42188  -0.41940  -0.41793  -0.41582  -0.41290
 Alpha  occ. eigenvalues --   -0.40954  -0.40867  -0.40823  -0.40781  -0.40445
 Alpha  occ. eigenvalues --   -0.40421  -0.40200  -0.40067  -0.39679  -0.39582
 Alpha  occ. eigenvalues --   -0.39373  -0.39300  -0.39153  -0.39021  -0.38696
 Alpha  occ. eigenvalues --   -0.38582  -0.38374  -0.38278  -0.38122  -0.37898
 Alpha  occ. eigenvalues --   -0.37815  -0.37761  -0.37426  -0.37163  -0.37099
 Alpha  occ. eigenvalues --   -0.36910  -0.36610  -0.36302  -0.36227  -0.36178
 Alpha  occ. eigenvalues --   -0.35582  -0.35529  -0.35440  -0.35317  -0.35178
 Alpha  occ. eigenvalues --   -0.34866  -0.34527  -0.34194  -0.34140  -0.34000
 Alpha  occ. eigenvalues --   -0.33681  -0.33274  -0.33143  -0.32748  -0.32539
 Alpha  occ. eigenvalues --   -0.32404  -0.32082  -0.31860  -0.31422  -0.31310
 Alpha  occ. eigenvalues --   -0.30843  -0.30387  -0.30132  -0.29847  -0.29660
 Alpha  occ. eigenvalues --   -0.28756  -0.28645  -0.27445  -0.26768  -0.25860
 Alpha  occ. eigenvalues --   -0.25751  -0.25485  -0.25309  -0.24949  -0.20953
 Alpha  occ. eigenvalues --   -0.18888
 Alpha virt. eigenvalues --   -0.11351  -0.05565  -0.04386  -0.02030  -0.00814
 Alpha virt. eigenvalues --   -0.00473   0.00760   0.00807   0.01238   0.03030
 Alpha virt. eigenvalues --    0.04022   0.04480   0.04932   0.05451   0.05695

 Mulliken charges:
               1
     1  Mg   0.957518
     2  C   -0.034370
     3  C   -0.077674
     4  C   -0.056411
     5  C   -0.051745
     6  N   -0.394147
     7  C   -0.001796
     8  C   -0.060844
     9  C   -0.142260
    10  C    0.132194
    11  C   -0.022529
    12  C    0.049480
    13  C    0.016336
    14  C    0.211628
    15  O   -0.255362
    16  O   -0.421638
    17  N   -0.508753
    18  C    0.139911
    19  C   -0.152363
    20  C   -0.092440
    21  C    0.167928
    22  C    0.017384
    23  C    0.090713
    24  O   -0.245888
    25  C   -0.047366
    26  N   -0.362919
    27  C    0.027022
    28  C   -0.086247
    29  C   -0.098659
    30  C    0.085279
    31  C    0.015870
    32  C   -0.025278
    33  C   -0.074780
    34  N   -0.470899
    35  C    0.113021
    36  C   -0.175372
    37  C   -0.023302
    38  C    0.169370
    39  C    0.068039
    40  C    0.112660
    41  O   -0.240863
    42  C   -0.077683
    43  C    0.302059
    44  O   -0.307249
    45  O   -0.342920
    46  C    0.122675
    47  C    0.235443
    48  C   -0.129181
    49  C   -0.284477
    50  C    0.046975
    51  C    0.048681
    52  C   -0.021639
    53  C   -0.042054
    54  C   -0.183988
    55  C   -0.006762
    56  C   -0.065577
    57  C   -0.038998
    58  C   -0.009495
    59  C   -0.180303
    60  C   -0.007968
    61  C   -0.033563
    62  C   -0.050653
    63  C   -0.009586
    64  C   -0.238816
    65  C   -0.019834
    66  C   -0.015676
    67  H    0.020086
    68  H    0.022724
    69  H    0.002474
    70  H    0.063609
    71  H    0.050180
    72  H    0.048420
    73  H    0.062087
    74  H    0.050148
    75  H    0.034670
    76  H    0.037924
    77  H    0.066698
    78  H    0.060053
    79  H    0.039636
    80  H    0.051134
    81  H    0.066405
    82  H    0.059620
    83  H    0.048973
    84  H    0.058911
    85  H    0.053072
    86  H    0.047249
    87  H    0.046114
    88  H    0.049183
    89  H    0.053940
    90  H    0.036302
    91  H    0.032119
    92  H    0.048209
    93  H    0.041319
    94  H    0.051697
    95  H    0.047149
    96  H    0.077705
    97  H    0.053789
    98  H    0.072722
    99  H    0.067011
   100  H    0.066751
   101  H    0.049322
   102  H    0.065609
   103  H    0.070964
   104  H    0.028356
   105  H    0.037083
   106  H    0.033961
   107  H    0.064828
   108  H    0.037100
   109  H    0.017903
   110  H    0.037588
   111  H    0.042163
   112  H    0.028480
   113  H    0.039990
   114  H    0.034149
   115  H    0.032239
   116  H    0.033461
   117  H    0.029039
   118  H    0.034755
   119  H    0.028501
   120  H    0.030457
   121  H    0.025338
   122  H    0.019254
   123  H    0.018364
   124  H    0.034123
   125  H    0.034728
   126  H    0.042979
   127  H    0.034971
   128  H    0.020361
   129  H    0.023116
   130  H    0.027021
   131  H    0.028323
   132  H    0.034040
   133  H    0.024944
   134  H    0.035031
   135  H    0.026583
   136  H    0.030548
   137  H    0.033850
   138  H    0.049784
   139  H    0.022817
   140  H    0.029934
 Sum of Mulliken charges =  -0.00000

 Dipole moment (field-independent basis, Debye):
    X=              5.2523    Y=              2.6557    Z=             -3.7070  Tot=              6.9556
 Quadrupole moment (field-independent basis, Debye-Ang):
   XX=           -381.6564   YY=           -433.7661   ZZ=           -406.0160
   XY=            -45.7538   XZ=             23.4609   YZ=             11.4461

 Normal termination of Gaussian 16 at Sat Apr 30 03:31:18 2022.
