 Gaussian 16, Revision A.03,
 Gaussian 16:  ES64L-G16RevA.03 25-Dec-2016

 --------------------------------
 #p wB97XD/Def2SVP td=(nstates=5)
 --------------------------------

 ----------------------------------------------------
 step_551_chromophore_21 TDDFT with wB97XD functional
 ----------------------------------------------------
 Symbolic Z-matrix:
 Charge =  0 Multiplicity = 1

                         Standard orientation:
 ---------------------------------------------------------------------
 Center     Atomic      Atomic             Coordinates (Angstroms)
 Number     Number       Type             X           Y           Z
 ---------------------------------------------------------------------
      1         12           0       -4.990023    1.246641   -0.295895
      2          6           0       -4.945773   -2.248424    0.128088
      3          6           0       -1.539511    1.228034   -0.038863
      4          6           0       -5.083792    4.576906   -0.112643
      5          6           0       -8.518656    1.217611    0.203318
      6          7           0       -3.462499   -0.303629   -0.018065
      7          6           0       -3.663475   -1.706626   -0.135405
      8          6           0       -2.379150   -2.449433   -0.265315
      9          6           0       -1.316546   -1.293003   -0.143462
     10          6           0       -2.169622   -0.015891   -0.133429
     11          6           0       -0.437572   -1.237854    1.192685
     12          6           0       -2.302323   -3.261894   -1.462752
     13          6           0       -1.642898   -4.582809   -1.510981
     14          6           0       -0.503092   -4.920910   -0.515427
     15          8           0       -0.527408   -5.749087    0.379411
     16          8           0        0.682060   -4.188146   -0.791582
     17          7           0       -3.523016    2.761383   -0.283161
     18          6           0       -2.172553    2.526462   -0.078424
     19          6           0       -1.532091    3.737069    0.025930
     20          6           0       -2.497716    4.760157   -0.055609
     21          6           0       -3.786013    4.105174   -0.220568
     22          6           0        0.047048    3.838154   -0.127329
     23          6           0       -2.308406    6.303527    0.045141
     24          8           0       -3.272054    7.068045   -0.083011
     25          6           0       -0.943656    6.948067    0.537288
     26          7           0       -6.561139    2.705936    0.014331
     27          6           0       -6.324148    4.009067   -0.190243
     28          6           0       -7.627989    4.810181   -0.360720
     29          6           0       -8.712466    3.700730   -0.247030
     30          6           0       -7.892669    2.469293   -0.023805
     31          6           0       -7.740382    6.019220    0.562216
     32          6           0       -9.648915    3.591020   -1.480495
     33          6           0      -11.120410    3.228898   -1.090249
     34          7           0       -6.472822   -0.191579    0.031563
     35          6           0       -7.851738   -0.084779    0.226157
     36          6           0       -8.456256   -1.432777    0.442634
     37          6           0       -7.335440   -2.302742    0.424586
     38          6           0       -6.151669   -1.493998    0.189882
     39          6           0       -9.911349   -1.776702    0.482006
     40          6           0       -6.940254   -3.681477    0.445094
     41          8           0       -7.625610   -4.710412    0.633176
     42          6           0       -5.385733   -3.659449    0.342084
     43          6           0       -4.938014   -4.198270    1.589721
     44          8           0       -5.207067   -3.813171    2.771150
     45          8           0       -4.155300   -5.268950    1.427580
     46          6           0       -3.378601   -5.772979    2.592754
     47          6           0        1.867532   -4.585074    0.080494
     48          6           0        2.913418   -3.502953   -0.138328
     49          6           0        4.271987   -3.506788    0.151022
     50          6           0        4.933153   -4.697641    0.667160
     51          6           0        5.206639   -2.341347   -0.143053
     52          6           0        5.949354   -2.541375   -1.448089
     53          6           0        7.425609   -2.217638   -1.224467
     54          6           0        7.958620   -1.221612   -2.346243
     55          6           0        7.621098   -1.845606   -3.712121
     56          6           0        9.513882   -1.186773   -2.262895
     57          6           0       10.145509   -0.846234   -0.904399
     58          6           0       11.600432   -0.345342   -1.175120
     59          6           0       11.838038    1.197547   -0.952795
     60          6           0       11.695248    2.074490   -2.251420
     61          6           0       13.275271    1.373164   -0.351896
     62          6           0       13.558917    2.665200    0.384571
     63          6           0       13.771136    2.439893    1.906729
     64          6           0       15.273226    2.699805    2.326202
     65          6           0       15.809160    1.623548    3.292183
     66          6           0       15.434549    4.127447    2.928044
     67          1           0       -0.498680    1.311577    0.283301
     68          1           0       -5.195452    5.661077   -0.051208
     69          1           0       -9.602779    1.234532    0.334877
     70          1           0       -2.282473   -3.054183    0.636015
     71          1           0       -0.616044   -1.383939   -0.974005
     72          1           0       -0.291745   -2.258657    1.547304
     73          1           0       -0.971410   -0.587434    1.885341
     74          1           0        0.548959   -0.791282    1.074661
     75          1           0       -1.868746   -2.820167   -2.360227
     76          1           0       -3.347922   -3.379656   -1.747296
     77          1           0       -1.269546   -4.858577   -2.497694
     78          1           0       -2.430385   -5.294524   -1.260162
     79          1           0        0.526449    2.887900   -0.361502
     80          1           0        0.359182    4.058023    0.893399
     81          1           0        0.474190    4.521639   -0.861009
     82          1           0       -0.059643    6.835714   -0.089356
     83          1           0       -0.654548    6.452282    1.464108
     84          1           0       -1.127742    7.976470    0.846735
     85          1           0       -7.541916    5.164658   -1.388125
     86          1           0       -9.339078    3.894605    0.624254
     87          1           0       -8.683283    6.050627    1.108835
     88          1           0       -7.587612    6.975910    0.062742
     89          1           0       -6.882886    5.916830    1.226309
     90          1           0       -9.269627    3.046144   -2.344652
     91          1           0       -9.705503    4.569741   -1.955436
     92          1           0      -11.720286    4.051178   -1.481061
     93          1           0      -11.277698    3.185024   -0.011912
     94          1           0      -11.445944    2.257831   -1.462885
     95          1           0      -10.349419   -1.102159    1.218120
     96          1           0       -9.995680   -2.839560    0.707011
     97          1           0      -10.435376   -1.491592   -0.430856
     98          1           0       -5.112441   -4.239395   -0.540184
     99          1           0       -2.496368   -6.303636    2.232412
    100          1           0       -4.018945   -6.372031    3.239593
    101          1           0       -2.880475   -5.051656    3.240681
    102          1           0        2.106967   -5.615637   -0.179701
    103          1           0        1.588231   -4.521189    1.132193
    104          1           0        2.480145   -2.565249   -0.485205
    105          1           0        5.895733   -4.834398    0.174310
    106          1           0        4.341323   -5.550987    0.337293
    107          1           0        5.038509   -4.565815    1.744388
    108          1           0        5.825445   -2.164016    0.737544
    109          1           0        4.566273   -1.466700   -0.250485
    110          1           0        5.573232   -1.883764   -2.232468
    111          1           0        5.764366   -3.559445   -1.789957
    112          1           0        8.009710   -3.136095   -1.292160
    113          1           0        7.579857   -1.791651   -0.232591
    114          1           0        7.558597   -0.226024   -2.151631
    115          1           0        7.351057   -2.899114   -3.778186
    116          1           0        8.407441   -1.792826   -4.465366
    117          1           0        6.734409   -1.393318   -4.158327
    118          1           0        9.966241   -0.434388   -2.908356
    119          1           0       10.007176   -2.116847   -2.542476
    120          1           0       10.163383   -1.742552   -0.284983
    121          1           0        9.506878   -0.118383   -0.405490
    122          1           0       11.895587   -0.612835   -2.189811
    123          1           0       12.256280   -1.022928   -0.628061
    124          1           0       11.173925    1.647490   -0.215886
    125          1           0       11.901635    1.502587   -3.156619
    126          1           0       12.394025    2.889798   -2.066043
    127          1           0       10.661986    2.400877   -2.374744
    128          1           0       14.074593    1.249114   -1.083055
    129          1           0       13.427640    0.493145    0.273124
    130          1           0       12.821346    3.466855    0.348374
    131          1           0       14.417652    3.117494   -0.112828
    132          1           0       13.441474    1.450902    2.224853
    133          1           0       13.145008    3.194399    2.384045
    134          1           0       15.901637    2.726482    1.435665
    135          1           0       14.955103    1.078103    3.692022
    136          1           0       16.395935    1.967969    4.144126
    137          1           0       16.439784    0.864207    2.827571
    138          1           0       15.286994    4.049128    4.005018
    139          1           0       14.766552    4.779535    2.365584
    140          1           0       16.382716    4.568490    2.619989
 ---------------------------------------------------------------------

 SCF Done:  E(RwB97XD) =  -3007.85360656     A.U. after   20 cycles

 Excitation energies and oscillator strengths:

 Excited State   1:      Singlet-A      1.6209 eV  764.89 nm  f=0.3792  <S**2>=0.000
     245 -> 248        0.19270
     246 -> 247        0.68214
     245 <- 248        0.11930
 This state for optimization and/or second-order correction.
 Total Energy, E(TD-HF/TD-DFT) =  -3007.79403829
 Copying the excited state density for this state as the 1-particle RhoCI density.

 Excited State   2:      Singlet-A      2.1192 eV  585.04 nm  f=0.1135  <S**2>=0.000
     245 -> 247        0.63797
     246 -> 248       -0.28924

 Excited State   3:      Singlet-A      3.3094 eV  374.64 nm  f=0.0441  <S**2>=0.000
     242 -> 247       -0.42302
     243 -> 247        0.46476
     246 -> 248       -0.27273

 Excited State   4:      Singlet-A      3.4605 eV  358.28 nm  f=0.2946  <S**2>=0.000
     241 -> 247        0.20122
     241 -> 249        0.11223
     242 -> 247        0.11274
     243 -> 247        0.40488
     245 -> 247        0.18994
     246 -> 248        0.46189

 Excited State   5:      Singlet-A      3.5036 eV  353.88 nm  f=0.0054  <S**2>=0.000
     239 -> 247        0.11820
     241 -> 247        0.44812
     241 -> 249        0.32958
     241 -> 250        0.16531
     242 -> 247       -0.20214
     243 -> 247       -0.20853

 The electronic state is 1-A.
 Alpha  occ. eigenvalues --  -46.95487 -19.30220 -19.29879 -19.26164 -19.24416
 Alpha  occ. eigenvalues --  -19.23709 -19.22712 -14.47176 -14.46576 -14.44478
 Alpha  occ. eigenvalues --  -14.43762 -10.44269 -10.42272 -10.40147 -10.38793
 Alpha  occ. eigenvalues --  -10.36900 -10.35753 -10.35063 -10.34634 -10.34596
 Alpha  occ. eigenvalues --  -10.34549 -10.34294 -10.34065 -10.33517 -10.33302
 Alpha  occ. eigenvalues --  -10.32782 -10.32589 -10.32142 -10.32141 -10.32099
 Alpha  occ. eigenvalues --  -10.32085 -10.32077 -10.31658 -10.31598 -10.31536
 Alpha  occ. eigenvalues --  -10.31502 -10.31449 -10.31364 -10.31035 -10.30961
 Alpha  occ. eigenvalues --  -10.30748 -10.30714 -10.30478 -10.30339 -10.30267
 Alpha  occ. eigenvalues --  -10.30244 -10.29958 -10.29802 -10.29802 -10.29715
 Alpha  occ. eigenvalues --  -10.29679 -10.29670 -10.29561 -10.29382 -10.29377
 Alpha  occ. eigenvalues --  -10.29283 -10.28968 -10.28715 -10.28660 -10.28658
 Alpha  occ. eigenvalues --  -10.28646 -10.28574 -10.28559 -10.28338 -10.28285
 Alpha  occ. eigenvalues --  -10.28060  -3.21359  -1.94951  -1.94479  -1.94326
 Alpha  occ. eigenvalues --   -1.17818  -1.17598  -1.11695  -1.10256  -1.09485
 Alpha  occ. eigenvalues --   -1.06792  -1.06209  -1.05964  -1.04959  -1.04323
 Alpha  occ. eigenvalues --   -0.95408  -0.93689  -0.93136  -0.91450  -0.91343
 Alpha  occ. eigenvalues --   -0.90681  -0.90592  -0.89229  -0.88922  -0.88462
 Alpha  occ. eigenvalues --   -0.87743  -0.87550  -0.86653  -0.85782  -0.85448
 Alpha  occ. eigenvalues --   -0.84637  -0.83807  -0.82969  -0.82786  -0.82035
 Alpha  occ. eigenvalues --   -0.81786  -0.80634  -0.79752  -0.79456  -0.78325
 Alpha  occ. eigenvalues --   -0.77783  -0.77304  -0.77278  -0.76783  -0.75744
 Alpha  occ. eigenvalues --   -0.75186  -0.74733  -0.73548  -0.72872  -0.71514
 Alpha  occ. eigenvalues --   -0.71010  -0.70765  -0.69221  -0.68860  -0.68036
 Alpha  occ. eigenvalues --   -0.67840  -0.67499  -0.66998  -0.66697  -0.65730
 Alpha  occ. eigenvalues --   -0.65221  -0.65146  -0.64458  -0.64042  -0.62560
 Alpha  occ. eigenvalues --   -0.62342  -0.61579  -0.61380  -0.60865  -0.60756
 Alpha  occ. eigenvalues --   -0.59684  -0.58804  -0.58420  -0.58073  -0.57496
 Alpha  occ. eigenvalues --   -0.57124  -0.56916  -0.56845  -0.56310  -0.55908
 Alpha  occ. eigenvalues --   -0.55847  -0.55342  -0.55231  -0.55078  -0.54720
 Alpha  occ. eigenvalues --   -0.54535  -0.54225  -0.54145  -0.53792  -0.53614
 Alpha  occ. eigenvalues --   -0.53288  -0.53035  -0.52949  -0.52817  -0.52662
 Alpha  occ. eigenvalues --   -0.52397  -0.51919  -0.51840  -0.51747  -0.51527
 Alpha  occ. eigenvalues --   -0.51327  -0.51161  -0.51017  -0.50827  -0.50553
 Alpha  occ. eigenvalues --   -0.50324  -0.50105  -0.49973  -0.49653  -0.49553
 Alpha  occ. eigenvalues --   -0.49452  -0.49204  -0.49032  -0.48830  -0.48534
 Alpha  occ. eigenvalues --   -0.48129  -0.48102  -0.48026  -0.47979  -0.47636
 Alpha  occ. eigenvalues --   -0.47580  -0.47400  -0.47300  -0.46875  -0.46852
 Alpha  occ. eigenvalues --   -0.46533  -0.46387  -0.46299  -0.46176  -0.45848
 Alpha  occ. eigenvalues --   -0.45766  -0.45483  -0.45433  -0.45225  -0.44991
 Alpha  occ. eigenvalues --   -0.44916  -0.44879  -0.44535  -0.44252  -0.44209
 Alpha  occ. eigenvalues --   -0.44063  -0.43866  -0.43414  -0.43364  -0.43190
 Alpha  occ. eigenvalues --   -0.42736  -0.42661  -0.42478  -0.42331  -0.42225
 Alpha  occ. eigenvalues --   -0.41933  -0.41526  -0.41258  -0.41066  -0.41018
 Alpha  occ. eigenvalues --   -0.40709  -0.40249  -0.40226  -0.39678  -0.39637
 Alpha  occ. eigenvalues --   -0.39461  -0.39048  -0.38888  -0.38398  -0.38323
 Alpha  occ. eigenvalues --   -0.37796  -0.37339  -0.37162  -0.36724  -0.36657
 Alpha  occ. eigenvalues --   -0.35602  -0.35307  -0.34558  -0.33456  -0.33060
 Alpha  occ. eigenvalues --   -0.32738  -0.32067  -0.31889  -0.31668  -0.25921
 Alpha  occ. eigenvalues --   -0.23045
 Alpha virt. eigenvalues --   -0.07269  -0.00138   0.01901   0.04457   0.05363
 Alpha virt. eigenvalues --    0.06049   0.07469   0.07559   0.07996   0.09715
 Alpha virt. eigenvalues --    0.10434   0.11351   0.11631   0.12198   0.12471

 Mulliken charges:
               1
     1  Mg   0.948954
     2  C   -0.043882
     3  C   -0.101186
     4  C   -0.066624
     5  C   -0.066807
     6  N   -0.363860
     7  C   -0.022783
     8  C   -0.029759
     9  C   -0.126316
    10  C    0.128361
    11  C   -0.006071
    12  C    0.055335
    13  C    0.035537
    14  C    0.197696
    15  O   -0.252766
    16  O   -0.420916
    17  N   -0.477500
    18  C    0.133708
    19  C   -0.140875
    20  C   -0.082726
    21  C    0.155939
    22  C    0.028956
    23  C    0.083238
    24  O   -0.240251
    25  C   -0.034176
    26  N   -0.328618
    27  C    0.015229
    28  C   -0.063628
    29  C   -0.066157
    30  C    0.069584
    31  C    0.027398
    32  C   -0.016402
    33  C   -0.059417
    34  N   -0.433680
    35  C    0.102222
    36  C   -0.172900
    37  C   -0.022867
    38  C    0.151596
    39  C    0.078733
    40  C    0.099535
    41  O   -0.231310
    42  C   -0.035144
    43  C    0.274467
    44  O   -0.301910
    45  O   -0.340284
    46  C    0.137400
    47  C    0.246723
    48  C   -0.137917
    49  C   -0.262925
    50  C    0.058383
    51  C    0.067013
    52  C   -0.007076
    53  C   -0.027109
    54  C   -0.148946
    55  C    0.000956
    56  C   -0.045314
    57  C   -0.026771
    58  C    0.008675
    59  C   -0.154282
    60  C    0.004129
    61  C   -0.014117
    62  C   -0.039194
    63  C    0.008146
    64  C   -0.211693
    65  C   -0.008204
    66  C   -0.002261
    67  H    0.009789
    68  H    0.014767
    69  H   -0.004736
    70  H    0.045534
    71  H    0.041338
    72  H    0.040756
    73  H    0.054336
    74  H    0.044516
    75  H    0.029110
    76  H    0.026440
    77  H    0.062908
    78  H    0.053828
    79  H    0.036464
    80  H    0.045265
    81  H    0.062464
    82  H    0.055829
    83  H    0.043031
    84  H    0.057905
    85  H    0.042219
    86  H    0.034542
    87  H    0.041528
    88  H    0.044631
    89  H    0.045792
    90  H    0.030103
    91  H    0.022755
    92  H    0.043482
    93  H    0.034538
    94  H    0.046212
    95  H    0.040720
    96  H    0.074950
    97  H    0.048605
    98  H    0.065593
    99  H    0.063925
   100  H    0.063605
   101  H    0.045222
   102  H    0.061440
   103  H    0.065754
   104  H    0.023270
   105  H    0.030310
   106  H    0.026877
   107  H    0.060237
   108  H    0.028971
   109  H    0.010728
   110  H    0.027648
   111  H    0.032152
   112  H    0.018817
   113  H    0.028170
   114  H    0.025474
   115  H    0.025461
   116  H    0.028146
   117  H    0.022793
   118  H    0.019770
   119  H    0.018307
   120  H    0.022397
   121  H    0.015504
   122  H    0.007777
   123  H    0.011386
   124  H    0.021677
   125  H    0.028524
   126  H    0.035487
   127  H    0.029517
   128  H    0.012348
   129  H    0.010632
   130  H    0.019553
   131  H    0.019778
   132  H    0.024181
   133  H    0.016210
   134  H    0.023043
   135  H    0.019350
   136  H    0.025127
   137  H    0.028462
   138  H    0.043917
   139  H    0.014937
   140  H    0.024616
 Sum of Mulliken charges =  -0.00000

 Dipole moment (field-independent basis, Debye):
    X=              5.5037    Y=              2.8573    Z=             -3.7251  Tot=              7.2341
 Quadrupole moment (field-independent basis, Debye-Ang):
   XX=           -383.7840   YY=           -432.1463   ZZ=           -405.6766
   XY=            -45.2635   XZ=             23.8245   YZ=             11.6465

 Normal termination of Gaussian 16 at Sat Apr 30 03:59:28 2022.
