 Gaussian 16, Revision A.03,
 Gaussian 16:  ES64L-G16RevA.03 25-Dec-2016

 --------------------
 #p ZINDO=(nstates=5)
 --------------------

 -----------------------------
 step_551_chromophore_21 ZINDO
 -----------------------------
 Symbolic Z-matrix:
 Charge =  0 Multiplicity = 1

                         Standard orientation:
 ---------------------------------------------------------------------
 Center     Atomic      Atomic             Coordinates (Angstroms)
 Number     Number       Type             X           Y           Z
 ---------------------------------------------------------------------
      1         12           0       -4.990023    1.246641   -0.295895
      2          6           0       -4.945773   -2.248424    0.128088
      3          6           0       -1.539511    1.228034   -0.038863
      4          6           0       -5.083792    4.576906   -0.112643
      5          6           0       -8.518656    1.217611    0.203318
      6          7           0       -3.462499   -0.303629   -0.018065
      7          6           0       -3.663475   -1.706626   -0.135405
      8          6           0       -2.379150   -2.449433   -0.265315
      9          6           0       -1.316546   -1.293003   -0.143462
     10          6           0       -2.169622   -0.015891   -0.133429
     11          6           0       -0.437572   -1.237854    1.192685
     12          6           0       -2.302323   -3.261894   -1.462752
     13          6           0       -1.642898   -4.582809   -1.510981
     14          6           0       -0.503092   -4.920910   -0.515427
     15          8           0       -0.527408   -5.749087    0.379411
     16          8           0        0.682060   -4.188146   -0.791582
     17          7           0       -3.523016    2.761383   -0.283161
     18          6           0       -2.172553    2.526462   -0.078424
     19          6           0       -1.532091    3.737069    0.025930
     20          6           0       -2.497716    4.760157   -0.055609
     21          6           0       -3.786013    4.105174   -0.220568
     22          6           0        0.047048    3.838154   -0.127329
     23          6           0       -2.308406    6.303527    0.045141
     24          8           0       -3.272054    7.068045   -0.083011
     25          6           0       -0.943656    6.948067    0.537288
     26          7           0       -6.561139    2.705936    0.014331
     27          6           0       -6.324148    4.009067   -0.190243
     28          6           0       -7.627989    4.810181   -0.360720
     29          6           0       -8.712466    3.700730   -0.247030
     30          6           0       -7.892669    2.469293   -0.023805
     31          6           0       -7.740382    6.019220    0.562216
     32          6           0       -9.648915    3.591020   -1.480495
     33          6           0      -11.120410    3.228898   -1.090249
     34          7           0       -6.472822   -0.191579    0.031563
     35          6           0       -7.851738   -0.084779    0.226157
     36          6           0       -8.456256   -1.432777    0.442634
     37          6           0       -7.335440   -2.302742    0.424586
     38          6           0       -6.151669   -1.493998    0.189882
     39          6           0       -9.911349   -1.776702    0.482006
     40          6           0       -6.940254   -3.681477    0.445094
     41          8           0       -7.625610   -4.710412    0.633176
     42          6           0       -5.385733   -3.659449    0.342084
     43          6           0       -4.938014   -4.198270    1.589721
     44          8           0       -5.207067   -3.813171    2.771150
     45          8           0       -4.155300   -5.268950    1.427580
     46          6           0       -3.378601   -5.772979    2.592754
     47          6           0        1.867532   -4.585074    0.080494
     48          6           0        2.913418   -3.502953   -0.138328
     49          6           0        4.271987   -3.506788    0.151022
     50          6           0        4.933153   -4.697641    0.667160
     51          6           0        5.206639   -2.341347   -0.143053
     52          6           0        5.949354   -2.541375   -1.448089
     53          6           0        7.425609   -2.217638   -1.224467
     54          6           0        7.958620   -1.221612   -2.346243
     55          6           0        7.621098   -1.845606   -3.712121
     56          6           0        9.513882   -1.186773   -2.262895
     57          6           0       10.145509   -0.846234   -0.904399
     58          6           0       11.600432   -0.345342   -1.175120
     59          6           0       11.838038    1.197547   -0.952795
     60          6           0       11.695248    2.074490   -2.251420
     61          6           0       13.275271    1.373164   -0.351896
     62          6           0       13.558917    2.665200    0.384571
     63          6           0       13.771136    2.439893    1.906729
     64          6           0       15.273226    2.699805    2.326202
     65          6           0       15.809160    1.623548    3.292183
     66          6           0       15.434549    4.127447    2.928044
     67          1           0       -0.498680    1.311577    0.283301
     68          1           0       -5.195452    5.661077   -0.051208
     69          1           0       -9.602779    1.234532    0.334877
     70          1           0       -2.282473   -3.054183    0.636015
     71          1           0       -0.616044   -1.383939   -0.974005
     72          1           0       -0.291745   -2.258657    1.547304
     73          1           0       -0.971410   -0.587434    1.885341
     74          1           0        0.548959   -0.791282    1.074661
     75          1           0       -1.868746   -2.820167   -2.360227
     76          1           0       -3.347922   -3.379656   -1.747296
     77          1           0       -1.269546   -4.858577   -2.497694
     78          1           0       -2.430385   -5.294524   -1.260162
     79          1           0        0.526449    2.887900   -0.361502
     80          1           0        0.359182    4.058023    0.893399
     81          1           0        0.474190    4.521639   -0.861009
     82          1           0       -0.059643    6.835714   -0.089356
     83          1           0       -0.654548    6.452282    1.464108
     84          1           0       -1.127742    7.976470    0.846735
     85          1           0       -7.541916    5.164658   -1.388125
     86          1           0       -9.339078    3.894605    0.624254
     87          1           0       -8.683283    6.050627    1.108835
     88          1           0       -7.587612    6.975910    0.062742
     89          1           0       -6.882886    5.916830    1.226309
     90          1           0       -9.269627    3.046144   -2.344652
     91          1           0       -9.705503    4.569741   -1.955436
     92          1           0      -11.720286    4.051178   -1.481061
     93          1           0      -11.277698    3.185024   -0.011912
     94          1           0      -11.445944    2.257831   -1.462885
     95          1           0      -10.349419   -1.102159    1.218120
     96          1           0       -9.995680   -2.839560    0.707011
     97          1           0      -10.435376   -1.491592   -0.430856
     98          1           0       -5.112441   -4.239395   -0.540184
     99          1           0       -2.496368   -6.303636    2.232412
    100          1           0       -4.018945   -6.372031    3.239593
    101          1           0       -2.880475   -5.051656    3.240681
    102          1           0        2.106967   -5.615637   -0.179701
    103          1           0        1.588231   -4.521189    1.132193
    104          1           0        2.480145   -2.565249   -0.485205
    105          1           0        5.895733   -4.834398    0.174310
    106          1           0        4.341323   -5.550987    0.337293
    107          1           0        5.038509   -4.565815    1.744388
    108          1           0        5.825445   -2.164016    0.737544
    109          1           0        4.566273   -1.466700   -0.250485
    110          1           0        5.573232   -1.883764   -2.232468
    111          1           0        5.764366   -3.559445   -1.789957
    112          1           0        8.009710   -3.136095   -1.292160
    113          1           0        7.579857   -1.791651   -0.232591
    114          1           0        7.558597   -0.226024   -2.151631
    115          1           0        7.351057   -2.899114   -3.778186
    116          1           0        8.407441   -1.792826   -4.465366
    117          1           0        6.734409   -1.393318   -4.158327
    118          1           0        9.966241   -0.434388   -2.908356
    119          1           0       10.007176   -2.116847   -2.542476
    120          1           0       10.163383   -1.742552   -0.284983
    121          1           0        9.506878   -0.118383   -0.405490
    122          1           0       11.895587   -0.612835   -2.189811
    123          1           0       12.256280   -1.022928   -0.628061
    124          1           0       11.173925    1.647490   -0.215886
    125          1           0       11.901635    1.502587   -3.156619
    126          1           0       12.394025    2.889798   -2.066043
    127          1           0       10.661986    2.400877   -2.374744
    128          1           0       14.074593    1.249114   -1.083055
    129          1           0       13.427640    0.493145    0.273124
    130          1           0       12.821346    3.466855    0.348374
    131          1           0       14.417652    3.117494   -0.112828
    132          1           0       13.441474    1.450902    2.224853
    133          1           0       13.145008    3.194399    2.384045
    134          1           0       15.901637    2.726482    1.435665
    135          1           0       14.955103    1.078103    3.692022
    136          1           0       16.395935    1.967969    4.144126
    137          1           0       16.439784    0.864207    2.827571
    138          1           0       15.286994    4.049128    4.005018
    139          1           0       14.766552    4.779535    2.365584
    140          1           0       16.382716    4.568490    2.619989
 ---------------------------------------------------------------------

 SCF Done:  E(RZINDO/S) =  -474.185827391     A.U. after   20 cycles

 Excitation energies and oscillator strengths:

 Excited State   1:      Singlet-A      1.2211 eV 1015.35 nm  f=0.5978  <S**2>=0.000
     175 ->178         0.19460
     176 ->177         0.65981
 This state for optimization and/or second-order correction.
 Total Energy, E(CIS/TDA) =  -474.140952879
 Copying the excited state density for this state as the 1-particle RhoCI density.

 Excited State   2:      Singlet-A      1.8682 eV  663.64 nm  f=0.0514  <S**2>=0.000
     175 ->177         0.55145
     176 ->178        -0.40981

 Excited State   3:      Singlet-A      2.8476 eV  435.39 nm  f=0.4594  <S**2>=0.000
     175 ->177         0.28010
     176 ->178         0.47150
     176 ->179         0.37969

 Excited State   4:      Singlet-A      2.9402 eV  421.69 nm  f=0.0073  <S**2>=0.000
     169 ->177         0.32088
     169 ->178        -0.23398
     169 ->179        -0.37168
     169 ->180         0.22700
     169 ->186        -0.19807
     169 ->187        -0.11910
     169 ->200         0.10976

 Excited State   5:      Singlet-A      2.9978 eV  413.59 nm  f=0.0008  <S**2>=0.000
     168 ->177         0.29900
     168 ->179         0.33484
     168 ->180         0.40459
     168 ->186         0.21308
     168 ->187        -0.13330

 The electronic state is 1-A.
 Alpha  occ. eigenvalues --   -1.83535  -1.82584  -1.80623  -1.73212  -1.71621
 Alpha  occ. eigenvalues --   -1.69215  -1.65638  -1.61727  -1.58133  -1.56230
 Alpha  occ. eigenvalues --   -1.56092  -1.51787  -1.50289  -1.47597  -1.46309
 Alpha  occ. eigenvalues --   -1.45156  -1.41526  -1.40401  -1.39629  -1.38491
 Alpha  occ. eigenvalues --   -1.35907  -1.33139  -1.32208  -1.31356  -1.27908
 Alpha  occ. eigenvalues --   -1.27451  -1.25311  -1.21655  -1.19656  -1.17722
 Alpha  occ. eigenvalues --   -1.17401  -1.16355  -1.16100  -1.14663  -1.13916
 Alpha  occ. eigenvalues --   -1.12651  -1.09724  -1.09408  -1.05014  -1.04021
 Alpha  occ. eigenvalues --   -1.01843  -1.01503  -0.99699  -0.98340  -0.97240
 Alpha  occ. eigenvalues --   -0.96476  -0.94799  -0.93456  -0.92647  -0.91923
 Alpha  occ. eigenvalues --   -0.91141  -0.90513  -0.89539  -0.89473  -0.87127
 Alpha  occ. eigenvalues --   -0.86042  -0.84458  -0.84105  -0.83108  -0.81163
 Alpha  occ. eigenvalues --   -0.80507  -0.79421  -0.77664  -0.77012  -0.76811
 Alpha  occ. eigenvalues --   -0.76322  -0.75724  -0.75516  -0.74023  -0.73703
 Alpha  occ. eigenvalues --   -0.73471  -0.72715  -0.72204  -0.71458  -0.71104
 Alpha  occ. eigenvalues --   -0.70716  -0.70086  -0.69205  -0.68872  -0.68103
 Alpha  occ. eigenvalues --   -0.67030  -0.66449  -0.66202  -0.65920  -0.65201
 Alpha  occ. eigenvalues --   -0.64704  -0.64161  -0.63991  -0.63645  -0.63432
 Alpha  occ. eigenvalues --   -0.63059  -0.62581  -0.62395  -0.61858  -0.61714
 Alpha  occ. eigenvalues --   -0.61059  -0.60974  -0.60656  -0.60219  -0.60008
 Alpha  occ. eigenvalues --   -0.59471  -0.59382  -0.58962  -0.58707  -0.58305
 Alpha  occ. eigenvalues --   -0.58180  -0.57845  -0.57279  -0.56960  -0.56346
 Alpha  occ. eigenvalues --   -0.55913  -0.55486  -0.55162  -0.55065  -0.54592
 Alpha  occ. eigenvalues --   -0.54426  -0.54356  -0.53926  -0.53429  -0.53038
 Alpha  occ. eigenvalues --   -0.52492  -0.52228  -0.52093  -0.51803  -0.51195
 Alpha  occ. eigenvalues --   -0.50897  -0.50686  -0.50538  -0.50359  -0.50210
 Alpha  occ. eigenvalues --   -0.49912  -0.49702  -0.49625  -0.49396  -0.49284
 Alpha  occ. eigenvalues --   -0.49186  -0.48606  -0.48424  -0.48345  -0.48130
 Alpha  occ. eigenvalues --   -0.47862  -0.47751  -0.47458  -0.46601  -0.46517
 Alpha  occ. eigenvalues --   -0.46264  -0.46149  -0.45682  -0.45529  -0.45205
 Alpha  occ. eigenvalues --   -0.44955  -0.44674  -0.44240  -0.44188  -0.44095
 Alpha  occ. eigenvalues --   -0.44035  -0.43627  -0.43295  -0.43061  -0.42702
 Alpha  occ. eigenvalues --   -0.42251  -0.41271  -0.39964  -0.39476  -0.38294
 Alpha  occ. eigenvalues --   -0.37666  -0.37398  -0.35760  -0.34908  -0.34581
 Alpha  occ. eigenvalues --   -0.33040  -0.32620  -0.32118  -0.31509  -0.26492
 Alpha  occ. eigenvalues --   -0.21837
 Alpha virt. eigenvalues --   -0.08720  -0.02468  -0.00893   0.01213   0.01432
 Alpha virt. eigenvalues --    0.02004   0.02824   0.03123   0.04262   0.04594
 Alpha virt. eigenvalues --    0.05896   0.06886   0.07335   0.07822   0.07963

 Mulliken charges:
               1
     1  Mg   0.427154
     2  C   -0.041467
     3  C   -0.106921
     4  C   -0.045296
     5  C   -0.071311
     6  N   -0.286620
     7  C    0.108277
     8  C    0.024537
     9  C   -0.009695
    10  C    0.161804
    11  C   -0.054086
    12  C   -0.004194
    13  C    0.014369
    14  C    0.457311
    15  O   -0.502598
    16  O   -0.298162
    17  N   -0.341169
    18  C    0.117854
    19  C    0.001146
    20  C   -0.032825
    21  C    0.136531
    22  C   -0.055356
    23  C    0.314451
    24  O   -0.514369
    25  C   -0.033968
    26  N   -0.253281
    27  C    0.141594
    28  C    0.003036
    29  C    0.010791
    30  C    0.122492
    31  C   -0.051858
    32  C   -0.032126
    33  C   -0.059151
    34  N   -0.313329
    35  C    0.076074
    36  C    0.039983
    37  C   -0.057387
    38  C    0.113656
    39  C   -0.032638
    40  C    0.334938
    41  O   -0.534019
    42  C    0.075696
    43  C    0.505522
    44  O   -0.558190
    45  O   -0.263147
    46  C    0.074388
    47  C    0.109837
    48  C   -0.113501
    49  C   -0.005055
    50  C   -0.041447
    51  C   -0.017004
    52  C   -0.025874
    53  C   -0.036346
    54  C   -0.007633
    55  C   -0.055713
    56  C   -0.042261
    57  C   -0.042116
    58  C   -0.037616
    59  C   -0.012647
    60  C   -0.060591
    61  C   -0.034353
    62  C   -0.035842
    63  C   -0.036140
    64  C   -0.014294
    65  C   -0.058872
    66  C   -0.062697
    67  H    0.035474
    68  H    0.033689
    69  H    0.032350
    70  H    0.040916
    71  H    0.029965
    72  H    0.024204
    73  H    0.029994
    74  H    0.022005
    75  H    0.020817
    76  H    0.015084
    77  H    0.042651
    78  H    0.030655
    79  H    0.021012
    80  H    0.024786
    81  H    0.033215
    82  H    0.041264
    83  H    0.025372
    84  H    0.039416
    85  H    0.030925
    86  H    0.035472
    87  H    0.023067
    88  H    0.024753
    89  H    0.027451
    90  H    0.030036
    91  H    0.008164
    92  H    0.020554
    93  H    0.020313
    94  H    0.023091
    95  H    0.029577
    96  H    0.045542
    97  H    0.032413
    98  H    0.048960
    99  H    0.036834
   100  H    0.049705
   101  H    0.041706
   102  H    0.056662
   103  H    0.053748
   104  H    0.026010
   105  H    0.021073
   106  H    0.023132
   107  H    0.039761
   108  H    0.028809
   109  H    0.011082
   110  H    0.023800
   111  H    0.024816
   112  H    0.019379
   113  H    0.020645
   114  H    0.034945
   115  H    0.020087
   116  H    0.014080
   117  H    0.008298
   118  H    0.014323
   119  H    0.019327
   120  H    0.015399
   121  H    0.018772
   122  H    0.017430
   123  H    0.016144
   124  H    0.024862
   125  H    0.023322
   126  H    0.027362
   127  H    0.016248
   128  H    0.013459
   129  H    0.012642
   130  H    0.017334
   131  H    0.015812
   132  H    0.025636
   133  H    0.015200
   134  H    0.020278
   135  H    0.014348
   136  H    0.018294
   137  H    0.014006
   138  H    0.032429
   139  H    0.015695
   140  H    0.015644
 Sum of Mulliken charges =  -0.00000

 Dipole moment (field-independent basis, Debye):
    X=              7.0456    Y=              3.4559    Z=             -5.4401  Tot=              9.5487
 N-N= 4.284520444613D+03 E-N= 0.000000000000D+00  KE=-9.243035142921D+03
 Leave Link  601 at Sat Apr 30 04:12:04 2022, MaxMem=  6710886400 cpu:               0.8 elap:               0.0
 (Enter /sw/apps/gaussian-16.0/g16/l9999.exe)
 1\1\GINC-BP1-COMPUTE155\SP\RZINDO CIS\STO-3G\C55H74Mg1N4O6\OF15641\30-
 Apr-2022\0\\#p ZINDO=(nstates=5)\\step_551_chromophore_21 ZINDO\\0,1\M
 g,0,16.351,52.674,25.253\C,0,18.173,51.408,27.987\C,0,13.714,53.279,27
 .41\C,0,14.448,53.318,22.589\C,0,18.809,51.33,23.05\N,0,16.01,52.4,27.
 403\C,0,17.004,52.107,28.377\C,0,16.523,52.358,29.764\C,0,15.03,52.797
 ,29.52\C,0,14.927,52.899,27.991\C,0,13.88,51.777,29.965\C,0,17.35,53.2
 93,30.5\C,0,17.635,53.168,31.944\C,0,16.636,52.432,32.874\O,0,16.816,5

 Normal termination of Gaussian 16 at Sat Apr 30 04:12:04 2022.
