 Gaussian 16, Revision A.03,
 Gaussian 16:  ES64L-G16RevA.03 25-Dec-2016

 ------------------------------
 #p blyp/Def2SVP td=(nstates=5)
 ------------------------------

 ---------------------------------------------------
 step_1351_chromophore_13 TDDFT with blyp functional
 ---------------------------------------------------
 Symbolic Z-matrix:
 Charge =  0 Multiplicity = 1

                         Standard orientation:
 ---------------------------------------------------------------------
 Center     Atomic      Atomic             Coordinates (Angstroms)
 Number     Number       Type             X           Y           Z
 ---------------------------------------------------------------------
      1         12           0        5.788060    0.526609    0.374665
      2          6           0        3.673673   -2.311806    0.294475
      3          6           0        3.102638    2.532702   -0.201512
      4          6           0        8.058015    3.026210   -0.354542
      5          6           0        8.515687   -1.716269    0.601196
      6          7           0        3.608878    0.036382   -0.089092
      7          6           0        2.943542   -1.191450    0.030522
      8          6           0        1.461234   -0.972478   -0.196765
      9          6           0        1.325185    0.630861   -0.275623
     10          6           0        2.767677    1.132700   -0.306787
     11          6           0        0.650352    1.109371   -1.621816
     12          6           0        0.625075   -1.605845    0.947240
     13          6           0       -0.615834   -2.593932    0.551676
     14          6           0       -1.986606   -2.214168    0.911639
     15          8           0       -2.132966   -1.416931    1.862987
     16          8           0       -2.945315   -2.915523    0.276685
     17          7           0        5.594111    2.594959   -0.101830
     18          6           0        4.347639    3.210070   -0.188872
     19          6           0        4.631867    4.629867   -0.452699
     20          6           0        6.048287    4.771973   -0.590134
     21          6           0        6.673125    3.427883   -0.344685
     22          6           0        3.474597    5.694459   -0.629797
     23          6           0        6.800871    6.085685   -0.842528
     24          8           0        8.024223    6.200772   -0.979151
     25          6           0        5.979217    7.284943   -0.909839
     26          7           0        7.975413    0.650584    0.167748
     27          6           0        8.655902    1.761344   -0.116184
     28          6           0       10.186193    1.497967   -0.197447
     29          6           0       10.232055   -0.003543    0.104198
     30          6           0        8.877093   -0.387557    0.419423
     31          6           0       10.839243    1.745330   -1.629213
     32          6           0       11.243179   -0.387747    1.205861
     33          6           0       10.726129   -0.456656    2.631621
     34          7           0        6.105604   -1.589545    0.537219
     35          6           0        7.254324   -2.364016    0.667757
     36          6           0        6.865587   -3.734996    0.877015
     37          6           0        5.532081   -3.727315    0.595364
     38          6           0        5.074710   -2.424135    0.490454
     39          6           0        7.793331   -4.914980    1.220115
     40          6           0        4.509299   -4.636103    0.331591
     41          8           0        4.485099   -5.829070    0.330632
     42          6           0        3.213038   -3.812562    0.192712
     43          6           0        2.548329   -4.113132   -1.185237
     44          8           0        2.849218   -3.588628   -2.299424
     45          8           0        1.522367   -5.044130   -1.071633
     46          6           0        0.656128   -5.183499   -2.265524
     47          6           0       -4.321629   -2.584251    0.670734
     48          6           0       -4.910797   -1.490712   -0.195723
     49          6           0       -6.199110   -1.195321   -0.286390
     50          6           0       -7.362373   -1.843090    0.522250
     51          6           0       -6.654691   -0.071962   -1.252524
     52          6           0       -6.943355    1.357669   -0.717210
     53          6           0       -8.471408    1.636325   -0.726034
     54          6           0       -9.003653    2.817742    0.155510
     55          6           0       -8.190675    4.186632    0.017719
     56          6           0       -9.112299    2.466330    1.684263
     57          6           0      -10.516378    2.750558    2.255888
     58          6           0      -11.417377    1.459567    2.110621
     59          6           0      -12.888627    1.713940    1.620704
     60          6           0      -13.700742    2.524151    2.593563
     61          6           0      -13.559594    0.347682    1.311945
     62          6           0      -14.213297    0.300831   -0.101147
     63          6           0      -13.281227   -0.048346   -1.232105
     64          6           0      -13.342108   -1.585119   -1.674851
     65          6           0      -12.067663   -1.901629   -2.485750
     66          6           0      -14.649054   -1.802293   -2.498372
     67          1           0        2.248687    3.204871   -0.095562
     68          1           0        8.729685    3.872585   -0.513653
     69          1           0        9.414930   -2.312299    0.769290
     70          1           0        1.343539   -1.439864   -1.175120
     71          1           0        0.817971    0.948171    0.635230
     72          1           0       -0.195540    1.755090   -1.386369
     73          1           0        0.284904    0.286422   -2.235475
     74          1           0        1.252176    1.826119   -2.180996
     75          1           0        0.168584   -0.960955    1.698319
     76          1           0        1.181492   -2.250959    1.626912
     77          1           0       -0.342110   -3.588773    0.903663
     78          1           0       -0.773409   -2.789246   -0.509703
     79          1           0        3.665718    6.465803    0.116275
     80          1           0        2.488912    5.346161   -0.321301
     81          1           0        3.461090    6.201788   -1.593991
     82          1           0        6.748117    8.055179   -0.975515
     83          1           0        5.358807    7.360348   -0.016871
     84          1           0        5.427938    7.484436   -1.828560
     85          1           0       10.756225    1.979070    0.597146
     86          1           0       10.670543   -0.448086   -0.788836
     87          1           0       10.063574    2.051037   -2.331167
     88          1           0       11.295358    0.860915   -2.073571
     89          1           0       11.493017    2.587464   -1.399218
     90          1           0       12.108562    0.272124    1.154589
     91          1           0       11.573185   -1.353766    0.822524
     92          1           0       11.536609   -0.028340    3.220293
     93          1           0       10.592347   -1.514418    2.858639
     94          1           0        9.786931    0.073546    2.787247
     95          1           0        8.809189   -4.681958    0.901508
     96          1           0        7.355689   -5.805666    0.769372
     97          1           0        7.764871   -5.184446    2.275893
     98          1           0        2.667532   -4.095638    1.093598
     99          1           0        0.031819   -4.292616   -2.337932
    100          1           0        0.046472   -6.060402   -2.050986
    101          1           0        1.133801   -5.528280   -3.182181
    102          1           0       -4.485014   -2.239385    1.692362
    103          1           0       -4.894266   -3.485619    0.454919
    104          1           0       -4.197556   -0.946710   -0.815723
    105          1           0       -6.929045   -2.564984    1.215259
    106          1           0       -8.058775   -2.296717   -0.182161
    107          1           0       -7.886876   -1.061758    1.072584
    108          1           0       -7.564276   -0.447902   -1.720428
    109          1           0       -6.018008    0.160726   -2.106764
    110          1           0       -6.496188    2.093648   -1.385720
    111          1           0       -6.682765    1.531609    0.327283
    112          1           0       -9.087703    0.769651   -0.484938
    113          1           0       -8.716016    1.913916   -1.751049
    114          1           0      -10.011550    3.012078   -0.214274
    115          1           0       -8.751862    5.068558   -0.290869
    116          1           0       -7.374822    4.013180   -0.684884
    117          1           0       -7.749350    4.553685    0.944336
    118          1           0       -8.445559    3.144076    2.217328
    119          1           0       -8.869462    1.406212    1.759289
    120          1           0      -11.063489    3.615747    1.881128
    121          1           0      -10.399936    2.988662    3.313246
    122          1           0      -11.431868    0.979256    3.088926
    123          1           0      -10.954709    0.806037    1.370551
    124          1           0      -12.851629    2.432419    0.801871
    125          1           0      -14.503576    3.015139    2.042167
    126          1           0      -13.167863    3.273197    3.179831
    127          1           0      -14.273432    1.893872    3.274741
    128          1           0      -14.315142    0.175532    2.078548
    129          1           0      -12.838499   -0.461507    1.433225
    130          1           0      -14.552633    1.299554   -0.375314
    131          1           0      -15.157230   -0.240452   -0.036641
    132          1           0      -12.290845    0.156913   -0.827296
    133          1           0      -13.400179    0.499612   -2.167029
    134          1           0      -13.430776   -2.122910   -0.731470
    135          1           0      -11.311862   -1.116325   -2.491106
    136          1           0      -12.256175   -2.258306   -3.497905
    137          1           0      -11.590030   -2.674201   -1.882978
    138          1           0      -14.570793   -2.184720   -3.516984
    139          1           0      -15.235889   -0.885310   -2.550792
    140          1           0      -15.278163   -2.497047   -1.942322
 ---------------------------------------------------------------------

 SCF Done:  E(RB-LYP) =  -3007.35333357     A.U. after   21 cycles

 Excitation energies and oscillator strengths:

 Excited State   1:      Singlet-A      1.8044 eV  687.11 nm  f=0.2650  <S**2>=0.000
     244 -> 247        0.13822
     245 -> 248        0.19601
     246 -> 247        0.67030
     246 <- 247       -0.13785
 This state for optimization and/or second-order correction.
 Total Energy, E(TD-HF/TD-DFT) =  -3007.28702228
 Copying the excited state density for this state as the 1-particle RhoCI density.

 Excited State   2:      Singlet-A      1.9171 eV  646.73 nm  f=0.0497  <S**2>=0.000
     244 -> 247        0.59563
     245 -> 247        0.32854
     246 -> 247       -0.15343

 Excited State   3:      Singlet-A      1.9966 eV  620.97 nm  f=0.0020  <S**2>=0.000
     243 -> 247        0.68781
     245 -> 247        0.11990

 Excited State   4:      Singlet-A      2.0216 eV  613.29 nm  f=0.0596  <S**2>=0.000
     243 -> 247       -0.16091
     244 -> 247       -0.33758
     245 -> 247        0.54658
     246 -> 248       -0.23104

 Excited State   5:      Singlet-A      2.5473 eV  486.72 nm  f=0.0001  <S**2>=0.000
     240 -> 247        0.68829
     242 -> 247       -0.15970

 The electronic state is 1-A.
 Alpha  occ. eigenvalues --  -46.28219 -18.83857 -18.82326 -18.76871 -18.76339
 Alpha  occ. eigenvalues --  -18.75604 -18.75257 -14.03224 -14.03036 -14.01258
 Alpha  occ. eigenvalues --  -14.00628 -10.04665 -10.04176  -9.99598  -9.98716
 Alpha  occ. eigenvalues --   -9.98448  -9.97858  -9.97343  -9.96571  -9.96524
 Alpha  occ. eigenvalues --   -9.96382  -9.96311  -9.95581  -9.95314  -9.94843
 Alpha  occ. eigenvalues --   -9.94610  -9.94506  -9.94359  -9.94103  -9.93853
 Alpha  occ. eigenvalues --   -9.93687  -9.93551  -9.93500  -9.93407  -9.93397
 Alpha  occ. eigenvalues --   -9.93311  -9.93297  -9.93212  -9.93186  -9.92620
 Alpha  occ. eigenvalues --   -9.92576  -9.92409  -9.92339  -9.92309  -9.92263
 Alpha  occ. eigenvalues --   -9.92238  -9.92211  -9.92145  -9.92136  -9.92031
 Alpha  occ. eigenvalues --   -9.91989  -9.91703  -9.91574  -9.91507  -9.91410
 Alpha  occ. eigenvalues --   -9.91272  -9.91244  -9.91223  -9.91217  -9.91096
 Alpha  occ. eigenvalues --   -9.91091  -9.91047  -9.90919  -9.90823  -9.90540
 Alpha  occ. eigenvalues --   -9.89707  -2.92507  -1.72944  -1.72382  -1.72220
 Alpha  occ. eigenvalues --   -0.98930  -0.96228  -0.92726  -0.90885  -0.89423
 Alpha  occ. eigenvalues --   -0.87823  -0.86721  -0.85926  -0.84298  -0.83663
 Alpha  occ. eigenvalues --   -0.75285  -0.73572  -0.73237  -0.73026  -0.71911
 Alpha  occ. eigenvalues --   -0.71429  -0.71082  -0.70687  -0.70506  -0.69829
 Alpha  occ. eigenvalues --   -0.69490  -0.69172  -0.68025  -0.67262  -0.66948
 Alpha  occ. eigenvalues --   -0.66164  -0.65783  -0.65282  -0.64912  -0.64548
 Alpha  occ. eigenvalues --   -0.63988  -0.62726  -0.62159  -0.61775  -0.60938
 Alpha  occ. eigenvalues --   -0.60651  -0.60334  -0.59780  -0.59472  -0.58966
 Alpha  occ. eigenvalues --   -0.58546  -0.58048  -0.56667  -0.56290  -0.55333
 Alpha  occ. eigenvalues --   -0.54485  -0.54294  -0.53028  -0.52427  -0.51327
 Alpha  occ. eigenvalues --   -0.51200  -0.50856  -0.50396  -0.50228  -0.49844
 Alpha  occ. eigenvalues --   -0.49457  -0.48555  -0.48442  -0.47743  -0.46868
 Alpha  occ. eigenvalues --   -0.46018  -0.45983  -0.45174  -0.45006  -0.44494
 Alpha  occ. eigenvalues --   -0.44432  -0.43970  -0.43256  -0.43044  -0.42473
 Alpha  occ. eigenvalues --   -0.42112  -0.42027  -0.42013  -0.41324  -0.41248
 Alpha  occ. eigenvalues --   -0.41046  -0.41001  -0.40508  -0.40361  -0.40092
 Alpha  occ. eigenvalues --   -0.39733  -0.39657  -0.39326  -0.39250  -0.39145
 Alpha  occ. eigenvalues --   -0.38919  -0.38741  -0.38708  -0.38435  -0.37895
 Alpha  occ. eigenvalues --   -0.37752  -0.37418  -0.37257  -0.37207  -0.36969
 Alpha  occ. eigenvalues --   -0.36919  -0.36871  -0.36785  -0.36352  -0.36332
 Alpha  occ. eigenvalues --   -0.36174  -0.35836  -0.35657  -0.35472  -0.35431
 Alpha  occ. eigenvalues --   -0.35267  -0.35060  -0.34958  -0.34901  -0.34713
 Alpha  occ. eigenvalues --   -0.34537  -0.34328  -0.34027  -0.33940  -0.33882
 Alpha  occ. eigenvalues --   -0.33554  -0.33471  -0.33379  -0.33220  -0.33217
 Alpha  occ. eigenvalues --   -0.32797  -0.32718  -0.32539  -0.32314  -0.32132
 Alpha  occ. eigenvalues --   -0.31939  -0.31813  -0.31784  -0.31709  -0.31553
 Alpha  occ. eigenvalues --   -0.31395  -0.31172  -0.31111  -0.30911  -0.30807
 Alpha  occ. eigenvalues --   -0.30585  -0.30241  -0.30022  -0.29858  -0.29654
 Alpha  occ. eigenvalues --   -0.29466  -0.29393  -0.29246  -0.29168  -0.28870
 Alpha  occ. eigenvalues --   -0.28803  -0.28698  -0.28589  -0.28142  -0.27766
 Alpha  occ. eigenvalues --   -0.27592  -0.27435  -0.27007  -0.26603  -0.26573
 Alpha  occ. eigenvalues --   -0.25988  -0.25922  -0.25556  -0.25202  -0.25032
 Alpha  occ. eigenvalues --   -0.24934  -0.24800  -0.24254  -0.23656  -0.23548
 Alpha  occ. eigenvalues --   -0.23051  -0.22035  -0.21658  -0.21282  -0.20949
 Alpha  occ. eigenvalues --   -0.20821  -0.20445  -0.18843  -0.18590  -0.17142
 Alpha  occ. eigenvalues --   -0.15954
 Alpha virt. eigenvalues --   -0.11585  -0.06854  -0.06106  -0.04702  -0.03736
 Alpha virt. eigenvalues --   -0.03244  -0.02831  -0.01735  -0.01427   0.00045
 Alpha virt. eigenvalues --    0.01002   0.01439   0.01783   0.02496   0.02760

 Mulliken charges:
               1
     1  Mg   0.667845
     2  C   -0.017711
     3  C   -0.033844
     4  C   -0.016020
     5  C   -0.063470
     6  N   -0.246761
     7  C   -0.146083
     8  C    0.145624
     9  C   -0.024498
    10  C    0.048989
    11  C    0.109854
    12  C    0.130925
    13  C    0.050280
    14  C    0.087630
    15  O   -0.226696
    16  O   -0.246266
    17  N   -0.317809
    18  C    0.126673
    19  C   -0.141181
    20  C    0.020819
    21  C    0.081863
    22  C    0.182974
    23  C   -0.071208
    24  O   -0.169482
    25  C    0.134216
    26  N   -0.200273
    27  C    0.019214
    28  C    0.022663
    29  C    0.023797
    30  C    0.018390
    31  C    0.118205
    32  C    0.014949
    33  C    0.115257
    34  N   -0.227495
    35  C    0.107249
    36  C   -0.178207
    37  C    0.134971
    38  C    0.109541
    39  C    0.173640
    40  C   -0.118191
    41  O   -0.103318
    42  C    0.059503
    43  C    0.175421
    44  O   -0.229387
    45  O   -0.276950
    46  C    0.219365
    47  C    0.318756
    48  C   -0.115662
    49  C   -0.122576
    50  C    0.131587
    51  C    0.133637
    52  C    0.081750
    53  C    0.022001
    54  C   -0.056849
    55  C    0.083104
    56  C    0.109196
    57  C    0.065614
    58  C    0.062687
    59  C   -0.066158
    60  C    0.098397
    61  C    0.125762
    62  C    0.092827
    63  C    0.058933
    64  C   -0.100600
    65  C    0.123467
    66  C    0.100972
    67  H   -0.053958
    68  H   -0.046510
    69  H   -0.075003
    70  H   -0.006243
    71  H   -0.002639
    72  H   -0.019593
    73  H    0.001674
    74  H   -0.000850
    75  H   -0.010333
    76  H   -0.028824
    77  H    0.020190
    78  H   -0.019560
    79  H   -0.017035
    80  H   -0.016111
    81  H    0.011199
    82  H   -0.019632
    83  H    0.009698
    84  H    0.011586
    85  H   -0.022603
    86  H   -0.028413
    87  H   -0.000474
    88  H    0.001485
    89  H    0.007575
    90  H   -0.029259
    91  H   -0.021016
    92  H   -0.010036
    93  H   -0.008046
    94  H    0.007850
    95  H   -0.002068
    96  H    0.003261
    97  H   -0.000133
    98  H    0.007230
    99  H    0.022553
   100  H    0.003478
   101  H    0.023600
   102  H    0.022884
   103  H    0.008623
   104  H   -0.033535
   105  H   -0.013485
   106  H    0.006515
   107  H    0.010983
   108  H   -0.036788
   109  H   -0.040339
   110  H   -0.015315
   111  H   -0.018010
   112  H   -0.019566
   113  H   -0.035414
   114  H   -0.032973
   115  H   -0.016528
   116  H   -0.019713
   117  H   -0.021791
   118  H   -0.032583
   119  H   -0.021601
   120  H   -0.028687
   121  H   -0.040455
   122  H   -0.026684
   123  H   -0.024536
   124  H   -0.032581
   125  H   -0.028493
   126  H   -0.010713
   127  H   -0.031678
   128  H   -0.042688
   129  H   -0.035737
   130  H   -0.041580
   131  H   -0.041644
   132  H   -0.031072
   133  H   -0.028264
   134  H   -0.030877
   135  H   -0.016875
   136  H   -0.009930
   137  H   -0.022756
   138  H   -0.013546
   139  H   -0.017403
   140  H   -0.020053
 Sum of Mulliken charges =  -0.00000

 Dipole moment (field-independent basis, Debye):
    X=             -3.9129    Y=              1.5759    Z=              0.8495  Tot=              4.3030
 Quadrupole moment (field-independent basis, Debye-Ang):
   XX=           -377.3933   YY=           -424.6761   ZZ=           -408.9470
   XY=             -3.9438   XZ=             18.4533   YZ=              0.6797

 Normal termination of Gaussian 16 at Wed Apr 27 23:21:26 2022.
