 Gaussian 16, Revision A.03,
 Gaussian 16:  ES64L-G16RevA.03 25-Dec-2016

 -----------------------------------
 #p cam-b3lyp/Def2SVP td=(nstates=5)
 -----------------------------------

 --------------------------------------------------------
 step_1351_chromophore_13 TDDFT with cam-b3lyp functional
 --------------------------------------------------------
 Symbolic Z-matrix:
 Charge =  0 Multiplicity = 1

                         Standard orientation:
 ---------------------------------------------------------------------
 Center     Atomic      Atomic             Coordinates (Angstroms)
 Number     Number       Type             X           Y           Z
 ---------------------------------------------------------------------
      1         12           0        5.788060    0.526609    0.374665
      2          6           0        3.673673   -2.311806    0.294475
      3          6           0        3.102638    2.532702   -0.201512
      4          6           0        8.058015    3.026210   -0.354542
      5          6           0        8.515687   -1.716269    0.601196
      6          7           0        3.608878    0.036382   -0.089092
      7          6           0        2.943542   -1.191450    0.030522
      8          6           0        1.461234   -0.972478   -0.196765
      9          6           0        1.325185    0.630861   -0.275623
     10          6           0        2.767677    1.132700   -0.306787
     11          6           0        0.650352    1.109371   -1.621816
     12          6           0        0.625075   -1.605845    0.947240
     13          6           0       -0.615834   -2.593932    0.551676
     14          6           0       -1.986606   -2.214168    0.911639
     15          8           0       -2.132966   -1.416931    1.862987
     16          8           0       -2.945315   -2.915523    0.276685
     17          7           0        5.594111    2.594959   -0.101830
     18          6           0        4.347639    3.210070   -0.188872
     19          6           0        4.631867    4.629867   -0.452699
     20          6           0        6.048287    4.771973   -0.590134
     21          6           0        6.673125    3.427883   -0.344685
     22          6           0        3.474597    5.694459   -0.629797
     23          6           0        6.800871    6.085685   -0.842528
     24          8           0        8.024223    6.200772   -0.979151
     25          6           0        5.979217    7.284943   -0.909839
     26          7           0        7.975413    0.650584    0.167748
     27          6           0        8.655902    1.761344   -0.116184
     28          6           0       10.186193    1.497967   -0.197447
     29          6           0       10.232055   -0.003543    0.104198
     30          6           0        8.877093   -0.387557    0.419423
     31          6           0       10.839243    1.745330   -1.629213
     32          6           0       11.243179   -0.387747    1.205861
     33          6           0       10.726129   -0.456656    2.631621
     34          7           0        6.105604   -1.589545    0.537219
     35          6           0        7.254324   -2.364016    0.667757
     36          6           0        6.865587   -3.734996    0.877015
     37          6           0        5.532081   -3.727315    0.595364
     38          6           0        5.074710   -2.424135    0.490454
     39          6           0        7.793331   -4.914980    1.220115
     40          6           0        4.509299   -4.636103    0.331591
     41          8           0        4.485099   -5.829070    0.330632
     42          6           0        3.213038   -3.812562    0.192712
     43          6           0        2.548329   -4.113132   -1.185237
     44          8           0        2.849218   -3.588628   -2.299424
     45          8           0        1.522367   -5.044130   -1.071633
     46          6           0        0.656128   -5.183499   -2.265524
     47          6           0       -4.321629   -2.584251    0.670734
     48          6           0       -4.910797   -1.490712   -0.195723
     49          6           0       -6.199110   -1.195321   -0.286390
     50          6           0       -7.362373   -1.843090    0.522250
     51          6           0       -6.654691   -0.071962   -1.252524
     52          6           0       -6.943355    1.357669   -0.717210
     53          6           0       -8.471408    1.636325   -0.726034
     54          6           0       -9.003653    2.817742    0.155510
     55          6           0       -8.190675    4.186632    0.017719
     56          6           0       -9.112299    2.466330    1.684263
     57          6           0      -10.516378    2.750558    2.255888
     58          6           0      -11.417377    1.459567    2.110621
     59          6           0      -12.888627    1.713940    1.620704
     60          6           0      -13.700742    2.524151    2.593563
     61          6           0      -13.559594    0.347682    1.311945
     62          6           0      -14.213297    0.300831   -0.101147
     63          6           0      -13.281227   -0.048346   -1.232105
     64          6           0      -13.342108   -1.585119   -1.674851
     65          6           0      -12.067663   -1.901629   -2.485750
     66          6           0      -14.649054   -1.802293   -2.498372
     67          1           0        2.248687    3.204871   -0.095562
     68          1           0        8.729685    3.872585   -0.513653
     69          1           0        9.414930   -2.312299    0.769290
     70          1           0        1.343539   -1.439864   -1.175120
     71          1           0        0.817971    0.948171    0.635230
     72          1           0       -0.195540    1.755090   -1.386369
     73          1           0        0.284904    0.286422   -2.235475
     74          1           0        1.252176    1.826119   -2.180996
     75          1           0        0.168584   -0.960955    1.698319
     76          1           0        1.181492   -2.250959    1.626912
     77          1           0       -0.342110   -3.588773    0.903663
     78          1           0       -0.773409   -2.789246   -0.509703
     79          1           0        3.665718    6.465803    0.116275
     80          1           0        2.488912    5.346161   -0.321301
     81          1           0        3.461090    6.201788   -1.593991
     82          1           0        6.748117    8.055179   -0.975515
     83          1           0        5.358807    7.360348   -0.016871
     84          1           0        5.427938    7.484436   -1.828560
     85          1           0       10.756225    1.979070    0.597146
     86          1           0       10.670543   -0.448086   -0.788836
     87          1           0       10.063574    2.051037   -2.331167
     88          1           0       11.295358    0.860915   -2.073571
     89          1           0       11.493017    2.587464   -1.399218
     90          1           0       12.108562    0.272124    1.154589
     91          1           0       11.573185   -1.353766    0.822524
     92          1           0       11.536609   -0.028340    3.220293
     93          1           0       10.592347   -1.514418    2.858639
     94          1           0        9.786931    0.073546    2.787247
     95          1           0        8.809189   -4.681958    0.901508
     96          1           0        7.355689   -5.805666    0.769372
     97          1           0        7.764871   -5.184446    2.275893
     98          1           0        2.667532   -4.095638    1.093598
     99          1           0        0.031819   -4.292616   -2.337932
    100          1           0        0.046472   -6.060402   -2.050986
    101          1           0        1.133801   -5.528280   -3.182181
    102          1           0       -4.485014   -2.239385    1.692362
    103          1           0       -4.894266   -3.485619    0.454919
    104          1           0       -4.197556   -0.946710   -0.815723
    105          1           0       -6.929045   -2.564984    1.215259
    106          1           0       -8.058775   -2.296717   -0.182161
    107          1           0       -7.886876   -1.061758    1.072584
    108          1           0       -7.564276   -0.447902   -1.720428
    109          1           0       -6.018008    0.160726   -2.106764
    110          1           0       -6.496188    2.093648   -1.385720
    111          1           0       -6.682765    1.531609    0.327283
    112          1           0       -9.087703    0.769651   -0.484938
    113          1           0       -8.716016    1.913916   -1.751049
    114          1           0      -10.011550    3.012078   -0.214274
    115          1           0       -8.751862    5.068558   -0.290869
    116          1           0       -7.374822    4.013180   -0.684884
    117          1           0       -7.749350    4.553685    0.944336
    118          1           0       -8.445559    3.144076    2.217328
    119          1           0       -8.869462    1.406212    1.759289
    120          1           0      -11.063489    3.615747    1.881128
    121          1           0      -10.399936    2.988662    3.313246
    122          1           0      -11.431868    0.979256    3.088926
    123          1           0      -10.954709    0.806037    1.370551
    124          1           0      -12.851629    2.432419    0.801871
    125          1           0      -14.503576    3.015139    2.042167
    126          1           0      -13.167863    3.273197    3.179831
    127          1           0      -14.273432    1.893872    3.274741
    128          1           0      -14.315142    0.175532    2.078548
    129          1           0      -12.838499   -0.461507    1.433225
    130          1           0      -14.552633    1.299554   -0.375314
    131          1           0      -15.157230   -0.240452   -0.036641
    132          1           0      -12.290845    0.156913   -0.827296
    133          1           0      -13.400179    0.499612   -2.167029
    134          1           0      -13.430776   -2.122910   -0.731470
    135          1           0      -11.311862   -1.116325   -2.491106
    136          1           0      -12.256175   -2.258306   -3.497905
    137          1           0      -11.590030   -2.674201   -1.882978
    138          1           0      -14.570793   -2.184720   -3.516984
    139          1           0      -15.235889   -0.885310   -2.550792
    140          1           0      -15.278163   -2.497047   -1.942322
 ---------------------------------------------------------------------

 SCF Done:  E(RCAM-B3LYP) =  -3007.13674830     A.U. after   19 cycles

 Excitation energies and oscillator strengths:

 Excited State   1:      Singlet-A      1.7305 eV  716.45 nm  f=0.3693  <S**2>=0.000
     245 -> 248        0.18484
     246 -> 247        0.68456
     245 <- 248        0.10813
 This state for optimization and/or second-order correction.
 Total Energy, E(TD-HF/TD-DFT) =  -3007.07315259
 Copying the excited state density for this state as the 1-particle RhoCI density.

 Excited State   2:      Singlet-A      2.1988 eV  563.88 nm  f=0.1202  <S**2>=0.000
     245 -> 247        0.64460
     246 -> 248       -0.27893

 Excited State   3:      Singlet-A      3.3924 eV  365.47 nm  f=0.0375  <S**2>=0.000
     242 -> 247       -0.27652
     243 -> 247        0.44884
     244 -> 247        0.38835
     246 -> 248       -0.21709

 Excited State   4:      Singlet-A      3.5297 eV  351.26 nm  f=0.0855  <S**2>=0.000
     242 -> 247        0.10329
     243 -> 247       -0.23157
     244 -> 247        0.53482
     244 -> 249       -0.10748
     246 -> 248        0.30752

 Excited State   5:      Singlet-A      3.5847 eV  345.87 nm  f=0.4058  <S**2>=0.000
     242 -> 247        0.21394
     242 -> 249       -0.12479
     243 -> 247        0.39199
     243 -> 249       -0.11552
     245 -> 247        0.19630
     246 -> 248        0.42045

 The electronic state is 1-A.
 Alpha  occ. eigenvalues --  -46.89871 -19.26823 -19.25186 -19.19878 -19.19248
 Alpha  occ. eigenvalues --  -19.19210 -19.18008 -14.42145 -14.41916 -14.39869
 Alpha  occ. eigenvalues --  -14.38813 -10.40228 -10.39433 -10.35182 -10.33297
 Alpha  occ. eigenvalues --  -10.32788 -10.32267 -10.31797 -10.31450 -10.31210
 Alpha  occ. eigenvalues --  -10.31207 -10.30610 -10.30037 -10.29526 -10.28960
 Alpha  occ. eigenvalues --  -10.28635 -10.28616 -10.28604 -10.28151 -10.28126
 Alpha  occ. eigenvalues --  -10.28020 -10.27948 -10.27641 -10.27462 -10.27458
 Alpha  occ. eigenvalues --  -10.27347 -10.27316 -10.27087 -10.27033 -10.26845
 Alpha  occ. eigenvalues --  -10.26514 -10.26131 -10.26104 -10.26100 -10.26030
 Alpha  occ. eigenvalues --  -10.26012 -10.25908 -10.25822 -10.25782 -10.25718
 Alpha  occ. eigenvalues --  -10.25712 -10.25580 -10.25439 -10.25260 -10.25123
 Alpha  occ. eigenvalues --  -10.25017 -10.24968 -10.24958 -10.24943 -10.24796
 Alpha  occ. eigenvalues --  -10.24748 -10.24728 -10.24516 -10.24427 -10.24150
 Alpha  occ. eigenvalues --  -10.23176  -3.18046  -1.92965  -1.92485  -1.92341
 Alpha  occ. eigenvalues --   -1.17376  -1.14581  -1.10829  -1.09646  -1.07293
 Alpha  occ. eigenvalues --   -1.05608  -1.04150  -1.03449  -1.02057  -1.01318
 Alpha  occ. eigenvalues --   -0.92159  -0.90458  -0.89870  -0.89862  -0.88619
 Alpha  occ. eigenvalues --   -0.88098  -0.87743  -0.87271  -0.87111  -0.86629
 Alpha  occ. eigenvalues --   -0.85918  -0.85485  -0.84349  -0.83441  -0.82944
 Alpha  occ. eigenvalues --   -0.82230  -0.81976  -0.81395  -0.80744  -0.80314
 Alpha  occ. eigenvalues --   -0.79751  -0.78275  -0.78060  -0.77299  -0.76288
 Alpha  occ. eigenvalues --   -0.75998  -0.75713  -0.74985  -0.74775  -0.74135
 Alpha  occ. eigenvalues --   -0.73731  -0.73023  -0.71589  -0.71119  -0.69904
 Alpha  occ. eigenvalues --   -0.69125  -0.68860  -0.67508  -0.67031  -0.65597
 Alpha  occ. eigenvalues --   -0.65435  -0.65007  -0.64279  -0.64049  -0.63597
 Alpha  occ. eigenvalues --   -0.63474  -0.62425  -0.62050  -0.61536  -0.60434
 Alpha  occ. eigenvalues --   -0.59839  -0.59367  -0.58645  -0.58279  -0.57955
 Alpha  occ. eigenvalues --   -0.57841  -0.57366  -0.56233  -0.56195  -0.55464
 Alpha  occ. eigenvalues --   -0.55424  -0.55093  -0.54863  -0.54583  -0.54081
 Alpha  occ. eigenvalues --   -0.53896  -0.53739  -0.53354  -0.53150  -0.52854
 Alpha  occ. eigenvalues --   -0.52598  -0.52297  -0.52193  -0.51900  -0.51571
 Alpha  occ. eigenvalues --   -0.51485  -0.51203  -0.51137  -0.50951  -0.50377
 Alpha  occ. eigenvalues --   -0.50143  -0.49826  -0.49567  -0.49439  -0.49379
 Alpha  occ. eigenvalues --   -0.49203  -0.49048  -0.48934  -0.48878  -0.48614
 Alpha  occ. eigenvalues --   -0.48373  -0.48283  -0.48092  -0.47764  -0.47627
 Alpha  occ. eigenvalues --   -0.47324  -0.47036  -0.46964  -0.46923  -0.46697
 Alpha  occ. eigenvalues --   -0.46361  -0.46148  -0.45837  -0.45765  -0.45670
 Alpha  occ. eigenvalues --   -0.45303  -0.45241  -0.45066  -0.44939  -0.44891
 Alpha  occ. eigenvalues --   -0.44546  -0.44249  -0.44239  -0.44138  -0.43715
 Alpha  occ. eigenvalues --   -0.43680  -0.43512  -0.43220  -0.43132  -0.43047
 Alpha  occ. eigenvalues --   -0.42759  -0.42683  -0.42573  -0.42548  -0.42189
 Alpha  occ. eigenvalues --   -0.42006  -0.41515  -0.41445  -0.41376  -0.41076
 Alpha  occ. eigenvalues --   -0.41008  -0.40870  -0.40447  -0.40272  -0.40133
 Alpha  occ. eigenvalues --   -0.39739  -0.39688  -0.39626  -0.39120  -0.38589
 Alpha  occ. eigenvalues --   -0.38436  -0.38287  -0.37800  -0.37411  -0.37380
 Alpha  occ. eigenvalues --   -0.37004  -0.36959  -0.36445  -0.36388  -0.36201
 Alpha  occ. eigenvalues --   -0.35802  -0.35331  -0.34739  -0.34084  -0.34050
 Alpha  occ. eigenvalues --   -0.33965  -0.33590  -0.32841  -0.31526  -0.31360
 Alpha  occ. eigenvalues --   -0.30712  -0.30507  -0.30057  -0.29498  -0.23885
 Alpha  occ. eigenvalues --   -0.21271
 Alpha virt. eigenvalues --   -0.08679  -0.01727   0.00362   0.02093   0.02510
 Alpha virt. eigenvalues --    0.03986   0.04623   0.05468   0.05935   0.06807
 Alpha virt. eigenvalues --    0.06962   0.07961   0.08346   0.08845   0.08970

 Mulliken charges:
               1
     1  Mg   0.796500
     2  C   -0.039340
     3  C   -0.060450
     4  C   -0.037908
     5  C   -0.059562
     6  N   -0.315561
     7  C   -0.098620
     8  C    0.090142
     9  C   -0.080556
    10  C    0.078197
    11  C    0.053586
    12  C    0.071885
    13  C   -0.014821
    14  C    0.172119
    15  O   -0.270756
    16  O   -0.310244
    17  N   -0.407930
    18  C    0.146714
    19  C   -0.149343
    20  C   -0.048448
    21  C    0.115726
    22  C    0.126657
    23  C    0.017469
    24  O   -0.208012
    25  C    0.038752
    26  N   -0.268584
    27  C    0.040798
    28  C   -0.032789
    29  C   -0.029868
    30  C    0.025499
    31  C    0.062127
    32  C   -0.035173
    33  C    0.049347
    34  N   -0.313734
    35  C    0.099961
    36  C   -0.169849
    37  C    0.041922
    38  C    0.145709
    39  C    0.127808
    40  C   -0.019852
    41  O   -0.145429
    42  C   -0.010097
    43  C    0.256496
    44  O   -0.266269
    45  O   -0.339696
    46  C    0.182198
    47  C    0.277332
    48  C   -0.129157
    49  C   -0.152005
    50  C    0.079810
    51  C    0.075682
    52  C    0.025348
    53  C   -0.019009
    54  C   -0.109992
    55  C    0.026734
    56  C    0.052974
    57  C    0.012748
    58  C    0.019863
    59  C   -0.123424
    60  C    0.042351
    61  C    0.069812
    62  C    0.031889
    63  C    0.012266
    64  C   -0.154910
    65  C    0.063436
    66  C    0.039489
    67  H   -0.020711
    68  H   -0.005506
    69  H   -0.041796
    70  H    0.026800
    71  H    0.032001
    72  H    0.005546
    73  H    0.026493
    74  H    0.025257
    75  H    0.026617
    76  H    0.003969
    77  H    0.051997
    78  H    0.007857
    79  H    0.010672
    80  H    0.014302
    81  H    0.038623
    82  H    0.020053
    83  H    0.037004
    84  H    0.042962
    85  H    0.011826
    86  H    0.007218
    87  H    0.024873
    88  H    0.025425
    89  H    0.030267
    90  H   -0.001117
    91  H    0.006310
    92  H    0.013896
    93  H    0.015525
    94  H    0.030220
    95  H    0.018824
    96  H    0.029668
    97  H    0.025081
    98  H    0.047255
    99  H    0.040059
   100  H    0.027664
   101  H    0.047893
   102  H    0.055695
   103  H    0.037289
   104  H   -0.000282
   105  H    0.010157
   106  H    0.029671
   107  H    0.029950
   108  H   -0.007719
   109  H   -0.008078
   110  H    0.012186
   111  H    0.008937
   112  H    0.000982
   113  H   -0.006773
   114  H   -0.001484
   115  H    0.008475
   116  H    0.002089
   117  H    0.001965
   118  H   -0.003072
   119  H    0.003085
   120  H   -0.002097
   121  H   -0.010151
   122  H    0.001378
   123  H   -0.004000
   124  H   -0.003629
   125  H   -0.003180
   126  H    0.013251
   127  H   -0.007345
   128  H   -0.011514
   129  H   -0.006404
   130  H   -0.012267
   131  H   -0.011368
   132  H   -0.008838
   133  H    0.000948
   134  H   -0.000634
   135  H    0.005853
   136  H    0.014049
   137  H    0.000875
   138  H    0.011033
   139  H    0.005993
   140  H    0.003985
 Sum of Mulliken charges =  -0.00000

 Dipole moment (field-independent basis, Debye):
    X=             -4.2959    Y=              2.9965    Z=              0.6681  Tot=              5.2802
 Quadrupole moment (field-independent basis, Debye-Ang):
   XX=           -377.4145   YY=           -419.3900   ZZ=           -409.2073
   XY=              2.7092   XZ=             17.7239   YZ=              0.0240

 Normal termination of Gaussian 16 at Wed Apr 27 22:16:12 2022.
