 Gaussian 16, Revision A.03,
 Gaussian 16:  ES64L-G16RevA.03 25-Dec-2016

 ---------------------------------
 #p PBE1PBE/Def2SVP td=(nstates=5)
 ---------------------------------

 ------------------------------------------------------
 step_1351_chromophore_13 TDDFT with PBE1PBE functional
 ------------------------------------------------------
 Symbolic Z-matrix:
 Charge =  0 Multiplicity = 1

                         Standard orientation:
 ---------------------------------------------------------------------
 Center     Atomic      Atomic             Coordinates (Angstroms)
 Number     Number       Type             X           Y           Z
 ---------------------------------------------------------------------
      1         12           0        5.788060    0.526609    0.374665
      2          6           0        3.673673   -2.311806    0.294475
      3          6           0        3.102638    2.532702   -0.201512
      4          6           0        8.058015    3.026210   -0.354542
      5          6           0        8.515687   -1.716269    0.601196
      6          7           0        3.608878    0.036382   -0.089092
      7          6           0        2.943542   -1.191450    0.030522
      8          6           0        1.461234   -0.972478   -0.196765
      9          6           0        1.325185    0.630861   -0.275623
     10          6           0        2.767677    1.132700   -0.306787
     11          6           0        0.650352    1.109371   -1.621816
     12          6           0        0.625075   -1.605845    0.947240
     13          6           0       -0.615834   -2.593932    0.551676
     14          6           0       -1.986606   -2.214168    0.911639
     15          8           0       -2.132966   -1.416931    1.862987
     16          8           0       -2.945315   -2.915523    0.276685
     17          7           0        5.594111    2.594959   -0.101830
     18          6           0        4.347639    3.210070   -0.188872
     19          6           0        4.631867    4.629867   -0.452699
     20          6           0        6.048287    4.771973   -0.590134
     21          6           0        6.673125    3.427883   -0.344685
     22          6           0        3.474597    5.694459   -0.629797
     23          6           0        6.800871    6.085685   -0.842528
     24          8           0        8.024223    6.200772   -0.979151
     25          6           0        5.979217    7.284943   -0.909839
     26          7           0        7.975413    0.650584    0.167748
     27          6           0        8.655902    1.761344   -0.116184
     28          6           0       10.186193    1.497967   -0.197447
     29          6           0       10.232055   -0.003543    0.104198
     30          6           0        8.877093   -0.387557    0.419423
     31          6           0       10.839243    1.745330   -1.629213
     32          6           0       11.243179   -0.387747    1.205861
     33          6           0       10.726129   -0.456656    2.631621
     34          7           0        6.105604   -1.589545    0.537219
     35          6           0        7.254324   -2.364016    0.667757
     36          6           0        6.865587   -3.734996    0.877015
     37          6           0        5.532081   -3.727315    0.595364
     38          6           0        5.074710   -2.424135    0.490454
     39          6           0        7.793331   -4.914980    1.220115
     40          6           0        4.509299   -4.636103    0.331591
     41          8           0        4.485099   -5.829070    0.330632
     42          6           0        3.213038   -3.812562    0.192712
     43          6           0        2.548329   -4.113132   -1.185237
     44          8           0        2.849218   -3.588628   -2.299424
     45          8           0        1.522367   -5.044130   -1.071633
     46          6           0        0.656128   -5.183499   -2.265524
     47          6           0       -4.321629   -2.584251    0.670734
     48          6           0       -4.910797   -1.490712   -0.195723
     49          6           0       -6.199110   -1.195321   -0.286390
     50          6           0       -7.362373   -1.843090    0.522250
     51          6           0       -6.654691   -0.071962   -1.252524
     52          6           0       -6.943355    1.357669   -0.717210
     53          6           0       -8.471408    1.636325   -0.726034
     54          6           0       -9.003653    2.817742    0.155510
     55          6           0       -8.190675    4.186632    0.017719
     56          6           0       -9.112299    2.466330    1.684263
     57          6           0      -10.516378    2.750558    2.255888
     58          6           0      -11.417377    1.459567    2.110621
     59          6           0      -12.888627    1.713940    1.620704
     60          6           0      -13.700742    2.524151    2.593563
     61          6           0      -13.559594    0.347682    1.311945
     62          6           0      -14.213297    0.300831   -0.101147
     63          6           0      -13.281227   -0.048346   -1.232105
     64          6           0      -13.342108   -1.585119   -1.674851
     65          6           0      -12.067663   -1.901629   -2.485750
     66          6           0      -14.649054   -1.802293   -2.498372
     67          1           0        2.248687    3.204871   -0.095562
     68          1           0        8.729685    3.872585   -0.513653
     69          1           0        9.414930   -2.312299    0.769290
     70          1           0        1.343539   -1.439864   -1.175120
     71          1           0        0.817971    0.948171    0.635230
     72          1           0       -0.195540    1.755090   -1.386369
     73          1           0        0.284904    0.286422   -2.235475
     74          1           0        1.252176    1.826119   -2.180996
     75          1           0        0.168584   -0.960955    1.698319
     76          1           0        1.181492   -2.250959    1.626912
     77          1           0       -0.342110   -3.588773    0.903663
     78          1           0       -0.773409   -2.789246   -0.509703
     79          1           0        3.665718    6.465803    0.116275
     80          1           0        2.488912    5.346161   -0.321301
     81          1           0        3.461090    6.201788   -1.593991
     82          1           0        6.748117    8.055179   -0.975515
     83          1           0        5.358807    7.360348   -0.016871
     84          1           0        5.427938    7.484436   -1.828560
     85          1           0       10.756225    1.979070    0.597146
     86          1           0       10.670543   -0.448086   -0.788836
     87          1           0       10.063574    2.051037   -2.331167
     88          1           0       11.295358    0.860915   -2.073571
     89          1           0       11.493017    2.587464   -1.399218
     90          1           0       12.108562    0.272124    1.154589
     91          1           0       11.573185   -1.353766    0.822524
     92          1           0       11.536609   -0.028340    3.220293
     93          1           0       10.592347   -1.514418    2.858639
     94          1           0        9.786931    0.073546    2.787247
     95          1           0        8.809189   -4.681958    0.901508
     96          1           0        7.355689   -5.805666    0.769372
     97          1           0        7.764871   -5.184446    2.275893
     98          1           0        2.667532   -4.095638    1.093598
     99          1           0        0.031819   -4.292616   -2.337932
    100          1           0        0.046472   -6.060402   -2.050986
    101          1           0        1.133801   -5.528280   -3.182181
    102          1           0       -4.485014   -2.239385    1.692362
    103          1           0       -4.894266   -3.485619    0.454919
    104          1           0       -4.197556   -0.946710   -0.815723
    105          1           0       -6.929045   -2.564984    1.215259
    106          1           0       -8.058775   -2.296717   -0.182161
    107          1           0       -7.886876   -1.061758    1.072584
    108          1           0       -7.564276   -0.447902   -1.720428
    109          1           0       -6.018008    0.160726   -2.106764
    110          1           0       -6.496188    2.093648   -1.385720
    111          1           0       -6.682765    1.531609    0.327283
    112          1           0       -9.087703    0.769651   -0.484938
    113          1           0       -8.716016    1.913916   -1.751049
    114          1           0      -10.011550    3.012078   -0.214274
    115          1           0       -8.751862    5.068558   -0.290869
    116          1           0       -7.374822    4.013180   -0.684884
    117          1           0       -7.749350    4.553685    0.944336
    118          1           0       -8.445559    3.144076    2.217328
    119          1           0       -8.869462    1.406212    1.759289
    120          1           0      -11.063489    3.615747    1.881128
    121          1           0      -10.399936    2.988662    3.313246
    122          1           0      -11.431868    0.979256    3.088926
    123          1           0      -10.954709    0.806037    1.370551
    124          1           0      -12.851629    2.432419    0.801871
    125          1           0      -14.503576    3.015139    2.042167
    126          1           0      -13.167863    3.273197    3.179831
    127          1           0      -14.273432    1.893872    3.274741
    128          1           0      -14.315142    0.175532    2.078548
    129          1           0      -12.838499   -0.461507    1.433225
    130          1           0      -14.552633    1.299554   -0.375314
    131          1           0      -15.157230   -0.240452   -0.036641
    132          1           0      -12.290845    0.156913   -0.827296
    133          1           0      -13.400179    0.499612   -2.167029
    134          1           0      -13.430776   -2.122910   -0.731470
    135          1           0      -11.311862   -1.116325   -2.491106
    136          1           0      -12.256175   -2.258306   -3.497905
    137          1           0      -11.590030   -2.674201   -1.882978
    138          1           0      -14.570793   -2.184720   -3.516984
    139          1           0      -15.235889   -0.885310   -2.550792
    140          1           0      -15.278163   -2.497047   -1.942322
 ---------------------------------------------------------------------

 SCF Done:  E(RPBE1PBE) =  -3005.32479635     A.U. after   16 cycles

 Excitation energies and oscillator strengths:

 Excited State   1:      Singlet-A      1.8629 eV  665.53 nm  f=0.3554  <S**2>=0.000
     245 -> 248        0.18164
     246 -> 247        0.69051
     246 <- 247       -0.10017
 This state for optimization and/or second-order correction.
 Total Energy, E(TD-HF/TD-DFT) =  -3005.25633470
 Copying the excited state density for this state as the 1-particle RhoCI density.

 Excited State   2:      Singlet-A      2.2049 eV  562.31 nm  f=0.1165  <S**2>=0.000
     245 -> 247        0.65456
     246 -> 248       -0.25949

 Excited State   3:      Singlet-A      2.9745 eV  416.82 nm  f=0.0034  <S**2>=0.000
     242 -> 247        0.10093
     243 -> 247       -0.10632
     244 -> 247        0.66840
     244 -> 249       -0.10687

 Excited State   4:      Singlet-A      3.0840 eV  402.02 nm  f=0.0021  <S**2>=0.000
     243 -> 247        0.68618
     244 -> 247        0.11197

 Excited State   5:      Singlet-A      3.1335 eV  395.67 nm  f=0.0001  <S**2>=0.000
     240 -> 247        0.61891
     240 -> 249        0.16387
     242 -> 247       -0.26282

 The electronic state is 1-A.
 Alpha  occ. eigenvalues --  -46.93244 -19.27505 -19.25900 -19.20217 -19.19580
 Alpha  occ. eigenvalues --  -19.19169 -19.18479 -14.41681 -14.41419 -14.39445
 Alpha  occ. eigenvalues --  -14.38612 -10.37359 -10.36453 -10.32042 -10.30616
 Alpha  occ. eigenvalues --  -10.30203 -10.29778 -10.29079 -10.28886 -10.28752
 Alpha  occ. eigenvalues --  -10.28556 -10.28513 -10.27531 -10.27414 -10.27077
 Alpha  occ. eigenvalues --  -10.26480 -10.26389 -10.26383 -10.25890 -10.25721
 Alpha  occ. eigenvalues --  -10.25561 -10.25551 -10.25259 -10.25182 -10.25164
 Alpha  occ. eigenvalues --  -10.25124 -10.25115 -10.24883 -10.24426 -10.24421
 Alpha  occ. eigenvalues --  -10.24251 -10.23821 -10.23780 -10.23696 -10.23582
 Alpha  occ. eigenvalues --  -10.23550 -10.23538 -10.23481 -10.23454 -10.23415
 Alpha  occ. eigenvalues --  -10.23257 -10.23126 -10.22829 -10.22698 -10.22685
 Alpha  occ. eigenvalues --  -10.22540 -10.22527 -10.22523 -10.22509 -10.22343
 Alpha  occ. eigenvalues --  -10.22276 -10.22143 -10.21903 -10.21817 -10.21525
 Alpha  occ. eigenvalues --  -10.21178  -3.15011  -1.87868  -1.87366  -1.87226
 Alpha  occ. eigenvalues --   -1.12213  -1.09408  -1.05824  -1.04117  -1.02143
 Alpha  occ. eigenvalues --   -1.00477  -0.98992  -0.98173  -0.96528  -0.95833
 Alpha  occ. eigenvalues --   -0.86689  -0.84579  -0.84255  -0.83933  -0.82736
 Alpha  occ. eigenvalues --   -0.82313  -0.82040  -0.81390  -0.81373  -0.80729
 Alpha  occ. eigenvalues --   -0.80360  -0.79707  -0.78530  -0.77688  -0.77308
 Alpha  occ. eigenvalues --   -0.76397  -0.76116  -0.75562  -0.75015  -0.74659
 Alpha  occ. eigenvalues --   -0.73938  -0.72608  -0.72171  -0.71643  -0.70601
 Alpha  occ. eigenvalues --   -0.70243  -0.69787  -0.69357  -0.68905  -0.68367
 Alpha  occ. eigenvalues --   -0.67944  -0.67526  -0.65967  -0.65470  -0.64309
 Alpha  occ. eigenvalues --   -0.63525  -0.63218  -0.61708  -0.61361  -0.59924
 Alpha  occ. eigenvalues --   -0.59777  -0.59560  -0.58856  -0.58604  -0.58145
 Alpha  occ. eigenvalues --   -0.57617  -0.56710  -0.56605  -0.55771  -0.54752
 Alpha  occ. eigenvalues --   -0.54217  -0.54062  -0.53261  -0.52921  -0.52421
 Alpha  occ. eigenvalues --   -0.52330  -0.51933  -0.50793  -0.50712  -0.50039
 Alpha  occ. eigenvalues --   -0.49958  -0.49566  -0.49192  -0.49125  -0.48759
 Alpha  occ. eigenvalues --   -0.48465  -0.48129  -0.47802  -0.47538  -0.47324
 Alpha  occ. eigenvalues --   -0.47247  -0.46808  -0.46630  -0.46601  -0.46045
 Alpha  occ. eigenvalues --   -0.45987  -0.45894  -0.45680  -0.45460  -0.45069
 Alpha  occ. eigenvalues --   -0.44631  -0.44380  -0.44135  -0.44062  -0.43943
 Alpha  occ. eigenvalues --   -0.43771  -0.43646  -0.43557  -0.43445  -0.43249
 Alpha  occ. eigenvalues --   -0.43008  -0.42861  -0.42729  -0.42347  -0.42166
 Alpha  occ. eigenvalues --   -0.41916  -0.41682  -0.41587  -0.41491  -0.41339
 Alpha  occ. eigenvalues --   -0.41176  -0.40879  -0.40585  -0.40483  -0.40265
 Alpha  occ. eigenvalues --   -0.40034  -0.40008  -0.39792  -0.39758  -0.39652
 Alpha  occ. eigenvalues --   -0.39357  -0.39038  -0.38959  -0.38885  -0.38532
 Alpha  occ. eigenvalues --   -0.38462  -0.38274  -0.38125  -0.37901  -0.37876
 Alpha  occ. eigenvalues --   -0.37558  -0.37541  -0.37274  -0.37226  -0.37131
 Alpha  occ. eigenvalues --   -0.36761  -0.36361  -0.36167  -0.36138  -0.35838
 Alpha  occ. eigenvalues --   -0.35757  -0.35596  -0.35337  -0.35035  -0.35028
 Alpha  occ. eigenvalues --   -0.34690  -0.34601  -0.34448  -0.34047  -0.33468
 Alpha  occ. eigenvalues --   -0.33432  -0.33071  -0.32624  -0.32420  -0.32195
 Alpha  occ. eigenvalues --   -0.32006  -0.31883  -0.31496  -0.31426  -0.31252
 Alpha  occ. eigenvalues --   -0.30723  -0.30218  -0.29678  -0.29218  -0.28985
 Alpha  occ. eigenvalues --   -0.28868  -0.28455  -0.28341  -0.26963  -0.26030
 Alpha  occ. eigenvalues --   -0.25958  -0.25905  -0.25454  -0.25101  -0.20807
 Alpha  occ. eigenvalues --   -0.18892
 Alpha virt. eigenvalues --   -0.11170  -0.05220  -0.03805  -0.02097  -0.00752
 Alpha virt. eigenvalues --   -0.00488   0.00000   0.01050   0.01617   0.02989
 Alpha virt. eigenvalues --    0.03675   0.04408   0.04529   0.05363   0.05668

 Mulliken charges:
               1
     1  Mg   0.933842
     2  C   -0.048100
     3  C   -0.058561
     4  C   -0.031856
     5  C   -0.053454
     6  N   -0.411434
     7  C   -0.022195
     8  C    0.016030
     9  C   -0.163316
    10  C    0.116232
    11  C    0.001718
    12  C    0.027866
    13  C   -0.090538
    14  C    0.240753
    15  O   -0.301681
    16  O   -0.343717
    17  N   -0.517375
    18  C    0.170822
    19  C   -0.176437
    20  C   -0.106043
    21  C    0.155754
    22  C    0.064379
    23  C    0.069275
    24  O   -0.248404
    25  C   -0.037115
    26  N   -0.373466
    27  C    0.077064
    28  C   -0.109949
    29  C   -0.102470
    30  C    0.059851
    31  C    0.005693
    32  C   -0.094011
    33  C   -0.026051
    34  N   -0.441236
    35  C    0.121875
    36  C   -0.169663
    37  C   -0.032109
    38  C    0.209326
    39  C    0.076368
    40  C    0.083028
    41  O   -0.191685
    42  C   -0.111356
    43  C    0.335035
    44  O   -0.297061
    45  O   -0.370419
    46  C    0.125635
    47  C    0.229612
    48  C   -0.130883
    49  C   -0.199377
    50  C    0.011148
    51  C    0.015550
    52  C   -0.038910
    53  C   -0.080546
    54  C   -0.185319
    55  C   -0.031923
    56  C   -0.016457
    57  C   -0.046488
    58  C   -0.035809
    59  C   -0.210639
    60  C   -0.012868
    61  C    0.013442
    62  C   -0.029482
    63  C   -0.051926
    64  C   -0.244621
    65  C    0.003219
    66  C   -0.018017
    67  H    0.012461
    68  H    0.026630
    69  H   -0.008756
    70  H    0.065011
    71  H    0.066164
    72  H    0.033196
    73  H    0.052094
    74  H    0.052799
    75  H    0.057006
    76  H    0.037103
    77  H    0.082942
    78  H    0.042625
    79  H    0.038750
    80  H    0.040067
    81  H    0.065032
    82  H    0.047466
    83  H    0.063811
    84  H    0.068784
    85  H    0.048303
    86  H    0.046111
    87  H    0.053356
    88  H    0.050469
    89  H    0.057185
    90  H    0.032630
    91  H    0.038245
    92  H    0.042991
    93  H    0.043371
    94  H    0.060075
    95  H    0.046400
    96  H    0.058064
    97  H    0.054336
    98  H    0.083334
    99  H    0.062653
   100  H    0.049637
   101  H    0.069460
   102  H    0.082287
   103  H    0.063930
   104  H    0.028985
   105  H    0.037697
   106  H    0.056356
   107  H    0.061128
   108  H    0.025275
   109  H    0.023784
   110  H    0.043796
   111  H    0.043471
   112  H    0.035825
   113  H    0.027684
   114  H    0.037330
   115  H    0.035805
   116  H    0.030386
   117  H    0.028005
   118  H    0.029689
   119  H    0.040502
   120  H    0.029130
   121  H    0.023258
   122  H    0.034332
   123  H    0.030630
   124  H    0.033076
   125  H    0.025447
   126  H    0.040386
   127  H    0.020009
   128  H    0.020989
   129  H    0.025568
   130  H    0.021686
   131  H    0.020343
   132  H    0.029076
   133  H    0.033365
   134  H    0.036533
   135  H    0.032115
   136  H    0.040609
   137  H    0.028769
   138  H    0.037629
   139  H    0.033146
   140  H    0.031608
 Sum of Mulliken charges =  -0.00000

 Dipole moment (field-independent basis, Debye):
    X=             -4.1228    Y=              2.3437    Z=              0.8019  Tot=              4.8097
 Quadrupole moment (field-independent basis, Debye-Ang):
   XX=           -369.4184   YY=           -417.3654   ZZ=           -406.7318
   XY=             -1.9276   XZ=             18.6554   YZ=             -0.1189

 Normal termination of Gaussian 16 at Wed Apr 27 22:34:43 2022.
