 Gaussian 16, Revision A.03,
 Gaussian 16:  ES64L-G16RevA.03 25-Dec-2016

 --------------------------------
 #p wB97XD/Def2SVP td=(nstates=5)
 --------------------------------

 -----------------------------------------------------
 step_1351_chromophore_13 TDDFT with wB97XD functional
 -----------------------------------------------------
 Symbolic Z-matrix:
 Charge =  0 Multiplicity = 1

                         Standard orientation:
 ---------------------------------------------------------------------
 Center     Atomic      Atomic             Coordinates (Angstroms)
 Number     Number       Type             X           Y           Z
 ---------------------------------------------------------------------
      1         12           0        5.788060    0.526609    0.374665
      2          6           0        3.673673   -2.311806    0.294475
      3          6           0        3.102638    2.532702   -0.201512
      4          6           0        8.058015    3.026210   -0.354542
      5          6           0        8.515687   -1.716269    0.601196
      6          7           0        3.608878    0.036382   -0.089092
      7          6           0        2.943542   -1.191450    0.030522
      8          6           0        1.461234   -0.972478   -0.196765
      9          6           0        1.325185    0.630861   -0.275623
     10          6           0        2.767677    1.132700   -0.306787
     11          6           0        0.650352    1.109371   -1.621816
     12          6           0        0.625075   -1.605845    0.947240
     13          6           0       -0.615834   -2.593932    0.551676
     14          6           0       -1.986606   -2.214168    0.911639
     15          8           0       -2.132966   -1.416931    1.862987
     16          8           0       -2.945315   -2.915523    0.276685
     17          7           0        5.594111    2.594959   -0.101830
     18          6           0        4.347639    3.210070   -0.188872
     19          6           0        4.631867    4.629867   -0.452699
     20          6           0        6.048287    4.771973   -0.590134
     21          6           0        6.673125    3.427883   -0.344685
     22          6           0        3.474597    5.694459   -0.629797
     23          6           0        6.800871    6.085685   -0.842528
     24          8           0        8.024223    6.200772   -0.979151
     25          6           0        5.979217    7.284943   -0.909839
     26          7           0        7.975413    0.650584    0.167748
     27          6           0        8.655902    1.761344   -0.116184
     28          6           0       10.186193    1.497967   -0.197447
     29          6           0       10.232055   -0.003543    0.104198
     30          6           0        8.877093   -0.387557    0.419423
     31          6           0       10.839243    1.745330   -1.629213
     32          6           0       11.243179   -0.387747    1.205861
     33          6           0       10.726129   -0.456656    2.631621
     34          7           0        6.105604   -1.589545    0.537219
     35          6           0        7.254324   -2.364016    0.667757
     36          6           0        6.865587   -3.734996    0.877015
     37          6           0        5.532081   -3.727315    0.595364
     38          6           0        5.074710   -2.424135    0.490454
     39          6           0        7.793331   -4.914980    1.220115
     40          6           0        4.509299   -4.636103    0.331591
     41          8           0        4.485099   -5.829070    0.330632
     42          6           0        3.213038   -3.812562    0.192712
     43          6           0        2.548329   -4.113132   -1.185237
     44          8           0        2.849218   -3.588628   -2.299424
     45          8           0        1.522367   -5.044130   -1.071633
     46          6           0        0.656128   -5.183499   -2.265524
     47          6           0       -4.321629   -2.584251    0.670734
     48          6           0       -4.910797   -1.490712   -0.195723
     49          6           0       -6.199110   -1.195321   -0.286390
     50          6           0       -7.362373   -1.843090    0.522250
     51          6           0       -6.654691   -0.071962   -1.252524
     52          6           0       -6.943355    1.357669   -0.717210
     53          6           0       -8.471408    1.636325   -0.726034
     54          6           0       -9.003653    2.817742    0.155510
     55          6           0       -8.190675    4.186632    0.017719
     56          6           0       -9.112299    2.466330    1.684263
     57          6           0      -10.516378    2.750558    2.255888
     58          6           0      -11.417377    1.459567    2.110621
     59          6           0      -12.888627    1.713940    1.620704
     60          6           0      -13.700742    2.524151    2.593563
     61          6           0      -13.559594    0.347682    1.311945
     62          6           0      -14.213297    0.300831   -0.101147
     63          6           0      -13.281227   -0.048346   -1.232105
     64          6           0      -13.342108   -1.585119   -1.674851
     65          6           0      -12.067663   -1.901629   -2.485750
     66          6           0      -14.649054   -1.802293   -2.498372
     67          1           0        2.248687    3.204871   -0.095562
     68          1           0        8.729685    3.872585   -0.513653
     69          1           0        9.414930   -2.312299    0.769290
     70          1           0        1.343539   -1.439864   -1.175120
     71          1           0        0.817971    0.948171    0.635230
     72          1           0       -0.195540    1.755090   -1.386369
     73          1           0        0.284904    0.286422   -2.235475
     74          1           0        1.252176    1.826119   -2.180996
     75          1           0        0.168584   -0.960955    1.698319
     76          1           0        1.181492   -2.250959    1.626912
     77          1           0       -0.342110   -3.588773    0.903663
     78          1           0       -0.773409   -2.789246   -0.509703
     79          1           0        3.665718    6.465803    0.116275
     80          1           0        2.488912    5.346161   -0.321301
     81          1           0        3.461090    6.201788   -1.593991
     82          1           0        6.748117    8.055179   -0.975515
     83          1           0        5.358807    7.360348   -0.016871
     84          1           0        5.427938    7.484436   -1.828560
     85          1           0       10.756225    1.979070    0.597146
     86          1           0       10.670543   -0.448086   -0.788836
     87          1           0       10.063574    2.051037   -2.331167
     88          1           0       11.295358    0.860915   -2.073571
     89          1           0       11.493017    2.587464   -1.399218
     90          1           0       12.108562    0.272124    1.154589
     91          1           0       11.573185   -1.353766    0.822524
     92          1           0       11.536609   -0.028340    3.220293
     93          1           0       10.592347   -1.514418    2.858639
     94          1           0        9.786931    0.073546    2.787247
     95          1           0        8.809189   -4.681958    0.901508
     96          1           0        7.355689   -5.805666    0.769372
     97          1           0        7.764871   -5.184446    2.275893
     98          1           0        2.667532   -4.095638    1.093598
     99          1           0        0.031819   -4.292616   -2.337932
    100          1           0        0.046472   -6.060402   -2.050986
    101          1           0        1.133801   -5.528280   -3.182181
    102          1           0       -4.485014   -2.239385    1.692362
    103          1           0       -4.894266   -3.485619    0.454919
    104          1           0       -4.197556   -0.946710   -0.815723
    105          1           0       -6.929045   -2.564984    1.215259
    106          1           0       -8.058775   -2.296717   -0.182161
    107          1           0       -7.886876   -1.061758    1.072584
    108          1           0       -7.564276   -0.447902   -1.720428
    109          1           0       -6.018008    0.160726   -2.106764
    110          1           0       -6.496188    2.093648   -1.385720
    111          1           0       -6.682765    1.531609    0.327283
    112          1           0       -9.087703    0.769651   -0.484938
    113          1           0       -8.716016    1.913916   -1.751049
    114          1           0      -10.011550    3.012078   -0.214274
    115          1           0       -8.751862    5.068558   -0.290869
    116          1           0       -7.374822    4.013180   -0.684884
    117          1           0       -7.749350    4.553685    0.944336
    118          1           0       -8.445559    3.144076    2.217328
    119          1           0       -8.869462    1.406212    1.759289
    120          1           0      -11.063489    3.615747    1.881128
    121          1           0      -10.399936    2.988662    3.313246
    122          1           0      -11.431868    0.979256    3.088926
    123          1           0      -10.954709    0.806037    1.370551
    124          1           0      -12.851629    2.432419    0.801871
    125          1           0      -14.503576    3.015139    2.042167
    126          1           0      -13.167863    3.273197    3.179831
    127          1           0      -14.273432    1.893872    3.274741
    128          1           0      -14.315142    0.175532    2.078548
    129          1           0      -12.838499   -0.461507    1.433225
    130          1           0      -14.552633    1.299554   -0.375314
    131          1           0      -15.157230   -0.240452   -0.036641
    132          1           0      -12.290845    0.156913   -0.827296
    133          1           0      -13.400179    0.499612   -2.167029
    134          1           0      -13.430776   -2.122910   -0.731470
    135          1           0      -11.311862   -1.116325   -2.491106
    136          1           0      -12.256175   -2.258306   -3.497905
    137          1           0      -11.590030   -2.674201   -1.882978
    138          1           0      -14.570793   -2.184720   -3.516984
    139          1           0      -15.235889   -0.885310   -2.550792
    140          1           0      -15.278163   -2.497047   -1.942322
 ---------------------------------------------------------------------

 SCF Done:  E(RwB97XD) =  -3007.83721568     A.U. after   19 cycles

 Excitation energies and oscillator strengths:

 Excited State   1:      Singlet-A      1.6867 eV  735.09 nm  f=0.3677  <S**2>=0.000
     245 -> 248        0.18891
     246 -> 247        0.68249
     245 <- 248        0.11652
 This state for optimization and/or second-order correction.
 Total Energy, E(TD-HF/TD-DFT) =  -3007.77523215
 Copying the excited state density for this state as the 1-particle RhoCI density.

 Excited State   2:      Singlet-A      2.1453 eV  577.93 nm  f=0.1182  <S**2>=0.000
     245 -> 247        0.64244
     246 -> 248       -0.28044

 Excited State   3:      Singlet-A      3.3980 eV  364.87 nm  f=0.0490  <S**2>=0.000
     242 -> 247        0.41238
     243 -> 247       -0.39692
     244 -> 247       -0.28126
     246 -> 248        0.24760

 Excited State   4:      Singlet-A      3.5712 eV  347.17 nm  f=0.2073  <S**2>=0.000
     242 -> 247        0.12809
     244 -> 247        0.52313
     244 -> 249       -0.11699
     245 -> 247        0.13977
     246 -> 248        0.39780

 Excited State   5:      Singlet-A      3.6312 eV  341.45 nm  f=0.3458  <S**2>=0.000
     240 -> 247        0.11611
     242 -> 249       -0.10143
     242 -> 250        0.11010
     243 -> 247        0.40073
     243 -> 249       -0.15385
     243 -> 250        0.14340
     244 -> 247       -0.24868
     244 -> 249        0.10601
     245 -> 247        0.18094
     246 -> 248        0.34028

 The electronic state is 1-A.
 Alpha  occ. eigenvalues --  -46.96200 -19.32069 -19.30385 -19.24818 -19.24293
 Alpha  occ. eigenvalues --  -19.24215 -19.22970 -14.46766 -14.46516 -14.44496
 Alpha  occ. eigenvalues --  -14.43363 -10.44094 -10.43231 -10.39193 -10.37205
 Alpha  occ. eigenvalues --  -10.36687 -10.36390 -10.35603 -10.35538 -10.35369
 Alpha  occ. eigenvalues --  -10.35279 -10.34595 -10.34308 -10.33467 -10.32891
 Alpha  occ. eigenvalues --  -10.32716 -10.32698 -10.32635 -10.32342 -10.32237
 Alpha  occ. eigenvalues --  -10.32046 -10.31858 -10.31731 -10.31493 -10.31467
 Alpha  occ. eigenvalues --  -10.31394 -10.31240 -10.31106 -10.30954 -10.30874
 Alpha  occ. eigenvalues --  -10.30504 -10.30107 -10.30054 -10.30022 -10.29968
 Alpha  occ. eigenvalues --  -10.29946 -10.29793 -10.29777 -10.29654 -10.29645
 Alpha  occ. eigenvalues --  -10.29628 -10.29500 -10.29420 -10.29206 -10.29061
 Alpha  occ. eigenvalues --  -10.28919 -10.28895 -10.28888 -10.28822 -10.28708
 Alpha  occ. eigenvalues --  -10.28657 -10.28579 -10.28322 -10.28241 -10.27977
 Alpha  occ. eigenvalues --  -10.27090  -3.21866  -1.95464  -1.94962  -1.94820
 Alpha  occ. eigenvalues --   -1.19587  -1.16731  -1.12991  -1.11910  -1.09480
 Alpha  occ. eigenvalues --   -1.07775  -1.06126  -1.05447  -1.04112  -1.03365
 Alpha  occ. eigenvalues --   -0.94100  -0.92269  -0.91727  -0.91617  -0.90409
 Alpha  occ. eigenvalues --   -0.89958  -0.89695  -0.89055  -0.89045  -0.88584
 Alpha  occ. eigenvalues --   -0.87837  -0.87357  -0.86214  -0.85344  -0.84821
 Alpha  occ. eigenvalues --   -0.84067  -0.83942  -0.83301  -0.82629  -0.82271
 Alpha  occ. eigenvalues --   -0.81596  -0.80183  -0.80048  -0.79219  -0.78171
 Alpha  occ. eigenvalues --   -0.77877  -0.77488  -0.76913  -0.76591  -0.76018
 Alpha  occ. eigenvalues --   -0.75602  -0.75000  -0.73549  -0.73055  -0.71799
 Alpha  occ. eigenvalues --   -0.71049  -0.70794  -0.69367  -0.69060  -0.67467
 Alpha  occ. eigenvalues --   -0.67400  -0.67028  -0.66244  -0.66016  -0.65583
 Alpha  occ. eigenvalues --   -0.65295  -0.64250  -0.64029  -0.63399  -0.62311
 Alpha  occ. eigenvalues --   -0.61891  -0.61335  -0.60624  -0.60246  -0.59872
 Alpha  occ. eigenvalues --   -0.59744  -0.59360  -0.58161  -0.58145  -0.57466
 Alpha  occ. eigenvalues --   -0.57356  -0.56958  -0.56697  -0.56534  -0.56020
 Alpha  occ. eigenvalues --   -0.55820  -0.55601  -0.55294  -0.55092  -0.54757
 Alpha  occ. eigenvalues --   -0.54533  -0.54189  -0.54169  -0.53825  -0.53441
 Alpha  occ. eigenvalues --   -0.53371  -0.53059  -0.53046  -0.52830  -0.52267
 Alpha  occ. eigenvalues --   -0.52112  -0.51796  -0.51510  -0.51364  -0.51253
 Alpha  occ. eigenvalues --   -0.51117  -0.50935  -0.50897  -0.50756  -0.50526
 Alpha  occ. eigenvalues --   -0.50314  -0.50168  -0.50016  -0.49744  -0.49577
 Alpha  occ. eigenvalues --   -0.49191  -0.49005  -0.48912  -0.48777  -0.48572
 Alpha  occ. eigenvalues --   -0.48240  -0.48041  -0.47756  -0.47662  -0.47510
 Alpha  occ. eigenvalues --   -0.47238  -0.47146  -0.46968  -0.46838  -0.46788
 Alpha  occ. eigenvalues --   -0.46447  -0.46150  -0.46139  -0.46049  -0.45680
 Alpha  occ. eigenvalues --   -0.45559  -0.45433  -0.45137  -0.45014  -0.44970
 Alpha  occ. eigenvalues --   -0.44654  -0.44636  -0.44527  -0.44422  -0.44063
 Alpha  occ. eigenvalues --   -0.43906  -0.43502  -0.43369  -0.43285  -0.43097
 Alpha  occ. eigenvalues --   -0.42862  -0.42738  -0.42283  -0.42121  -0.42013
 Alpha  occ. eigenvalues --   -0.41656  -0.41563  -0.41511  -0.41025  -0.40451
 Alpha  occ. eigenvalues --   -0.40363  -0.40109  -0.39635  -0.39326  -0.39239
 Alpha  occ. eigenvalues --   -0.38935  -0.38895  -0.38482  -0.38404  -0.38193
 Alpha  occ. eigenvalues --   -0.37682  -0.37183  -0.36591  -0.36052  -0.35893
 Alpha  occ. eigenvalues --   -0.35891  -0.35478  -0.35099  -0.33579  -0.33498
 Alpha  occ. eigenvalues --   -0.32735  -0.32609  -0.32137  -0.31574  -0.25818
 Alpha  occ. eigenvalues --   -0.23082
 Alpha virt. eigenvalues --   -0.07021   0.00192   0.02423   0.04456   0.05392
 Alpha virt. eigenvalues --    0.06209   0.06872   0.07777   0.08342   0.09454
 Alpha virt. eigenvalues --    0.10260   0.10774   0.11375   0.12124   0.12344

 Mulliken charges:
               1
     1  Mg   0.928323
     2  C   -0.048769
     3  C   -0.078280
     4  C   -0.049788
     5  C   -0.065883
     6  N   -0.381210
     7  C   -0.053284
     8  C    0.040893
     9  C   -0.137239
    10  C    0.107325
    11  C    0.011089
    12  C    0.038517
    13  C   -0.072137
    14  C    0.230337
    15  O   -0.299755
    16  O   -0.342319
    17  N   -0.489195
    18  C    0.166855
    19  C   -0.167968
    20  C   -0.093845
    21  C    0.146167
    22  C    0.080061
    23  C    0.066448
    24  O   -0.239723
    25  C   -0.025428
    26  N   -0.338863
    27  C    0.063566
    28  C   -0.088394
    29  C   -0.076769
    30  C    0.050328
    31  C    0.017064
    32  C   -0.080104
    33  C   -0.007981
    34  N   -0.402273
    35  C    0.107889
    36  C   -0.175359
    37  C   -0.017588
    38  C    0.184060
    39  C    0.088079
    40  C    0.059979
    41  O   -0.183511
    42  C   -0.075909
    43  C    0.313739
    44  O   -0.292295
    45  O   -0.369094
    46  C    0.141553
    47  C    0.245708
    48  C   -0.143941
    49  C   -0.187454
    50  C    0.030538
    51  C    0.034661
    52  C   -0.024662
    53  C   -0.055599
    54  C   -0.164202
    55  C   -0.018018
    56  C    0.010502
    57  C   -0.032930
    58  C   -0.013793
    59  C   -0.180626
    60  C   -0.003277
    61  C    0.030244
    62  C   -0.015952
    63  C   -0.026972
    64  C   -0.216048
    65  C    0.014932
    66  C   -0.008943
    67  H    0.005032
    68  H    0.022566
    69  H   -0.018905
    70  H    0.050705
    71  H    0.058522
    72  H    0.027752
    73  H    0.048338
    74  H    0.045616
    75  H    0.050195
    76  H    0.027569
    77  H    0.077968
    78  H    0.030513
    79  H    0.032572
    80  H    0.038094
    81  H    0.061007
    82  H    0.046656
    83  H    0.057223
    84  H    0.065741
    85  H    0.038867
    86  H    0.032862
    87  H    0.046556
    88  H    0.046019
    89  H    0.051919
    90  H    0.023682
    91  H    0.030402
    92  H    0.037501
    93  H    0.037370
    94  H    0.050550
    95  H    0.039866
    96  H    0.052508
    97  H    0.048120
    98  H    0.076206
    99  H    0.056803
   100  H    0.046051
   101  H    0.066149
   102  H    0.077908
   103  H    0.059383
   104  H    0.026345
   105  H    0.032180
   106  H    0.051158
   107  H    0.052090
   108  H    0.014897
   109  H    0.018191
   110  H    0.036146
   111  H    0.032524
   112  H    0.019774
   113  H    0.018730
   114  H    0.024384
   115  H    0.031080
   116  H    0.021747
   117  H    0.021489
   118  H    0.020548
   119  H    0.025003
   120  H    0.019140
   121  H    0.016174
   122  H    0.026232
   123  H    0.012137
   124  H    0.018939
   125  H    0.019189
   126  H    0.034901
   127  H    0.012820
   128  H    0.013016
   129  H    0.016017
   130  H    0.012074
   131  H    0.013400
   132  H    0.011978
   133  H    0.024776
   134  H    0.025199
   135  H    0.026039
   136  H    0.035353
   137  H    0.022636
   138  H    0.032698
   139  H    0.025682
   140  H    0.025948
 Sum of Mulliken charges =  -0.00000

 Dipole moment (field-independent basis, Debye):
    X=             -4.3341    Y=              3.2568    Z=              0.6620  Tot=              5.4617
 Quadrupole moment (field-independent basis, Debye-Ang):
   XX=           -372.3222   YY=           -414.7396   ZZ=           -406.3957
   XY=              3.5463   XZ=             17.8409   YZ=             -0.2433

 Normal termination of Gaussian 16 at Wed Apr 27 23:07:50 2022.
