 Gaussian 16, Revision A.03,
 Gaussian 16:  ES64L-G16RevA.03 25-Dec-2016

 --------------------
 #p ZINDO=(nstates=5)
 --------------------

 ------------------------------
 step_1351_chromophore_13 ZINDO
 ------------------------------
 Symbolic Z-matrix:
 Charge =  0 Multiplicity = 1

                         Standard orientation:
 ---------------------------------------------------------------------
 Center     Atomic      Atomic             Coordinates (Angstroms)
 Number     Number       Type             X           Y           Z
 ---------------------------------------------------------------------
      1         12           0        5.788060    0.526609    0.374665
      2          6           0        3.673673   -2.311806    0.294475
      3          6           0        3.102638    2.532702   -0.201512
      4          6           0        8.058015    3.026210   -0.354542
      5          6           0        8.515687   -1.716269    0.601196
      6          7           0        3.608878    0.036382   -0.089092
      7          6           0        2.943542   -1.191450    0.030522
      8          6           0        1.461234   -0.972478   -0.196765
      9          6           0        1.325185    0.630861   -0.275623
     10          6           0        2.767677    1.132700   -0.306787
     11          6           0        0.650352    1.109371   -1.621816
     12          6           0        0.625075   -1.605845    0.947240
     13          6           0       -0.615834   -2.593932    0.551676
     14          6           0       -1.986606   -2.214168    0.911639
     15          8           0       -2.132966   -1.416931    1.862987
     16          8           0       -2.945315   -2.915523    0.276685
     17          7           0        5.594111    2.594959   -0.101830
     18          6           0        4.347639    3.210070   -0.188872
     19          6           0        4.631867    4.629867   -0.452699
     20          6           0        6.048287    4.771973   -0.590134
     21          6           0        6.673125    3.427883   -0.344685
     22          6           0        3.474597    5.694459   -0.629797
     23          6           0        6.800871    6.085685   -0.842528
     24          8           0        8.024223    6.200772   -0.979151
     25          6           0        5.979217    7.284943   -0.909839
     26          7           0        7.975413    0.650584    0.167748
     27          6           0        8.655902    1.761344   -0.116184
     28          6           0       10.186193    1.497967   -0.197447
     29          6           0       10.232055   -0.003543    0.104198
     30          6           0        8.877093   -0.387557    0.419423
     31          6           0       10.839243    1.745330   -1.629213
     32          6           0       11.243179   -0.387747    1.205861
     33          6           0       10.726129   -0.456656    2.631621
     34          7           0        6.105604   -1.589545    0.537219
     35          6           0        7.254324   -2.364016    0.667757
     36          6           0        6.865587   -3.734996    0.877015
     37          6           0        5.532081   -3.727315    0.595364
     38          6           0        5.074710   -2.424135    0.490454
     39          6           0        7.793331   -4.914980    1.220115
     40          6           0        4.509299   -4.636103    0.331591
     41          8           0        4.485099   -5.829070    0.330632
     42          6           0        3.213038   -3.812562    0.192712
     43          6           0        2.548329   -4.113132   -1.185237
     44          8           0        2.849218   -3.588628   -2.299424
     45          8           0        1.522367   -5.044130   -1.071633
     46          6           0        0.656128   -5.183499   -2.265524
     47          6           0       -4.321629   -2.584251    0.670734
     48          6           0       -4.910797   -1.490712   -0.195723
     49          6           0       -6.199110   -1.195321   -0.286390
     50          6           0       -7.362373   -1.843090    0.522250
     51          6           0       -6.654691   -0.071962   -1.252524
     52          6           0       -6.943355    1.357669   -0.717210
     53          6           0       -8.471408    1.636325   -0.726034
     54          6           0       -9.003653    2.817742    0.155510
     55          6           0       -8.190675    4.186632    0.017719
     56          6           0       -9.112299    2.466330    1.684263
     57          6           0      -10.516378    2.750558    2.255888
     58          6           0      -11.417377    1.459567    2.110621
     59          6           0      -12.888627    1.713940    1.620704
     60          6           0      -13.700742    2.524151    2.593563
     61          6           0      -13.559594    0.347682    1.311945
     62          6           0      -14.213297    0.300831   -0.101147
     63          6           0      -13.281227   -0.048346   -1.232105
     64          6           0      -13.342108   -1.585119   -1.674851
     65          6           0      -12.067663   -1.901629   -2.485750
     66          6           0      -14.649054   -1.802293   -2.498372
     67          1           0        2.248687    3.204871   -0.095562
     68          1           0        8.729685    3.872585   -0.513653
     69          1           0        9.414930   -2.312299    0.769290
     70          1           0        1.343539   -1.439864   -1.175120
     71          1           0        0.817971    0.948171    0.635230
     72          1           0       -0.195540    1.755090   -1.386369
     73          1           0        0.284904    0.286422   -2.235475
     74          1           0        1.252176    1.826119   -2.180996
     75          1           0        0.168584   -0.960955    1.698319
     76          1           0        1.181492   -2.250959    1.626912
     77          1           0       -0.342110   -3.588773    0.903663
     78          1           0       -0.773409   -2.789246   -0.509703
     79          1           0        3.665718    6.465803    0.116275
     80          1           0        2.488912    5.346161   -0.321301
     81          1           0        3.461090    6.201788   -1.593991
     82          1           0        6.748117    8.055179   -0.975515
     83          1           0        5.358807    7.360348   -0.016871
     84          1           0        5.427938    7.484436   -1.828560
     85          1           0       10.756225    1.979070    0.597146
     86          1           0       10.670543   -0.448086   -0.788836
     87          1           0       10.063574    2.051037   -2.331167
     88          1           0       11.295358    0.860915   -2.073571
     89          1           0       11.493017    2.587464   -1.399218
     90          1           0       12.108562    0.272124    1.154589
     91          1           0       11.573185   -1.353766    0.822524
     92          1           0       11.536609   -0.028340    3.220293
     93          1           0       10.592347   -1.514418    2.858639
     94          1           0        9.786931    0.073546    2.787247
     95          1           0        8.809189   -4.681958    0.901508
     96          1           0        7.355689   -5.805666    0.769372
     97          1           0        7.764871   -5.184446    2.275893
     98          1           0        2.667532   -4.095638    1.093598
     99          1           0        0.031819   -4.292616   -2.337932
    100          1           0        0.046472   -6.060402   -2.050986
    101          1           0        1.133801   -5.528280   -3.182181
    102          1           0       -4.485014   -2.239385    1.692362
    103          1           0       -4.894266   -3.485619    0.454919
    104          1           0       -4.197556   -0.946710   -0.815723
    105          1           0       -6.929045   -2.564984    1.215259
    106          1           0       -8.058775   -2.296717   -0.182161
    107          1           0       -7.886876   -1.061758    1.072584
    108          1           0       -7.564276   -0.447902   -1.720428
    109          1           0       -6.018008    0.160726   -2.106764
    110          1           0       -6.496188    2.093648   -1.385720
    111          1           0       -6.682765    1.531609    0.327283
    112          1           0       -9.087703    0.769651   -0.484938
    113          1           0       -8.716016    1.913916   -1.751049
    114          1           0      -10.011550    3.012078   -0.214274
    115          1           0       -8.751862    5.068558   -0.290869
    116          1           0       -7.374822    4.013180   -0.684884
    117          1           0       -7.749350    4.553685    0.944336
    118          1           0       -8.445559    3.144076    2.217328
    119          1           0       -8.869462    1.406212    1.759289
    120          1           0      -11.063489    3.615747    1.881128
    121          1           0      -10.399936    2.988662    3.313246
    122          1           0      -11.431868    0.979256    3.088926
    123          1           0      -10.954709    0.806037    1.370551
    124          1           0      -12.851629    2.432419    0.801871
    125          1           0      -14.503576    3.015139    2.042167
    126          1           0      -13.167863    3.273197    3.179831
    127          1           0      -14.273432    1.893872    3.274741
    128          1           0      -14.315142    0.175532    2.078548
    129          1           0      -12.838499   -0.461507    1.433225
    130          1           0      -14.552633    1.299554   -0.375314
    131          1           0      -15.157230   -0.240452   -0.036641
    132          1           0      -12.290845    0.156913   -0.827296
    133          1           0      -13.400179    0.499612   -2.167029
    134          1           0      -13.430776   -2.122910   -0.731470
    135          1           0      -11.311862   -1.116325   -2.491106
    136          1           0      -12.256175   -2.258306   -3.497905
    137          1           0      -11.590030   -2.674201   -1.882978
    138          1           0      -14.570793   -2.184720   -3.516984
    139          1           0      -15.235889   -0.885310   -2.550792
    140          1           0      -15.278163   -2.497047   -1.942322
 ---------------------------------------------------------------------

 SCF Done:  E(RZINDO/S) =  -473.957158406     A.U. after   20 cycles

 Excitation energies and oscillator strengths:

 Excited State   1:      Singlet-A      1.2701 eV  976.14 nm  f=0.5684  <S**2>=0.000
     175 ->178         0.18001
     176 ->177         0.66726
 This state for optimization and/or second-order correction.
 Total Energy, E(CIS/TDA) =  -473.910481418
 Copying the excited state density for this state as the 1-particle RhoCI density.

 Excited State   2:      Singlet-A      1.9110 eV  648.79 nm  f=0.0466  <S**2>=0.000
     175 ->177         0.55061
     176 ->178        -0.41359

 Excited State   3:      Singlet-A      2.9710 eV  417.31 nm  f=0.1457  <S**2>=0.000
     171 ->177         0.25609
     171 ->178        -0.10344
     171 ->179         0.21570
     171 ->180         0.28320
     171 ->183        -0.23892
     171 ->185         0.13998
     171 ->188        -0.12837
     171 ->205        -0.10721
     174 ->177        -0.16092
     174 ->180        -0.11357
     175 ->177         0.12290
     176 ->178         0.17350

 Excited State   4:      Singlet-A      2.9898 eV  414.68 nm  f=0.0039  <S**2>=0.000
     167 ->177         0.13559
     167 ->179        -0.22853
     167 ->180         0.10423
     167 ->185        -0.12036
     168 ->177         0.30084
     168 ->179        -0.40241
     168 ->180         0.18468
     168 ->184        -0.11951
     168 ->185        -0.20241

 Excited State   5:      Singlet-A      3.0157 eV  411.12 nm  f=0.9781  <S**2>=0.000
     170 ->177         0.10996
     175 ->177         0.35034
     176 ->178         0.50296
     176 ->179        -0.11997
     176 ->180        -0.10527

 The electronic state is 1-A.
 Alpha  occ. eigenvalues --   -1.84999  -1.80763  -1.76762  -1.73903  -1.70222
 Alpha  occ. eigenvalues --   -1.68955  -1.65053  -1.60404  -1.60182  -1.59573
 Alpha  occ. eigenvalues --   -1.54345  -1.51500  -1.48990  -1.48138  -1.47891
 Alpha  occ. eigenvalues --   -1.41297  -1.39870  -1.38987  -1.38832  -1.38355
 Alpha  occ. eigenvalues --   -1.35823  -1.32590  -1.31607  -1.30984  -1.28052
 Alpha  occ. eigenvalues --   -1.26758  -1.23748  -1.22017  -1.20052  -1.17486
 Alpha  occ. eigenvalues --   -1.16857  -1.16498  -1.15276  -1.14274  -1.12389
 Alpha  occ. eigenvalues --   -1.12020  -1.10635  -1.10004  -1.05676  -1.04731
 Alpha  occ. eigenvalues --   -1.03909  -1.01279  -1.00592  -0.98247  -0.97563
 Alpha  occ. eigenvalues --   -0.97425  -0.94965  -0.93855  -0.92802  -0.92403
 Alpha  occ. eigenvalues --   -0.89566  -0.89132  -0.87986  -0.87118  -0.85078
 Alpha  occ. eigenvalues --   -0.84180  -0.83728  -0.83200  -0.81216  -0.80928
 Alpha  occ. eigenvalues --   -0.80479  -0.78426  -0.78326  -0.76704  -0.76630
 Alpha  occ. eigenvalues --   -0.76432  -0.75672  -0.75461  -0.75017  -0.74544
 Alpha  occ. eigenvalues --   -0.73355  -0.72493  -0.72121  -0.71603  -0.71380
 Alpha  occ. eigenvalues --   -0.70411  -0.69454  -0.69149  -0.68819  -0.68157
 Alpha  occ. eigenvalues --   -0.67841  -0.67230  -0.66532  -0.66263  -0.65509
 Alpha  occ. eigenvalues --   -0.65086  -0.64842  -0.64262  -0.63563  -0.63243
 Alpha  occ. eigenvalues --   -0.62921  -0.62592  -0.62033  -0.61961  -0.61500
 Alpha  occ. eigenvalues --   -0.60794  -0.60354  -0.60193  -0.60003  -0.59572
 Alpha  occ. eigenvalues --   -0.59553  -0.59182  -0.58960  -0.58807  -0.58229
 Alpha  occ. eigenvalues --   -0.57978  -0.57400  -0.57110  -0.56687  -0.56568
 Alpha  occ. eigenvalues --   -0.55924  -0.55653  -0.55241  -0.55026  -0.54993
 Alpha  occ. eigenvalues --   -0.54365  -0.53951  -0.53518  -0.53164  -0.53015
 Alpha  occ. eigenvalues --   -0.52775  -0.52387  -0.52281  -0.52042  -0.51517
 Alpha  occ. eigenvalues --   -0.51026  -0.50854  -0.50607  -0.50460  -0.50292
 Alpha  occ. eigenvalues --   -0.50078  -0.49815  -0.49492  -0.49310  -0.49167
 Alpha  occ. eigenvalues --   -0.48968  -0.48823  -0.48452  -0.48164  -0.47939
 Alpha  occ. eigenvalues --   -0.47723  -0.46983  -0.46765  -0.46661  -0.46356
 Alpha  occ. eigenvalues --   -0.45978  -0.45926  -0.45682  -0.45581  -0.45342
 Alpha  occ. eigenvalues --   -0.45170  -0.44964  -0.44551  -0.43947  -0.43668
 Alpha  occ. eigenvalues --   -0.43282  -0.43247  -0.42455  -0.42348  -0.42108
 Alpha  occ. eigenvalues --   -0.41912  -0.41594  -0.41368  -0.38784  -0.38460
 Alpha  occ. eigenvalues --   -0.38266  -0.36957  -0.35821  -0.34498  -0.33998
 Alpha  occ. eigenvalues --   -0.33781  -0.33199  -0.32371  -0.31983  -0.26736
 Alpha  occ. eigenvalues --   -0.21818
 Alpha virt. eigenvalues --   -0.08534  -0.02149  -0.00562   0.00977   0.01240
 Alpha virt. eigenvalues --    0.01638   0.02279   0.02584   0.04628   0.04964
 Alpha virt. eigenvalues --    0.06034   0.06433   0.07030   0.07501   0.07692

 Mulliken charges:
               1
     1  Mg   0.428665
     2  C   -0.042303
     3  C   -0.080565
     4  C   -0.073577
     5  C   -0.053013
     6  N   -0.302891
     7  C    0.112880
     8  C    0.012314
     9  C    0.006041
    10  C    0.159174
    11  C   -0.053904
    12  C   -0.032270
    13  C   -0.011028
    14  C    0.476274
    15  O   -0.547143
    16  O   -0.252851
    17  N   -0.335195
    18  C    0.129543
    19  C    0.018291
    20  C   -0.035455
    21  C    0.143382
    22  C   -0.048207
    23  C    0.336417
    24  O   -0.519558
    25  C   -0.038535
    26  N   -0.267920
    27  C    0.172687
    28  C   -0.007879
    29  C    0.003238
    30  C    0.094069
    31  C   -0.056194
    32  C   -0.034192
    33  C   -0.052895
    34  N   -0.315860
    35  C    0.064115
    36  C    0.019353
    37  C   -0.045598
    38  C    0.114133
    39  C   -0.043797
    40  C    0.335788
    41  O   -0.531338
    42  C    0.046039
    43  C    0.479347
    44  O   -0.534649
    45  O   -0.265171
    46  C    0.075769
    47  C    0.103909
    48  C   -0.070249
    49  C   -0.018583
    50  C   -0.043991
    51  C   -0.028835
    52  C   -0.028987
    53  C   -0.036210
    54  C   -0.020651
    55  C   -0.066217
    56  C   -0.034724
    57  C   -0.042620
    58  C   -0.041816
    59  C   -0.010544
    60  C   -0.055313
    61  C   -0.029492
    62  C   -0.032869
    63  C   -0.034053
    64  C   -0.015219
    65  C   -0.058139
    66  C   -0.059267
    67  H    0.027018
    68  H    0.042978
    69  H    0.018354
    70  H    0.052357
    71  H    0.047338
    72  H    0.011676
    73  H    0.031794
    74  H    0.027519
    75  H    0.042830
    76  H    0.020931
    77  H    0.051581
    78  H    0.029769
    79  H    0.024409
    80  H    0.028393
    81  H    0.039389
    82  H    0.030330
    83  H    0.043192
    84  H    0.046226
    85  H    0.039099
    86  H    0.030256
    87  H    0.024269
    88  H    0.034250
    89  H    0.025813
    90  H    0.013187
    91  H    0.013664
    92  H    0.015676
    93  H    0.022721
    94  H    0.030216
    95  H    0.028314
    96  H    0.035482
    97  H    0.031576
    98  H    0.060491
    99  H    0.043995
   100  H    0.022542
   101  H    0.057943
   102  H    0.066514
   103  H    0.037830
   104  H    0.035854
   105  H    0.023922
   106  H    0.031998
   107  H    0.031409
   108  H    0.015120
   109  H    0.018282
   110  H    0.026495
   111  H    0.027519
   112  H    0.019838
   113  H    0.007615
   114  H    0.016336
   115  H    0.019040
   116  H    0.016577
   117  H    0.018136
   118  H    0.021715
   119  H    0.026571
   120  H    0.026122
   121  H    0.008367
   122  H    0.021099
   123  H    0.017336
   124  H    0.024100
   125  H    0.008276
   126  H    0.020863
   127  H    0.011996
   128  H    0.016566
   129  H    0.019442
   130  H    0.007578
   131  H    0.018912
   132  H    0.012706
   133  H    0.022502
   134  H    0.027324
   135  H    0.020806
   136  H    0.026626
   137  H    0.009857
   138  H    0.023819
   139  H    0.016596
   140  H    0.011095
 Sum of Mulliken charges =  -0.00000

 Dipole moment (field-independent basis, Debye):
    X=             -6.0475    Y=              5.7198    Z=              0.7337  Tot=              8.3563
 N-N= 4.274086222396D+03 E-N= 0.000000000000D+00  KE=-9.222233854117D+03
 Leave Link  601 at Wed Apr 27 23:21:34 2022, MaxMem=  6710886400 cpu:               0.8 elap:               0.1
 (Enter /sw/apps/gaussian-16.0/g16/l9999.exe)
 1\1\GINC-BP1-COMPUTE132\SP\RZINDO CIS\STO-3G\C55H74Mg1N4O6\OF15641\27-
 Apr-2022\0\\#p ZINDO=(nstates=5)\\step_1351_chromophore_13 ZINDO\\0,1\
 Mg,0,46.326,24.923,28.634\C,0,46.811,27.283,31.228\C,0,45.142,22.684,3
 0.904\C,0,46.72,22.523,26.181\C,0,47.917,27.224,26.467\N,0,46.195,25.0
 06,30.91\C,0,46.355,26.112,31.756\C,0,45.973,25.712,33.167\C,0,45.365,
 24.231,32.987\C,0,45.672,23.869,31.535\C,0,46.108,23.165,33.886\C,0,44
 .964,26.722,33.776\C,0,45.281,27.347,35.253\C,0,44.369,27.068,36.368\O

 Normal termination of Gaussian 16 at Wed Apr 27 23:21:35 2022.
