 Gaussian 16, Revision A.03,
 Gaussian 16:  ES64L-G16RevA.03 25-Dec-2016

 ------------------------------
 #p blyp/Def2SVP td=(nstates=5)
 ------------------------------

 ---------------------------------------------------
 step_1151_chromophore_24 TDDFT with blyp functional
 ---------------------------------------------------
 Symbolic Z-matrix:
 Charge =  0 Multiplicity = 1

                         Standard orientation:
 ---------------------------------------------------------------------
 Center     Atomic      Atomic             Coordinates (Angstroms)
 Number     Number       Type             X           Y           Z
 ---------------------------------------------------------------------
      1         12           0        5.121461    1.029743    0.197572
      2          6           0        4.184223   -2.291913   -0.088667
      3          6           0        1.890533    1.817384   -0.625454
      4          6           0        6.243173    4.245703   -0.035836
      5          6           0        8.414014   -0.061263    0.283535
      6          7           0        3.154795   -0.128140   -0.085582
      7          6           0        2.989137   -1.466651   -0.093000
      8          6           0        1.519364   -1.892164    0.103096
      9          6           0        0.806631   -0.560207   -0.228034
     10          6           0        1.975640    0.478984   -0.321862
     11          6           0       -0.187776   -0.583171   -1.457013
     12          6           0        1.133256   -2.518548    1.472270
     13          6           0        0.166466   -3.689452    1.403267
     14          6           0       -0.495102   -4.045371   -0.002768
     15          8           0       -0.031633   -4.629824   -0.947359
     16          8           0       -1.741657   -3.436745   -0.047409
     17          7           0        4.241507    2.762833   -0.269661
     18          6           0        2.891366    2.878227   -0.527454
     19          6           0        2.586841    4.348409   -0.749636
     20          6           0        3.764607    5.042214   -0.454083
     21          6           0        4.855262    4.030241   -0.180591
     22          6           0        1.190283    4.765208   -1.055266
     23          6           0        4.061137    6.561178   -0.389960
     24          8           0        5.205633    7.059607   -0.152088
     25          6           0        2.867716    7.528726   -0.632929
     26          7           0        6.984957    1.919605    0.161513
     27          6           0        7.289608    3.264317    0.228992
     28          6           0        8.787245    3.626153    0.164845
     29          6           0        9.451863    2.197508    0.524516
     30          6           0        8.204744    1.267789    0.284014
     31          6           0        9.278236    4.294860   -1.151857
     32          6           0        9.916585    2.100518    1.969973
     33          6           0       10.886754    3.157505    2.581703
     34          7           0        6.140099   -0.774386    0.251211
     35          6           0        7.464846   -1.100722    0.183975
     36          6           0        7.650402   -2.523503    0.145955
     37          6           0        6.378252   -3.004978   -0.082062
     38          6           0        5.511760   -1.917238    0.032719
     39          6           0        9.020877   -3.184596    0.167105
     40          6           0        5.644102   -4.185269   -0.325744
     41          8           0        6.022871   -5.375815   -0.506943
     42          6           0        4.138111   -3.788458   -0.118018
     43          6           0        3.331739   -4.563207   -1.178424
     44          8           0        3.194796   -4.220793   -2.375795
     45          8           0        2.847072   -5.731485   -0.726892
     46          6           0        2.604956   -6.802667   -1.777044
     47          6           0       -2.688910   -3.705084   -1.111035
     48          6           0       -3.987113   -2.959385   -0.749922
     49          6           0       -5.234726   -3.394723   -0.598877
     50          6           0       -5.699652   -4.748463   -0.913572
     51          6           0       -6.457925   -2.413926   -0.356623
     52          6           0       -7.212964   -2.705711    0.955915
     53          6           0       -7.300322   -1.460106    1.832168
     54          6           0       -8.525598   -1.549677    2.836057
     55          6           0       -8.142173   -2.337732    4.208745
     56          6           0       -9.128553   -0.139713    3.133106
     57          6           0      -10.248534    0.278026    2.077660
     58          6           0      -10.058199    1.738658    1.664152
     59          6           0      -10.436957    1.926038    0.201549
     60          6           0       -9.235876    1.668347   -0.701775
     61          6           0      -11.033340    3.312152    0.023868
     62          6           0      -12.652776    3.403976   -0.000636
     63          6           0      -13.205182    3.164000   -1.444281
     64          6           0      -14.554706    2.330085   -1.444981
     65          6           0      -14.880077    1.760448   -2.849571
     66          6           0      -15.761453    3.238807   -0.864431
     67          1           0        0.836951    2.104441   -0.592411
     68          1           0        6.660420    5.254343   -0.079652
     69          1           0        9.475922   -0.296260    0.382209
     70          1           0        1.457132   -2.652587   -0.676323
     71          1           0        0.191072   -0.254034    0.618070
     72          1           0       -0.089980    0.327298   -2.048803
     73          1           0       -1.208343   -0.743786   -1.108960
     74          1           0        0.107920   -1.363749   -2.158057
     75          1           0        0.546969   -1.747876    1.971898
     76          1           0        1.967879   -2.814185    2.107953
     77          1           0       -0.585694   -3.478415    2.163453
     78          1           0        0.762011   -4.573355    1.633125
     79          1           0        1.257027    5.600575   -1.752437
     80          1           0        0.785489    5.127688   -0.110914
     81          1           0        0.459847    4.092563   -1.503586
     82          1           0        2.449151    7.454983   -1.636931
     83          1           0        3.206224    8.561330   -0.544386
     84          1           0        2.145327    7.383998    0.169708
     85          1           0        8.975694    4.278176    1.017919
     86          1           0       10.274172    1.940859   -0.144151
     87          1           0        9.108077    5.362817   -1.017317
     88          1           0        8.580925    3.937350   -1.909483
     89          1           0       10.292331    3.980611   -1.398150
     90          1           0       10.300332    1.089501    2.105720
     91          1           0        9.028416    2.144172    2.600490
     92          1           0       10.404185    3.756438    3.355065
     93          1           0       11.242608    3.878228    1.845527
     94          1           0       11.756690    2.664786    3.016601
     95          1           0        9.807669   -2.500050   -0.150618
     96          1           0        8.947664   -4.025242   -0.523808
     97          1           0        9.303019   -3.512712    1.167301
     98          1           0        3.637776   -4.123727    0.790786
     99          1           0        3.533837   -6.888097   -2.340858
    100          1           0        1.706978   -6.739432   -2.390319
    101          1           0        2.532992   -7.783380   -1.307350
    102          1           0       -2.680474   -4.787687   -1.234446
    103          1           0       -2.287985   -3.299267   -2.039951
    104          1           0       -3.923158   -1.876173   -0.642488
    105          1           0       -6.503550   -4.786673   -1.647234
    106          1           0       -6.119930   -5.328131   -0.091500
    107          1           0       -4.860848   -5.329602   -1.298823
    108          1           0       -7.110689   -2.517883   -1.224068
    109          1           0       -6.039047   -1.407317   -0.356950
    110          1           0       -6.638790   -3.536999    1.365976
    111          1           0       -8.118818   -3.063545    0.468005
    112          1           0       -7.321314   -0.519031    1.283536
    113          1           0       -6.357239   -1.472557    2.378357
    114          1           0       -9.316175   -2.187363    2.439293
    115          1           0       -8.418350   -1.769884    5.097133
    116          1           0       -7.053709   -2.386585    4.246957
    117          1           0       -8.615455   -3.318063    4.266262
    118          1           0       -8.256641    0.514018    3.173588
    119          1           0       -9.494563   -0.038084    4.154723
    120          1           0      -11.262858    0.137216    2.451997
    121          1           0      -10.114637   -0.410707    1.243759
    122          1           0       -9.068957    2.127849    1.903183
    123          1           0      -10.696539    2.367570    2.283791
    124          1           0      -11.226071    1.255365   -0.136771
    125          1           0       -8.771670    2.621440   -0.953173
    126          1           0       -9.449680    1.115359   -1.617132
    127          1           0       -8.416741    1.129949   -0.225530
    128          1           0      -10.555372    3.663307   -0.891289
    129          1           0      -10.718442    3.961144    0.841130
    130          1           0      -12.815963    4.466155    0.181800
    131          1           0      -13.134649    2.669339    0.644349
    132          1           0      -12.440884    2.744379   -2.098354
    133          1           0      -13.468980    4.115559   -1.905941
    134          1           0      -14.481436    1.486537   -0.758156
    135          1           0      -15.190212    2.560360   -3.521457
    136          1           0      -15.676388    1.067835   -2.577536
    137          1           0      -13.996948    1.215149   -3.183211
    138          1           0      -16.257646    2.650516   -0.093355
    139          1           0      -16.458084    3.458535   -1.673797
    140          1           0      -15.454375    4.139461   -0.331989
 ---------------------------------------------------------------------

 SCF Done:  E(RB-LYP) =  -3007.37770501     A.U. after   22 cycles

 Excitation energies and oscillator strengths:

 Excited State   1:      Singlet-A      1.7804 eV  696.38 nm  f=0.3052  <S**2>=0.000
     244 -> 247        0.15993
     245 -> 248       -0.15625
     246 -> 247        0.67256
     246 <- 247       -0.14993
 This state for optimization and/or second-order correction.
 Total Energy, E(TD-HF/TD-DFT) =  -3007.31227573
 Copying the excited state density for this state as the 1-particle RhoCI density.

 Excited State   2:      Singlet-A      1.9062 eV  650.44 nm  f=0.0276  <S**2>=0.000
     244 -> 247        0.65060
     245 -> 247       -0.19641
     246 -> 247       -0.16378

 Excited State   3:      Singlet-A      1.9584 eV  633.08 nm  f=0.0415  <S**2>=0.000
     242 -> 247       -0.23217
     244 -> 247        0.22218
     245 -> 247        0.58370
     246 -> 248        0.18376
     246 -> 249       -0.10099

 Excited State   4:      Singlet-A      2.0716 eV  598.48 nm  f=0.0004  <S**2>=0.000
     243 -> 247        0.70053

 Excited State   5:      Singlet-A      2.2017 eV  563.13 nm  f=0.0103  <S**2>=0.000
     242 -> 247        0.64983
     245 -> 247        0.18343
     246 -> 248        0.18219

 The electronic state is 1-A.
 Alpha  occ. eigenvalues --  -46.26407 -18.81529 -18.80997 -18.77964 -18.76030
 Alpha  occ. eigenvalues --  -18.75062 -18.74236 -14.03066 -14.02797 -14.01552
 Alpha  occ. eigenvalues --  -14.00675 -10.04857 -10.02451 -10.00733  -9.99023
 Alpha  occ. eigenvalues --   -9.98673  -9.96722  -9.96613  -9.96553  -9.96533
 Alpha  occ. eigenvalues --   -9.96393  -9.96027  -9.95463  -9.94819  -9.94466
 Alpha  occ. eigenvalues --   -9.94458  -9.94050  -9.94047  -9.93981  -9.93978
 Alpha  occ. eigenvalues --   -9.93847  -9.93776  -9.93478  -9.93434  -9.93282
 Alpha  occ. eigenvalues --   -9.93146  -9.93134  -9.93123  -9.92870  -9.92577
 Alpha  occ. eigenvalues --   -9.92538  -9.92521  -9.92489  -9.92346  -9.92334
 Alpha  occ. eigenvalues --   -9.92291  -9.92283  -9.92256  -9.92230  -9.92207
 Alpha  occ. eigenvalues --   -9.92149  -9.92060  -9.91945  -9.91839  -9.91572
 Alpha  occ. eigenvalues --   -9.91547  -9.91406  -9.91270  -9.91197  -9.91196
 Alpha  occ. eigenvalues --   -9.91164  -9.91014  -9.90982  -9.90968  -9.90840
 Alpha  occ. eigenvalues --   -9.90536  -2.91239  -1.71654  -1.71118  -1.70961
 Alpha  occ. eigenvalues --   -0.98085  -0.95700  -0.90836  -0.89192  -0.88861
 Alpha  occ. eigenvalues --   -0.87340  -0.86247  -0.86041  -0.84798  -0.83575
 Alpha  occ. eigenvalues --   -0.75681  -0.73995  -0.73332  -0.73213  -0.71941
 Alpha  occ. eigenvalues --   -0.71371  -0.71103  -0.70560  -0.70533  -0.70389
 Alpha  occ. eigenvalues --   -0.69708  -0.69018  -0.68115  -0.67084  -0.66616
 Alpha  occ. eigenvalues --   -0.66067  -0.65338  -0.65127  -0.64615  -0.64075
 Alpha  occ. eigenvalues --   -0.63566  -0.62375  -0.62130  -0.61704  -0.60628
 Alpha  occ. eigenvalues --   -0.60220  -0.59983  -0.59722  -0.59699  -0.59084
 Alpha  occ. eigenvalues --   -0.58490  -0.57619  -0.56316  -0.55669  -0.54681
 Alpha  occ. eigenvalues --   -0.54144  -0.53726  -0.52548  -0.52190  -0.51533
 Alpha  occ. eigenvalues --   -0.51431  -0.50810  -0.50300  -0.50104  -0.49813
 Alpha  occ. eigenvalues --   -0.49432  -0.48972  -0.48737  -0.47333  -0.47025
 Alpha  occ. eigenvalues --   -0.46060  -0.45880  -0.45258  -0.45072  -0.44153
 Alpha  occ. eigenvalues --   -0.43402  -0.43216  -0.42866  -0.42365  -0.42146
 Alpha  occ. eigenvalues --   -0.41883  -0.41500  -0.41386  -0.41255  -0.41082
 Alpha  occ. eigenvalues --   -0.40619  -0.40344  -0.40038  -0.39987  -0.39548
 Alpha  occ. eigenvalues --   -0.39522  -0.39349  -0.39114  -0.39039  -0.38836
 Alpha  occ. eigenvalues --   -0.38752  -0.38511  -0.38241  -0.38098  -0.38041
 Alpha  occ. eigenvalues --   -0.37718  -0.37697  -0.37599  -0.37393  -0.37342
 Alpha  occ. eigenvalues --   -0.37084  -0.36854  -0.36382  -0.36077  -0.36056
 Alpha  occ. eigenvalues --   -0.35738  -0.35673  -0.35635  -0.35532  -0.35282
 Alpha  occ. eigenvalues --   -0.35231  -0.34915  -0.34890  -0.34732  -0.34620
 Alpha  occ. eigenvalues --   -0.34472  -0.34145  -0.34095  -0.33986  -0.33728
 Alpha  occ. eigenvalues --   -0.33695  -0.33572  -0.33342  -0.33100  -0.32974
 Alpha  occ. eigenvalues --   -0.32821  -0.32740  -0.32627  -0.32325  -0.32250
 Alpha  occ. eigenvalues --   -0.32089  -0.31980  -0.31772  -0.31699  -0.31265
 Alpha  occ. eigenvalues --   -0.31214  -0.31160  -0.30860  -0.30689  -0.30454
 Alpha  occ. eigenvalues --   -0.30330  -0.30086  -0.29964  -0.29780  -0.29619
 Alpha  occ. eigenvalues --   -0.29535  -0.29259  -0.29070  -0.28885  -0.28726
 Alpha  occ. eigenvalues --   -0.28552  -0.28347  -0.28236  -0.28068  -0.27810
 Alpha  occ. eigenvalues --   -0.27730  -0.27311  -0.27180  -0.27128  -0.26499
 Alpha  occ. eigenvalues --   -0.26345  -0.25950  -0.25863  -0.25780  -0.25565
 Alpha  occ. eigenvalues --   -0.25087  -0.24797  -0.23783  -0.23518  -0.23305
 Alpha  occ. eigenvalues --   -0.23247  -0.22792  -0.21918  -0.21360  -0.21159
 Alpha  occ. eigenvalues --   -0.20775  -0.19151  -0.18756  -0.18106  -0.17053
 Alpha  occ. eigenvalues --   -0.15393
 Alpha virt. eigenvalues --   -0.11236  -0.07066  -0.06261  -0.04975  -0.03417
 Alpha virt. eigenvalues --   -0.02482  -0.02342  -0.01454  -0.01229  -0.00060
 Alpha virt. eigenvalues --    0.01302   0.01746   0.02344   0.02463   0.03031

 Mulliken charges:
               1
     1  Mg   0.712463
     2  C    0.002723
     3  C   -0.050955
     4  C   -0.044532
     5  C   -0.099294
     6  N   -0.187066
     7  C   -0.132122
     8  C    0.042105
     9  C    0.009467
    10  C   -0.002180
    11  C    0.110458
    12  C    0.143475
    13  C    0.122328
    14  C    0.075652
    15  O   -0.157338
    16  O   -0.295052
    17  N   -0.347834
    18  C    0.129066
    19  C   -0.140747
    20  C    0.020321
    21  C    0.145020
    22  C    0.170855
    23  C   -0.035089
    24  O   -0.196561
    25  C    0.103884
    26  N   -0.247942
    27  C   -0.009114
    28  C    0.022281
    29  C    0.006859
    30  C    0.042490
    31  C    0.150124
    32  C    0.075663
    33  C    0.075656
    34  N   -0.234134
    35  C    0.141130
    36  C   -0.199050
    37  C    0.148537
    38  C    0.100485
    39  C    0.174085
    40  C   -0.036117
    41  O   -0.179757
    42  C    0.021557
    43  C    0.109296
    44  O   -0.230347
    45  O   -0.258838
    46  C    0.230098
    47  C    0.316298
    48  C   -0.050511
    49  C   -0.167251
    50  C    0.149987
    51  C    0.084889
    52  C    0.080199
    53  C    0.110234
    54  C   -0.086178
    55  C    0.079826
    56  C    0.089637
    57  C    0.084782
    58  C    0.112937
    59  C   -0.073819
    60  C    0.121361
    61  C    0.088008
    62  C    0.098118
    63  C    0.071094
    64  C   -0.123069
    65  C    0.112365
    66  C    0.076189
    67  H   -0.044378
    68  H   -0.039990
    69  H   -0.070119
    70  H    0.013932
    71  H   -0.024059
    72  H   -0.015998
    73  H    0.002985
    74  H    0.007264
    75  H   -0.030053
    76  H   -0.005974
    77  H   -0.007096
    78  H    0.003531
    79  H   -0.011198
    80  H    0.007131
    81  H    0.001999
    82  H    0.020750
    83  H   -0.013978
    84  H    0.009106
    85  H   -0.028767
    86  H   -0.034130
    87  H    0.011839
    88  H   -0.001736
    89  H    0.002016
    90  H   -0.026031
    91  H   -0.026574
    92  H   -0.003294
    93  H   -0.009644
    94  H   -0.006639
    95  H   -0.011478
    96  H    0.014912
    97  H    0.001918
    98  H   -0.003482
    99  H    0.021339
   100  H    0.031233
   101  H   -0.003217
   102  H   -0.006032
   103  H   -0.003029
   104  H   -0.040607
   105  H   -0.009481
   106  H   -0.007408
   107  H   -0.025884
   108  H   -0.014327
   109  H   -0.039626
   110  H   -0.009910
   111  H   -0.025287
   112  H   -0.014150
   113  H   -0.026702
   114  H   -0.028030
   115  H   -0.020512
   116  H   -0.022283
   117  H   -0.004097
   118  H   -0.038142
   119  H   -0.041379
   120  H   -0.020726
   121  H   -0.022887
   122  H   -0.036575
   123  H   -0.042808
   124  H   -0.043105
   125  H   -0.027189
   126  H   -0.014762
   127  H   -0.033591
   128  H   -0.045054
   129  H   -0.040245
   130  H   -0.022216
   131  H   -0.015301
   132  H   -0.035010
   133  H   -0.035758
   134  H   -0.030976
   135  H   -0.002123
   136  H   -0.013505
   137  H   -0.011648
   138  H   -0.019386
   139  H   -0.010925
   140  H   -0.008546
 Sum of Mulliken charges =  -0.00000

 Dipole moment (field-independent basis, Debye):
    X=             -4.8903    Y=              1.7055    Z=              3.1691  Tot=              6.0718
 Quadrupole moment (field-independent basis, Debye-Ang):
   XX=           -375.2391   YY=           -430.4506   ZZ=           -408.6633
   XY=             18.6013   XZ=             16.1867   YZ=             -7.8770

 Normal termination of Gaussian 16 at Wed May  4 01:14:37 2022.
