 Gaussian 16, Revision A.03,
 Gaussian 16:  ES64L-G16RevA.03 25-Dec-2016

 -----------------------------------
 #p cam-b3lyp/Def2SVP td=(nstates=5)
 -----------------------------------

 --------------------------------------------------------
 step_1151_chromophore_24 TDDFT with cam-b3lyp functional
 --------------------------------------------------------
 Symbolic Z-matrix:
 Charge =  0 Multiplicity = 1

                         Standard orientation:
 ---------------------------------------------------------------------
 Center     Atomic      Atomic             Coordinates (Angstroms)
 Number     Number       Type             X           Y           Z
 ---------------------------------------------------------------------
      1         12           0        5.121461    1.029743    0.197572
      2          6           0        4.184223   -2.291913   -0.088667
      3          6           0        1.890533    1.817384   -0.625454
      4          6           0        6.243173    4.245703   -0.035836
      5          6           0        8.414014   -0.061263    0.283535
      6          7           0        3.154795   -0.128140   -0.085582
      7          6           0        2.989137   -1.466651   -0.093000
      8          6           0        1.519364   -1.892164    0.103096
      9          6           0        0.806631   -0.560207   -0.228034
     10          6           0        1.975640    0.478984   -0.321862
     11          6           0       -0.187776   -0.583171   -1.457013
     12          6           0        1.133256   -2.518548    1.472270
     13          6           0        0.166466   -3.689452    1.403267
     14          6           0       -0.495102   -4.045371   -0.002768
     15          8           0       -0.031633   -4.629824   -0.947359
     16          8           0       -1.741657   -3.436745   -0.047409
     17          7           0        4.241507    2.762833   -0.269661
     18          6           0        2.891366    2.878227   -0.527454
     19          6           0        2.586841    4.348409   -0.749636
     20          6           0        3.764607    5.042214   -0.454083
     21          6           0        4.855262    4.030241   -0.180591
     22          6           0        1.190283    4.765208   -1.055266
     23          6           0        4.061137    6.561178   -0.389960
     24          8           0        5.205633    7.059607   -0.152088
     25          6           0        2.867716    7.528726   -0.632929
     26          7           0        6.984957    1.919605    0.161513
     27          6           0        7.289608    3.264317    0.228992
     28          6           0        8.787245    3.626153    0.164845
     29          6           0        9.451863    2.197508    0.524516
     30          6           0        8.204744    1.267789    0.284014
     31          6           0        9.278236    4.294860   -1.151857
     32          6           0        9.916585    2.100518    1.969973
     33          6           0       10.886754    3.157505    2.581703
     34          7           0        6.140099   -0.774386    0.251211
     35          6           0        7.464846   -1.100722    0.183975
     36          6           0        7.650402   -2.523503    0.145955
     37          6           0        6.378252   -3.004978   -0.082062
     38          6           0        5.511760   -1.917238    0.032719
     39          6           0        9.020877   -3.184596    0.167105
     40          6           0        5.644102   -4.185269   -0.325744
     41          8           0        6.022871   -5.375815   -0.506943
     42          6           0        4.138111   -3.788458   -0.118018
     43          6           0        3.331739   -4.563207   -1.178424
     44          8           0        3.194796   -4.220793   -2.375795
     45          8           0        2.847072   -5.731485   -0.726892
     46          6           0        2.604956   -6.802667   -1.777044
     47          6           0       -2.688910   -3.705084   -1.111035
     48          6           0       -3.987113   -2.959385   -0.749922
     49          6           0       -5.234726   -3.394723   -0.598877
     50          6           0       -5.699652   -4.748463   -0.913572
     51          6           0       -6.457925   -2.413926   -0.356623
     52          6           0       -7.212964   -2.705711    0.955915
     53          6           0       -7.300322   -1.460106    1.832168
     54          6           0       -8.525598   -1.549677    2.836057
     55          6           0       -8.142173   -2.337732    4.208745
     56          6           0       -9.128553   -0.139713    3.133106
     57          6           0      -10.248534    0.278026    2.077660
     58          6           0      -10.058199    1.738658    1.664152
     59          6           0      -10.436957    1.926038    0.201549
     60          6           0       -9.235876    1.668347   -0.701775
     61          6           0      -11.033340    3.312152    0.023868
     62          6           0      -12.652776    3.403976   -0.000636
     63          6           0      -13.205182    3.164000   -1.444281
     64          6           0      -14.554706    2.330085   -1.444981
     65          6           0      -14.880077    1.760448   -2.849571
     66          6           0      -15.761453    3.238807   -0.864431
     67          1           0        0.836951    2.104441   -0.592411
     68          1           0        6.660420    5.254343   -0.079652
     69          1           0        9.475922   -0.296260    0.382209
     70          1           0        1.457132   -2.652587   -0.676323
     71          1           0        0.191072   -0.254034    0.618070
     72          1           0       -0.089980    0.327298   -2.048803
     73          1           0       -1.208343   -0.743786   -1.108960
     74          1           0        0.107920   -1.363749   -2.158057
     75          1           0        0.546969   -1.747876    1.971898
     76          1           0        1.967879   -2.814185    2.107953
     77          1           0       -0.585694   -3.478415    2.163453
     78          1           0        0.762011   -4.573355    1.633125
     79          1           0        1.257027    5.600575   -1.752437
     80          1           0        0.785489    5.127688   -0.110914
     81          1           0        0.459847    4.092563   -1.503586
     82          1           0        2.449151    7.454983   -1.636931
     83          1           0        3.206224    8.561330   -0.544386
     84          1           0        2.145327    7.383998    0.169708
     85          1           0        8.975694    4.278176    1.017919
     86          1           0       10.274172    1.940859   -0.144151
     87          1           0        9.108077    5.362817   -1.017317
     88          1           0        8.580925    3.937350   -1.909483
     89          1           0       10.292331    3.980611   -1.398150
     90          1           0       10.300332    1.089501    2.105720
     91          1           0        9.028416    2.144172    2.600490
     92          1           0       10.404185    3.756438    3.355065
     93          1           0       11.242608    3.878228    1.845527
     94          1           0       11.756690    2.664786    3.016601
     95          1           0        9.807669   -2.500050   -0.150618
     96          1           0        8.947664   -4.025242   -0.523808
     97          1           0        9.303019   -3.512712    1.167301
     98          1           0        3.637776   -4.123727    0.790786
     99          1           0        3.533837   -6.888097   -2.340858
    100          1           0        1.706978   -6.739432   -2.390319
    101          1           0        2.532992   -7.783380   -1.307350
    102          1           0       -2.680474   -4.787687   -1.234446
    103          1           0       -2.287985   -3.299267   -2.039951
    104          1           0       -3.923158   -1.876173   -0.642488
    105          1           0       -6.503550   -4.786673   -1.647234
    106          1           0       -6.119930   -5.328131   -0.091500
    107          1           0       -4.860848   -5.329602   -1.298823
    108          1           0       -7.110689   -2.517883   -1.224068
    109          1           0       -6.039047   -1.407317   -0.356950
    110          1           0       -6.638790   -3.536999    1.365976
    111          1           0       -8.118818   -3.063545    0.468005
    112          1           0       -7.321314   -0.519031    1.283536
    113          1           0       -6.357239   -1.472557    2.378357
    114          1           0       -9.316175   -2.187363    2.439293
    115          1           0       -8.418350   -1.769884    5.097133
    116          1           0       -7.053709   -2.386585    4.246957
    117          1           0       -8.615455   -3.318063    4.266262
    118          1           0       -8.256641    0.514018    3.173588
    119          1           0       -9.494563   -0.038084    4.154723
    120          1           0      -11.262858    0.137216    2.451997
    121          1           0      -10.114637   -0.410707    1.243759
    122          1           0       -9.068957    2.127849    1.903183
    123          1           0      -10.696539    2.367570    2.283791
    124          1           0      -11.226071    1.255365   -0.136771
    125          1           0       -8.771670    2.621440   -0.953173
    126          1           0       -9.449680    1.115359   -1.617132
    127          1           0       -8.416741    1.129949   -0.225530
    128          1           0      -10.555372    3.663307   -0.891289
    129          1           0      -10.718442    3.961144    0.841130
    130          1           0      -12.815963    4.466155    0.181800
    131          1           0      -13.134649    2.669339    0.644349
    132          1           0      -12.440884    2.744379   -2.098354
    133          1           0      -13.468980    4.115559   -1.905941
    134          1           0      -14.481436    1.486537   -0.758156
    135          1           0      -15.190212    2.560360   -3.521457
    136          1           0      -15.676388    1.067835   -2.577536
    137          1           0      -13.996948    1.215149   -3.183211
    138          1           0      -16.257646    2.650516   -0.093355
    139          1           0      -16.458084    3.458535   -1.673797
    140          1           0      -15.454375    4.139461   -0.331989
 ---------------------------------------------------------------------

 SCF Done:  E(RCAM-B3LYP) =  -3007.15805569     A.U. after   17 cycles

 Excitation energies and oscillator strengths:

 Excited State   1:      Singlet-A      1.6909 eV  733.25 nm  f=0.3951  <S**2>=0.000
     245 -> 248       -0.17475
     246 -> 247        0.68476
     245 <- 248       -0.10481
 This state for optimization and/or second-order correction.
 Total Energy, E(TD-HF/TD-DFT) =  -3007.09591647
 Copying the excited state density for this state as the 1-particle RhoCI density.

 Excited State   2:      Singlet-A      2.2544 eV  549.97 nm  f=0.0798  <S**2>=0.000
     245 -> 247        0.62509
     246 -> 248        0.31352

 Excited State   3:      Singlet-A      3.3960 eV  365.09 nm  f=0.0130  <S**2>=0.000
     242 -> 247        0.12126
     243 -> 247        0.36861
     243 -> 249       -0.21736
     243 -> 250       -0.19717
     244 -> 247        0.37050
     244 -> 249       -0.18612
     244 -> 250       -0.15567

 Excited State   4:      Singlet-A      3.4390 eV  360.53 nm  f=0.6724  <S**2>=0.000
     245 -> 247       -0.30038
     246 -> 248        0.61199
     245 <- 247        0.10466

 Excited State   5:      Singlet-A      3.5841 eV  345.93 nm  f=0.0029  <S**2>=0.000
     239 -> 247        0.37191
     239 -> 248        0.18466
     239 -> 249        0.29919
     239 -> 250       -0.18712
     241 -> 247       -0.28527
     241 -> 248       -0.10897
     241 -> 249       -0.17835
     241 -> 250        0.10831

 The electronic state is 1-A.
 Alpha  occ. eigenvalues --  -46.87894 -19.24257 -19.23765 -19.20893 -19.19556
 Alpha  occ. eigenvalues --  -19.18065 -19.17121 -14.42003 -14.41637 -14.40197
 Alpha  occ. eigenvalues --  -14.38951 -10.40149 -10.37745 -10.36390 -10.34263
 Alpha  occ. eigenvalues --  -10.32722 -10.31363 -10.31328 -10.31137 -10.30902
 Alpha  occ. eigenvalues --  -10.30674 -10.30572 -10.29617 -10.29467 -10.28695
 Alpha  occ. eigenvalues --  -10.28491 -10.28209 -10.28049 -10.28023 -10.27988
 Alpha  occ. eigenvalues --  -10.27886 -10.27819 -10.27720 -10.27711 -10.27390
 Alpha  occ. eigenvalues --  -10.27301 -10.27267 -10.27262 -10.27042 -10.26598
 Alpha  occ. eigenvalues --  -10.26533 -10.26467 -10.26401 -10.26318 -10.26183
 Alpha  occ. eigenvalues --  -10.26046 -10.26038 -10.26020 -10.25985 -10.25765
 Alpha  occ. eigenvalues --  -10.25757 -10.25656 -10.25597 -10.25592 -10.25440
 Alpha  occ. eigenvalues --  -10.25254 -10.25062 -10.24986 -10.24857 -10.24844
 Alpha  occ. eigenvalues --  -10.24773 -10.24740 -10.24692 -10.24591 -10.24479
 Alpha  occ. eigenvalues --  -10.24314  -3.16639  -1.91527  -1.91086  -1.90965
 Alpha  occ. eigenvalues --   -1.16484  -1.14000  -1.08600  -1.07768  -1.06973
 Alpha  occ. eigenvalues --   -1.04912  -1.03890  -1.03743  -1.02444  -1.01217
 Alpha  occ. eigenvalues --   -0.92709  -0.90866  -0.90137  -0.89990  -0.88594
 Alpha  occ. eigenvalues --   -0.88006  -0.87822  -0.87251  -0.87120  -0.87014
 Alpha  occ. eigenvalues --   -0.86181  -0.85329  -0.84367  -0.83174  -0.82765
 Alpha  occ. eigenvalues --   -0.82101  -0.81410  -0.81098  -0.80614  -0.79867
 Alpha  occ. eigenvalues --   -0.79294  -0.78203  -0.77751  -0.77152  -0.75927
 Alpha  occ. eigenvalues --   -0.75540  -0.75326  -0.75039  -0.74946  -0.74205
 Alpha  occ. eigenvalues --   -0.73670  -0.72611  -0.71216  -0.70456  -0.69276
 Alpha  occ. eigenvalues --   -0.68691  -0.68307  -0.67058  -0.66562  -0.65870
 Alpha  occ. eigenvalues --   -0.65671  -0.64939  -0.64247  -0.64166  -0.63579
 Alpha  occ. eigenvalues --   -0.63214  -0.62876  -0.62672  -0.60864  -0.60527
 Alpha  occ. eigenvalues --   -0.59627  -0.59495  -0.58753  -0.58285  -0.57537
 Alpha  occ. eigenvalues --   -0.56644  -0.56381  -0.55962  -0.55731  -0.55113
 Alpha  occ. eigenvalues --   -0.55009  -0.54471  -0.54447  -0.53993  -0.53742
 Alpha  occ. eigenvalues --   -0.53346  -0.53108  -0.52938  -0.52625  -0.52587
 Alpha  occ. eigenvalues --   -0.52410  -0.51809  -0.51666  -0.51607  -0.51470
 Alpha  occ. eigenvalues --   -0.51302  -0.51146  -0.50812  -0.50602  -0.50542
 Alpha  occ. eigenvalues --   -0.50259  -0.50092  -0.49899  -0.49762  -0.49494
 Alpha  occ. eigenvalues --   -0.49397  -0.49024  -0.48965  -0.48469  -0.48242
 Alpha  occ. eigenvalues --   -0.48163  -0.47809  -0.47663  -0.47542  -0.47473
 Alpha  occ. eigenvalues --   -0.47233  -0.47058  -0.46850  -0.46718  -0.46674
 Alpha  occ. eigenvalues --   -0.46452  -0.46197  -0.46033  -0.45817  -0.45707
 Alpha  occ. eigenvalues --   -0.45458  -0.45393  -0.45004  -0.44860  -0.44543
 Alpha  occ. eigenvalues --   -0.44478  -0.44312  -0.44116  -0.43923  -0.43822
 Alpha  occ. eigenvalues --   -0.43741  -0.43479  -0.43391  -0.43112  -0.42922
 Alpha  occ. eigenvalues --   -0.42615  -0.42566  -0.42305  -0.42045  -0.41930
 Alpha  occ. eigenvalues --   -0.41836  -0.41703  -0.41512  -0.41342  -0.41074
 Alpha  occ. eigenvalues --   -0.40713  -0.40391  -0.40293  -0.40039  -0.39781
 Alpha  occ. eigenvalues --   -0.39719  -0.39597  -0.39284  -0.39256  -0.38928
 Alpha  occ. eigenvalues --   -0.38631  -0.38144  -0.38142  -0.37923  -0.37596
 Alpha  occ. eigenvalues --   -0.37195  -0.36822  -0.36686  -0.36503  -0.36286
 Alpha  occ. eigenvalues --   -0.35882  -0.35285  -0.35118  -0.34688  -0.34270
 Alpha  occ. eigenvalues --   -0.33591  -0.32836  -0.31842  -0.31351  -0.31190
 Alpha  occ. eigenvalues --   -0.30854  -0.30585  -0.30153  -0.29807  -0.23889
 Alpha  occ. eigenvalues --   -0.20589
 Alpha virt. eigenvalues --   -0.08212  -0.01723   0.00064   0.01796   0.02768
 Alpha virt. eigenvalues --    0.04449   0.05123   0.05508   0.06528   0.06869
 Alpha virt. eigenvalues --    0.07777   0.08563   0.08762   0.09042   0.09250

 Mulliken charges:
               1
     1  Mg   0.846669
     2  C   -0.019944
     3  C   -0.067300
     4  C   -0.065225
     5  C   -0.101144
     6  N   -0.255737
     7  C   -0.075672
     8  C   -0.016567
     9  C   -0.041535
    10  C    0.018376
    11  C    0.057771
    12  C    0.090776
    13  C    0.060995
    14  C    0.148373
    15  O   -0.196639
    16  O   -0.359003
    17  N   -0.435363
    18  C    0.146481
    19  C   -0.146299
    20  C   -0.046111
    21  C    0.167256
    22  C    0.109198
    23  C    0.043937
    24  O   -0.236064
    25  C    0.025543
    26  N   -0.317617
    27  C    0.017854
    28  C   -0.038532
    29  C   -0.045156
    30  C    0.052712
    31  C    0.093078
    32  C    0.024291
    33  C    0.011304
    34  N   -0.321999
    35  C    0.133213
    36  C   -0.183591
    37  C    0.056399
    38  C    0.129581
    39  C    0.123982
    40  C    0.062356
    41  O   -0.219552
    42  C   -0.048230
    43  C    0.191986
    44  O   -0.267177
    45  O   -0.322160
    46  C    0.194318
    47  C    0.284767
    48  C   -0.074215
    49  C   -0.185456
    50  C    0.084058
    51  C    0.035787
    52  C    0.024927
    53  C    0.056693
    54  C   -0.143668
    55  C    0.028055
    56  C    0.038878
    57  C    0.033031
    58  C    0.056535
    59  C   -0.130992
    60  C    0.065561
    61  C    0.035294
    62  C    0.040643
    63  C    0.021374
    64  C   -0.177571
    65  C    0.054104
    66  C    0.016499
    67  H   -0.014103
    68  H    0.000828
    69  H   -0.035462
    70  H    0.044413
    71  H    0.010819
    72  H    0.009439
    73  H    0.024047
    74  H    0.031511
    75  H    0.001245
    76  H    0.024826
    77  H    0.027640
    78  H    0.033430
    79  H    0.014835
    80  H    0.034759
    81  H    0.032123
    82  H    0.047583
    83  H    0.022788
    84  H    0.036621
    85  H    0.006994
    86  H    0.000899
    87  H    0.034128
    88  H    0.023953
    89  H    0.025867
    90  H    0.002964
    91  H    0.002414
    92  H    0.019841
    93  H    0.012252
    94  H    0.018248
    95  H    0.012057
    96  H    0.040375
    97  H    0.027919
    98  H    0.035470
    99  H    0.044788
   100  H    0.053169
   101  H    0.020528
   102  H    0.023141
   103  H    0.024410
   104  H   -0.009746
   105  H    0.015871
   106  H    0.018010
   107  H   -0.000987
   108  H    0.013773
   109  H   -0.011163
   110  H    0.016547
   111  H    0.002617
   112  H    0.008762
   113  H    0.001737
   114  H    0.003229
   115  H    0.003237
   116  H    0.000207
   117  H    0.018772
   118  H   -0.010592
   119  H   -0.011090
   120  H    0.007454
   121  H    0.002497
   122  H   -0.007416
   123  H   -0.012388
   124  H   -0.011675
   125  H   -0.002454
   126  H    0.009833
   127  H   -0.012607
   128  H   -0.015229
   129  H   -0.010919
   130  H    0.006706
   131  H    0.009998
   132  H   -0.008869
   133  H   -0.007701
   134  H   -0.002054
   135  H    0.019661
   136  H    0.010867
   137  H    0.012009
   138  H    0.004702
   139  H    0.012795
   140  H    0.014712
 Sum of Mulliken charges =  -0.00000

 Dipole moment (field-independent basis, Debye):
    X=             -5.3274    Y=              2.6475    Z=              3.2441  Tot=              6.7761
 Quadrupole moment (field-independent basis, Debye-Ang):
   XX=           -377.8427   YY=           -424.4796   ZZ=           -408.9082
   XY=             21.3762   XZ=             16.9503   YZ=             -8.8240

 Normal termination of Gaussian 16 at Wed May  4 00:11:32 2022.
