 Gaussian 16, Revision A.03,
 Gaussian 16:  ES64L-G16RevA.03 25-Dec-2016

 ---------------------------------
 #p PBE1PBE/Def2SVP td=(nstates=5)
 ---------------------------------

 ------------------------------------------------------
 step_1151_chromophore_24 TDDFT with PBE1PBE functional
 ------------------------------------------------------
 Symbolic Z-matrix:
 Charge =  0 Multiplicity = 1

                         Standard orientation:
 ---------------------------------------------------------------------
 Center     Atomic      Atomic             Coordinates (Angstroms)
 Number     Number       Type             X           Y           Z
 ---------------------------------------------------------------------
      1         12           0        5.121461    1.029743    0.197572
      2          6           0        4.184223   -2.291913   -0.088667
      3          6           0        1.890533    1.817384   -0.625454
      4          6           0        6.243173    4.245703   -0.035836
      5          6           0        8.414014   -0.061263    0.283535
      6          7           0        3.154795   -0.128140   -0.085582
      7          6           0        2.989137   -1.466651   -0.093000
      8          6           0        1.519364   -1.892164    0.103096
      9          6           0        0.806631   -0.560207   -0.228034
     10          6           0        1.975640    0.478984   -0.321862
     11          6           0       -0.187776   -0.583171   -1.457013
     12          6           0        1.133256   -2.518548    1.472270
     13          6           0        0.166466   -3.689452    1.403267
     14          6           0       -0.495102   -4.045371   -0.002768
     15          8           0       -0.031633   -4.629824   -0.947359
     16          8           0       -1.741657   -3.436745   -0.047409
     17          7           0        4.241507    2.762833   -0.269661
     18          6           0        2.891366    2.878227   -0.527454
     19          6           0        2.586841    4.348409   -0.749636
     20          6           0        3.764607    5.042214   -0.454083
     21          6           0        4.855262    4.030241   -0.180591
     22          6           0        1.190283    4.765208   -1.055266
     23          6           0        4.061137    6.561178   -0.389960
     24          8           0        5.205633    7.059607   -0.152088
     25          6           0        2.867716    7.528726   -0.632929
     26          7           0        6.984957    1.919605    0.161513
     27          6           0        7.289608    3.264317    0.228992
     28          6           0        8.787245    3.626153    0.164845
     29          6           0        9.451863    2.197508    0.524516
     30          6           0        8.204744    1.267789    0.284014
     31          6           0        9.278236    4.294860   -1.151857
     32          6           0        9.916585    2.100518    1.969973
     33          6           0       10.886754    3.157505    2.581703
     34          7           0        6.140099   -0.774386    0.251211
     35          6           0        7.464846   -1.100722    0.183975
     36          6           0        7.650402   -2.523503    0.145955
     37          6           0        6.378252   -3.004978   -0.082062
     38          6           0        5.511760   -1.917238    0.032719
     39          6           0        9.020877   -3.184596    0.167105
     40          6           0        5.644102   -4.185269   -0.325744
     41          8           0        6.022871   -5.375815   -0.506943
     42          6           0        4.138111   -3.788458   -0.118018
     43          6           0        3.331739   -4.563207   -1.178424
     44          8           0        3.194796   -4.220793   -2.375795
     45          8           0        2.847072   -5.731485   -0.726892
     46          6           0        2.604956   -6.802667   -1.777044
     47          6           0       -2.688910   -3.705084   -1.111035
     48          6           0       -3.987113   -2.959385   -0.749922
     49          6           0       -5.234726   -3.394723   -0.598877
     50          6           0       -5.699652   -4.748463   -0.913572
     51          6           0       -6.457925   -2.413926   -0.356623
     52          6           0       -7.212964   -2.705711    0.955915
     53          6           0       -7.300322   -1.460106    1.832168
     54          6           0       -8.525598   -1.549677    2.836057
     55          6           0       -8.142173   -2.337732    4.208745
     56          6           0       -9.128553   -0.139713    3.133106
     57          6           0      -10.248534    0.278026    2.077660
     58          6           0      -10.058199    1.738658    1.664152
     59          6           0      -10.436957    1.926038    0.201549
     60          6           0       -9.235876    1.668347   -0.701775
     61          6           0      -11.033340    3.312152    0.023868
     62          6           0      -12.652776    3.403976   -0.000636
     63          6           0      -13.205182    3.164000   -1.444281
     64          6           0      -14.554706    2.330085   -1.444981
     65          6           0      -14.880077    1.760448   -2.849571
     66          6           0      -15.761453    3.238807   -0.864431
     67          1           0        0.836951    2.104441   -0.592411
     68          1           0        6.660420    5.254343   -0.079652
     69          1           0        9.475922   -0.296260    0.382209
     70          1           0        1.457132   -2.652587   -0.676323
     71          1           0        0.191072   -0.254034    0.618070
     72          1           0       -0.089980    0.327298   -2.048803
     73          1           0       -1.208343   -0.743786   -1.108960
     74          1           0        0.107920   -1.363749   -2.158057
     75          1           0        0.546969   -1.747876    1.971898
     76          1           0        1.967879   -2.814185    2.107953
     77          1           0       -0.585694   -3.478415    2.163453
     78          1           0        0.762011   -4.573355    1.633125
     79          1           0        1.257027    5.600575   -1.752437
     80          1           0        0.785489    5.127688   -0.110914
     81          1           0        0.459847    4.092563   -1.503586
     82          1           0        2.449151    7.454983   -1.636931
     83          1           0        3.206224    8.561330   -0.544386
     84          1           0        2.145327    7.383998    0.169708
     85          1           0        8.975694    4.278176    1.017919
     86          1           0       10.274172    1.940859   -0.144151
     87          1           0        9.108077    5.362817   -1.017317
     88          1           0        8.580925    3.937350   -1.909483
     89          1           0       10.292331    3.980611   -1.398150
     90          1           0       10.300332    1.089501    2.105720
     91          1           0        9.028416    2.144172    2.600490
     92          1           0       10.404185    3.756438    3.355065
     93          1           0       11.242608    3.878228    1.845527
     94          1           0       11.756690    2.664786    3.016601
     95          1           0        9.807669   -2.500050   -0.150618
     96          1           0        8.947664   -4.025242   -0.523808
     97          1           0        9.303019   -3.512712    1.167301
     98          1           0        3.637776   -4.123727    0.790786
     99          1           0        3.533837   -6.888097   -2.340858
    100          1           0        1.706978   -6.739432   -2.390319
    101          1           0        2.532992   -7.783380   -1.307350
    102          1           0       -2.680474   -4.787687   -1.234446
    103          1           0       -2.287985   -3.299267   -2.039951
    104          1           0       -3.923158   -1.876173   -0.642488
    105          1           0       -6.503550   -4.786673   -1.647234
    106          1           0       -6.119930   -5.328131   -0.091500
    107          1           0       -4.860848   -5.329602   -1.298823
    108          1           0       -7.110689   -2.517883   -1.224068
    109          1           0       -6.039047   -1.407317   -0.356950
    110          1           0       -6.638790   -3.536999    1.365976
    111          1           0       -8.118818   -3.063545    0.468005
    112          1           0       -7.321314   -0.519031    1.283536
    113          1           0       -6.357239   -1.472557    2.378357
    114          1           0       -9.316175   -2.187363    2.439293
    115          1           0       -8.418350   -1.769884    5.097133
    116          1           0       -7.053709   -2.386585    4.246957
    117          1           0       -8.615455   -3.318063    4.266262
    118          1           0       -8.256641    0.514018    3.173588
    119          1           0       -9.494563   -0.038084    4.154723
    120          1           0      -11.262858    0.137216    2.451997
    121          1           0      -10.114637   -0.410707    1.243759
    122          1           0       -9.068957    2.127849    1.903183
    123          1           0      -10.696539    2.367570    2.283791
    124          1           0      -11.226071    1.255365   -0.136771
    125          1           0       -8.771670    2.621440   -0.953173
    126          1           0       -9.449680    1.115359   -1.617132
    127          1           0       -8.416741    1.129949   -0.225530
    128          1           0      -10.555372    3.663307   -0.891289
    129          1           0      -10.718442    3.961144    0.841130
    130          1           0      -12.815963    4.466155    0.181800
    131          1           0      -13.134649    2.669339    0.644349
    132          1           0      -12.440884    2.744379   -2.098354
    133          1           0      -13.468980    4.115559   -1.905941
    134          1           0      -14.481436    1.486537   -0.758156
    135          1           0      -15.190212    2.560360   -3.521457
    136          1           0      -15.676388    1.067835   -2.577536
    137          1           0      -13.996948    1.215149   -3.183211
    138          1           0      -16.257646    2.650516   -0.093355
    139          1           0      -16.458084    3.458535   -1.673797
    140          1           0      -15.454375    4.139461   -0.331989
 ---------------------------------------------------------------------

 SCF Done:  E(RPBE1PBE) =  -3005.34451972     A.U. after   15 cycles

 Excitation energies and oscillator strengths:

 Excited State   1:      Singlet-A      1.8387 eV  674.29 nm  f=0.3879  <S**2>=0.000
     245 -> 248        0.16320
     246 -> 247        0.69271
     246 <- 247       -0.11096
 This state for optimization and/or second-order correction.
 Total Energy, E(TD-HF/TD-DFT) =  -3005.27694723
 Copying the excited state density for this state as the 1-particle RhoCI density.

 Excited State   2:      Singlet-A      2.2409 eV  553.27 nm  f=0.0804  <S**2>=0.000
     245 -> 247        0.64150
     246 -> 248       -0.27711

 Excited State   3:      Singlet-A      2.9278 eV  423.47 nm  f=0.0002  <S**2>=0.000
     243 -> 247        0.12154
     244 -> 247        0.64923
     244 -> 249        0.17811
     244 -> 250        0.12121

 Excited State   4:      Singlet-A      3.1582 eV  392.58 nm  f=0.2071  <S**2>=0.000
     242 -> 247        0.11408
     243 -> 247        0.23550
     245 -> 247        0.18747
     246 -> 248        0.54710
     246 -> 249        0.25856

 Excited State   5:      Singlet-A      3.1731 eV  390.73 nm  f=0.0015  <S**2>=0.000
     240 -> 247        0.10741
     242 -> 247        0.59281
     242 -> 248       -0.14672
     242 -> 249       -0.16835
     242 -> 250        0.10429
     243 -> 247       -0.20561

 The electronic state is 1-A.
 Alpha  occ. eigenvalues --  -46.91320 -19.24984 -19.24485 -19.21160 -19.19640
 Alpha  occ. eigenvalues --  -19.18456 -19.17475 -14.41518 -14.41140 -14.39803
 Alpha  occ. eigenvalues --  -14.38672 -10.37243 -10.34889 -10.33415 -10.31520
 Alpha  occ. eigenvalues --  -10.30121 -10.28955 -10.28925 -10.28790 -10.28699
 Alpha  occ. eigenvalues --  -10.28188 -10.27971 -10.27512 -10.26915 -10.26627
 Alpha  occ. eigenvalues --  -10.26291 -10.25912 -10.25792 -10.25761 -10.25679
 Alpha  occ. eigenvalues --  -10.25596 -10.25547 -10.25482 -10.25405 -10.25163
 Alpha  occ. eigenvalues --  -10.25129 -10.25070 -10.24665 -10.24540 -10.24162
 Alpha  occ. eigenvalues --  -10.24156 -10.24035 -10.24012 -10.23837 -10.23745
 Alpha  occ. eigenvalues --  -10.23640 -10.23568 -10.23485 -10.23477 -10.23308
 Alpha  occ. eigenvalues --  -10.23156 -10.23152 -10.23149 -10.23116 -10.23115
 Alpha  occ. eigenvalues --  -10.22788 -10.22726 -10.22574 -10.22290 -10.22278
 Alpha  occ. eigenvalues --  -10.22268 -10.22261 -10.22189 -10.22156 -10.22022
 Alpha  occ. eigenvalues --  -10.21979  -3.13639  -1.86469  -1.86006  -1.85889
 Alpha  occ. eigenvalues --   -1.11312  -1.08866  -1.03507  -1.02317  -1.01797
 Alpha  occ. eigenvalues --   -0.99742  -0.98672  -0.98533  -0.97012  -0.95751
 Alpha  occ. eigenvalues --   -0.87202  -0.85017  -0.84302  -0.84157  -0.82877
 Alpha  occ. eigenvalues --   -0.82112  -0.82066  -0.81532  -0.81316  -0.81200
 Alpha  occ. eigenvalues --   -0.80568  -0.79571  -0.78543  -0.77466  -0.77056
 Alpha  occ. eigenvalues --   -0.76286  -0.75559  -0.75275  -0.74858  -0.74009
 Alpha  occ. eigenvalues --   -0.73622  -0.72414  -0.72015  -0.71465  -0.70163
 Alpha  occ. eigenvalues --   -0.69888  -0.69411  -0.69309  -0.69140  -0.68455
 Alpha  occ. eigenvalues --   -0.67874  -0.67083  -0.65632  -0.64800  -0.63650
 Alpha  occ. eigenvalues --   -0.63251  -0.62526  -0.61425  -0.60796  -0.60276
 Alpha  occ. eigenvalues --   -0.59875  -0.59483  -0.58683  -0.58313  -0.58155
 Alpha  occ. eigenvalues --   -0.57777  -0.57041  -0.56850  -0.55507  -0.54959
 Alpha  occ. eigenvalues --   -0.54123  -0.54075  -0.53363  -0.52971  -0.52159
 Alpha  occ. eigenvalues --   -0.51149  -0.50757  -0.50526  -0.50223  -0.49638
 Alpha  occ. eigenvalues --   -0.49555  -0.49069  -0.48910  -0.48404  -0.48252
 Alpha  occ. eigenvalues --   -0.47773  -0.47670  -0.47385  -0.47244  -0.47114
 Alpha  occ. eigenvalues --   -0.46631  -0.46438  -0.46222  -0.46190  -0.45976
 Alpha  occ. eigenvalues --   -0.45908  -0.45723  -0.45311  -0.45231  -0.45062
 Alpha  occ. eigenvalues --   -0.44816  -0.44693  -0.44431  -0.44330  -0.43986
 Alpha  occ. eigenvalues --   -0.43964  -0.43680  -0.43568  -0.43195  -0.42835
 Alpha  occ. eigenvalues --   -0.42812  -0.42489  -0.42273  -0.42126  -0.42058
 Alpha  occ. eigenvalues --   -0.41890  -0.41731  -0.41496  -0.41390  -0.41299
 Alpha  occ. eigenvalues --   -0.41073  -0.40810  -0.40713  -0.40508  -0.40431
 Alpha  occ. eigenvalues --   -0.40250  -0.39968  -0.39795  -0.39671  -0.39304
 Alpha  occ. eigenvalues --   -0.39184  -0.39081  -0.38794  -0.38724  -0.38601
 Alpha  occ. eigenvalues --   -0.38521  -0.38285  -0.38192  -0.37833  -0.37754
 Alpha  occ. eigenvalues --   -0.37487  -0.37237  -0.37173  -0.36871  -0.36704
 Alpha  occ. eigenvalues --   -0.36603  -0.36506  -0.36373  -0.36176  -0.35943
 Alpha  occ. eigenvalues --   -0.35436  -0.35251  -0.35122  -0.34924  -0.34691
 Alpha  occ. eigenvalues --   -0.34598  -0.34416  -0.34135  -0.34038  -0.33795
 Alpha  occ. eigenvalues --   -0.33429  -0.33117  -0.32888  -0.32705  -0.32601
 Alpha  occ. eigenvalues --   -0.32012  -0.31912  -0.31702  -0.31393  -0.31324
 Alpha  occ. eigenvalues --   -0.30893  -0.30229  -0.30060  -0.29867  -0.29268
 Alpha  occ. eigenvalues --   -0.28579  -0.28414  -0.27086  -0.26504  -0.26306
 Alpha  occ. eigenvalues --   -0.26150  -0.25819  -0.25587  -0.24965  -0.20777
 Alpha  occ. eigenvalues --   -0.18269
 Alpha virt. eigenvalues --   -0.10753  -0.05281  -0.04099  -0.02533  -0.00174
 Alpha virt. eigenvalues --   -0.00069   0.00688   0.01306   0.01828   0.02899
 Alpha virt. eigenvalues --    0.04215   0.04565   0.05271   0.05395   0.05979

 Mulliken charges:
               1
     1  Mg   1.000539
     2  C   -0.021214
     3  C   -0.061629
     4  C   -0.063067
     5  C   -0.091405
     6  N   -0.354378
     7  C    0.017570
     8  C   -0.095926
     9  C   -0.118837
    10  C    0.058982
    11  C   -0.002015
    12  C    0.039852
    13  C   -0.009172
    14  C    0.209230
    15  O   -0.230641
    16  O   -0.388119
    17  N   -0.548014
    18  C    0.172177
    19  C   -0.182455
    20  C   -0.088481
    21  C    0.192223
    22  C    0.048010
    23  C    0.091040
    24  O   -0.272515
    25  C   -0.045882
    26  N   -0.418742
    27  C    0.052940
    28  C   -0.112449
    29  C   -0.125034
    30  C    0.084677
    31  C    0.031772
    32  C   -0.031081
    33  C   -0.060473
    34  N   -0.451718
    35  C    0.148530
    36  C   -0.181404
    37  C   -0.001860
    38  C    0.164708
    39  C    0.070145
    40  C    0.154445
    41  O   -0.262414
    42  C   -0.152324
    43  C    0.276685
    44  O   -0.299811
    45  O   -0.354400
    46  C    0.138780
    47  C    0.248183
    48  C   -0.095776
    49  C   -0.226511
    50  C    0.026008
    51  C   -0.023279
    52  C   -0.036741
    53  C   -0.007150
    54  C   -0.228919
    55  C   -0.028659
    56  C   -0.011609
    57  C   -0.030245
    58  C    0.001370
    59  C   -0.218537
    60  C    0.003676
    61  C   -0.017623
    62  C   -0.028944
    63  C   -0.028752
    64  C   -0.267093
    65  C   -0.011419
    66  C   -0.042889
    67  H    0.016584
    68  H    0.033095
    69  H   -0.004135
    70  H    0.090225
    71  H    0.047698
    72  H    0.037205
    73  H    0.053770
    74  H    0.057988
    75  H    0.034716
    76  H    0.055356
    77  H    0.059266
    78  H    0.065531
    79  H    0.043199
    80  H    0.062577
    81  H    0.056210
    82  H    0.072221
    83  H    0.049976
    84  H    0.062990
    85  H    0.046005
    86  H    0.036609
    87  H    0.060925
    88  H    0.053107
    89  H    0.052543
    90  H    0.035871
    91  H    0.036606
    92  H    0.047312
    93  H    0.040337
    94  H    0.046328
    95  H    0.039326
    96  H    0.068186
    97  H    0.056595
    98  H    0.074550
    99  H    0.066273
   100  H    0.074075
   101  H    0.042730
   102  H    0.047581
   103  H    0.051209
   104  H    0.019517
   105  H    0.042866
   106  H    0.044723
   107  H    0.028122
   108  H    0.046349
   109  H    0.020733
   110  H    0.050006
   111  H    0.034259
   112  H    0.044431
   113  H    0.035138
   114  H    0.041234
   115  H    0.030127
   116  H    0.027515
   117  H    0.045210
   118  H    0.021323
   119  H    0.021371
   120  H    0.039719
   121  H    0.036042
   122  H    0.023884
   123  H    0.021697
   124  H    0.027576
   125  H    0.024922
   126  H    0.037007
   127  H    0.019830
   128  H    0.017019
   129  H    0.021689
   130  H    0.039782
   131  H    0.041242
   132  H    0.022689
   133  H    0.025809
   134  H    0.035077
   135  H    0.046708
   136  H    0.039831
   137  H    0.040381
   138  H    0.032309
   139  H    0.039888
   140  H    0.041401
 Sum of Mulliken charges =  -0.00000

 Dipole moment (field-independent basis, Debye):
    X=             -5.1730    Y=              2.2469    Z=              3.3189  Tot=              6.5440
 Quadrupole moment (field-independent basis, Debye-Ang):
   XX=           -370.2879   YY=           -422.5692   ZZ=           -406.5030
   XY=             20.2611   XZ=             17.6849   YZ=             -8.3741

 Normal termination of Gaussian 16 at Wed May  4 00:30:32 2022.
