 Gaussian 16, Revision A.03,
 Gaussian 16:  ES64L-G16RevA.03 25-Dec-2016

 --------------------------------
 #p wB97XD/Def2SVP td=(nstates=5)
 --------------------------------

 -----------------------------------------------------
 step_1151_chromophore_24 TDDFT with wB97XD functional
 -----------------------------------------------------
 Symbolic Z-matrix:
 Charge =  0 Multiplicity = 1

                         Standard orientation:
 ---------------------------------------------------------------------
 Center     Atomic      Atomic             Coordinates (Angstroms)
 Number     Number       Type             X           Y           Z
 ---------------------------------------------------------------------
      1         12           0        5.121461    1.029743    0.197572
      2          6           0        4.184223   -2.291913   -0.088667
      3          6           0        1.890533    1.817384   -0.625454
      4          6           0        6.243173    4.245703   -0.035836
      5          6           0        8.414014   -0.061263    0.283535
      6          7           0        3.154795   -0.128140   -0.085582
      7          6           0        2.989137   -1.466651   -0.093000
      8          6           0        1.519364   -1.892164    0.103096
      9          6           0        0.806631   -0.560207   -0.228034
     10          6           0        1.975640    0.478984   -0.321862
     11          6           0       -0.187776   -0.583171   -1.457013
     12          6           0        1.133256   -2.518548    1.472270
     13          6           0        0.166466   -3.689452    1.403267
     14          6           0       -0.495102   -4.045371   -0.002768
     15          8           0       -0.031633   -4.629824   -0.947359
     16          8           0       -1.741657   -3.436745   -0.047409
     17          7           0        4.241507    2.762833   -0.269661
     18          6           0        2.891366    2.878227   -0.527454
     19          6           0        2.586841    4.348409   -0.749636
     20          6           0        3.764607    5.042214   -0.454083
     21          6           0        4.855262    4.030241   -0.180591
     22          6           0        1.190283    4.765208   -1.055266
     23          6           0        4.061137    6.561178   -0.389960
     24          8           0        5.205633    7.059607   -0.152088
     25          6           0        2.867716    7.528726   -0.632929
     26          7           0        6.984957    1.919605    0.161513
     27          6           0        7.289608    3.264317    0.228992
     28          6           0        8.787245    3.626153    0.164845
     29          6           0        9.451863    2.197508    0.524516
     30          6           0        8.204744    1.267789    0.284014
     31          6           0        9.278236    4.294860   -1.151857
     32          6           0        9.916585    2.100518    1.969973
     33          6           0       10.886754    3.157505    2.581703
     34          7           0        6.140099   -0.774386    0.251211
     35          6           0        7.464846   -1.100722    0.183975
     36          6           0        7.650402   -2.523503    0.145955
     37          6           0        6.378252   -3.004978   -0.082062
     38          6           0        5.511760   -1.917238    0.032719
     39          6           0        9.020877   -3.184596    0.167105
     40          6           0        5.644102   -4.185269   -0.325744
     41          8           0        6.022871   -5.375815   -0.506943
     42          6           0        4.138111   -3.788458   -0.118018
     43          6           0        3.331739   -4.563207   -1.178424
     44          8           0        3.194796   -4.220793   -2.375795
     45          8           0        2.847072   -5.731485   -0.726892
     46          6           0        2.604956   -6.802667   -1.777044
     47          6           0       -2.688910   -3.705084   -1.111035
     48          6           0       -3.987113   -2.959385   -0.749922
     49          6           0       -5.234726   -3.394723   -0.598877
     50          6           0       -5.699652   -4.748463   -0.913572
     51          6           0       -6.457925   -2.413926   -0.356623
     52          6           0       -7.212964   -2.705711    0.955915
     53          6           0       -7.300322   -1.460106    1.832168
     54          6           0       -8.525598   -1.549677    2.836057
     55          6           0       -8.142173   -2.337732    4.208745
     56          6           0       -9.128553   -0.139713    3.133106
     57          6           0      -10.248534    0.278026    2.077660
     58          6           0      -10.058199    1.738658    1.664152
     59          6           0      -10.436957    1.926038    0.201549
     60          6           0       -9.235876    1.668347   -0.701775
     61          6           0      -11.033340    3.312152    0.023868
     62          6           0      -12.652776    3.403976   -0.000636
     63          6           0      -13.205182    3.164000   -1.444281
     64          6           0      -14.554706    2.330085   -1.444981
     65          6           0      -14.880077    1.760448   -2.849571
     66          6           0      -15.761453    3.238807   -0.864431
     67          1           0        0.836951    2.104441   -0.592411
     68          1           0        6.660420    5.254343   -0.079652
     69          1           0        9.475922   -0.296260    0.382209
     70          1           0        1.457132   -2.652587   -0.676323
     71          1           0        0.191072   -0.254034    0.618070
     72          1           0       -0.089980    0.327298   -2.048803
     73          1           0       -1.208343   -0.743786   -1.108960
     74          1           0        0.107920   -1.363749   -2.158057
     75          1           0        0.546969   -1.747876    1.971898
     76          1           0        1.967879   -2.814185    2.107953
     77          1           0       -0.585694   -3.478415    2.163453
     78          1           0        0.762011   -4.573355    1.633125
     79          1           0        1.257027    5.600575   -1.752437
     80          1           0        0.785489    5.127688   -0.110914
     81          1           0        0.459847    4.092563   -1.503586
     82          1           0        2.449151    7.454983   -1.636931
     83          1           0        3.206224    8.561330   -0.544386
     84          1           0        2.145327    7.383998    0.169708
     85          1           0        8.975694    4.278176    1.017919
     86          1           0       10.274172    1.940859   -0.144151
     87          1           0        9.108077    5.362817   -1.017317
     88          1           0        8.580925    3.937350   -1.909483
     89          1           0       10.292331    3.980611   -1.398150
     90          1           0       10.300332    1.089501    2.105720
     91          1           0        9.028416    2.144172    2.600490
     92          1           0       10.404185    3.756438    3.355065
     93          1           0       11.242608    3.878228    1.845527
     94          1           0       11.756690    2.664786    3.016601
     95          1           0        9.807669   -2.500050   -0.150618
     96          1           0        8.947664   -4.025242   -0.523808
     97          1           0        9.303019   -3.512712    1.167301
     98          1           0        3.637776   -4.123727    0.790786
     99          1           0        3.533837   -6.888097   -2.340858
    100          1           0        1.706978   -6.739432   -2.390319
    101          1           0        2.532992   -7.783380   -1.307350
    102          1           0       -2.680474   -4.787687   -1.234446
    103          1           0       -2.287985   -3.299267   -2.039951
    104          1           0       -3.923158   -1.876173   -0.642488
    105          1           0       -6.503550   -4.786673   -1.647234
    106          1           0       -6.119930   -5.328131   -0.091500
    107          1           0       -4.860848   -5.329602   -1.298823
    108          1           0       -7.110689   -2.517883   -1.224068
    109          1           0       -6.039047   -1.407317   -0.356950
    110          1           0       -6.638790   -3.536999    1.365976
    111          1           0       -8.118818   -3.063545    0.468005
    112          1           0       -7.321314   -0.519031    1.283536
    113          1           0       -6.357239   -1.472557    2.378357
    114          1           0       -9.316175   -2.187363    2.439293
    115          1           0       -8.418350   -1.769884    5.097133
    116          1           0       -7.053709   -2.386585    4.246957
    117          1           0       -8.615455   -3.318063    4.266262
    118          1           0       -8.256641    0.514018    3.173588
    119          1           0       -9.494563   -0.038084    4.154723
    120          1           0      -11.262858    0.137216    2.451997
    121          1           0      -10.114637   -0.410707    1.243759
    122          1           0       -9.068957    2.127849    1.903183
    123          1           0      -10.696539    2.367570    2.283791
    124          1           0      -11.226071    1.255365   -0.136771
    125          1           0       -8.771670    2.621440   -0.953173
    126          1           0       -9.449680    1.115359   -1.617132
    127          1           0       -8.416741    1.129949   -0.225530
    128          1           0      -10.555372    3.663307   -0.891289
    129          1           0      -10.718442    3.961144    0.841130
    130          1           0      -12.815963    4.466155    0.181800
    131          1           0      -13.134649    2.669339    0.644349
    132          1           0      -12.440884    2.744379   -2.098354
    133          1           0      -13.468980    4.115559   -1.905941
    134          1           0      -14.481436    1.486537   -0.758156
    135          1           0      -15.190212    2.560360   -3.521457
    136          1           0      -15.676388    1.067835   -2.577536
    137          1           0      -13.996948    1.215149   -3.183211
    138          1           0      -16.257646    2.650516   -0.093355
    139          1           0      -16.458084    3.458535   -1.673797
    140          1           0      -15.454375    4.139461   -0.331989
 ---------------------------------------------------------------------

 SCF Done:  E(RwB97XD) =  -3007.85660017     A.U. after   18 cycles

 Excitation energies and oscillator strengths:

 Excited State   1:      Singlet-A      1.6351 eV  758.27 nm  f=0.3929  <S**2>=0.000
     245 -> 248       -0.18019
     246 -> 247        0.68271
     245 <- 248       -0.11413
 This state for optimization and/or second-order correction.
 Total Energy, E(TD-HF/TD-DFT) =  -3007.79651170
 Copying the excited state density for this state as the 1-particle RhoCI density.

 Excited State   2:      Singlet-A      2.2014 eV  563.21 nm  f=0.0780  <S**2>=0.000
     245 -> 247        0.62413
     246 -> 248        0.31474

 Excited State   3:      Singlet-A      3.4275 eV  361.73 nm  f=0.0567  <S**2>=0.000
     243 -> 247        0.25377
     243 -> 249       -0.17212
     243 -> 250       -0.16524
     244 -> 247        0.43393
     244 -> 249       -0.24880
     244 -> 250       -0.21370
     246 -> 248        0.18202

 Excited State   4:      Singlet-A      3.4625 eV  358.07 nm  f=0.6625  <S**2>=0.000
     243 -> 247       -0.13767
     245 -> 247       -0.29225
     246 -> 248        0.58745
     245 <- 247        0.10727

 Excited State   5:      Singlet-A      3.5909 eV  345.27 nm  f=0.0032  <S**2>=0.000
     239 -> 247        0.31179
     239 -> 248        0.15949
     239 -> 249        0.27647
     239 -> 250       -0.16758
     241 -> 247        0.32658
     241 -> 248        0.13304
     241 -> 249        0.23328
     241 -> 250       -0.13783

 The electronic state is 1-A.
 Alpha  occ. eigenvalues --  -46.94250 -19.29477 -19.28949 -19.25767 -19.24642
 Alpha  occ. eigenvalues --  -19.23108 -19.22079 -14.46629 -14.46203 -14.44833
 Alpha  occ. eigenvalues --  -14.43522 -10.43958 -10.41614 -10.40439 -10.38265
 Alpha  occ. eigenvalues --  -10.36613 -10.35493 -10.35415 -10.35276 -10.34893
 Alpha  occ. eigenvalues --  -10.34605 -10.34424 -10.33676 -10.33611 -10.32648
 Alpha  occ. eigenvalues --  -10.32543 -10.32363 -10.32104 -10.31942 -10.31929
 Alpha  occ. eigenvalues --  -10.31903 -10.31777 -10.31764 -10.31729 -10.31398
 Alpha  occ. eigenvalues --  -10.31392 -10.31340 -10.31233 -10.31130 -10.30618
 Alpha  occ. eigenvalues --  -10.30496 -10.30422 -10.30409 -10.30282 -10.30112
 Alpha  occ. eigenvalues --  -10.29990 -10.29945 -10.29906 -10.29883 -10.29613
 Alpha  occ. eigenvalues --  -10.29594 -10.29534 -10.29529 -10.29486 -10.29430
 Alpha  occ. eigenvalues --  -10.29180 -10.29021 -10.28937 -10.28687 -10.28683
 Alpha  occ. eigenvalues --  -10.28659 -10.28639 -10.28589 -10.28422 -10.28407
 Alpha  occ. eigenvalues --  -10.28295  -3.20409  -1.93992  -1.93532  -1.93407
 Alpha  occ. eigenvalues --   -1.18623  -1.16166  -1.10781  -1.10020  -1.09155
 Alpha  occ. eigenvalues --   -1.06939  -1.05958  -1.05856  -1.04458  -1.03288
 Alpha  occ. eigenvalues --   -0.94684  -0.92679  -0.91918  -0.91796  -0.90468
 Alpha  occ. eigenvalues --   -0.89792  -0.89756  -0.89214  -0.88938  -0.88885
 Alpha  occ. eigenvalues --   -0.88123  -0.87196  -0.86203  -0.85048  -0.84718
 Alpha  occ. eigenvalues --   -0.83952  -0.83342  -0.82970  -0.82527  -0.81687
 Alpha  occ. eigenvalues --   -0.81236  -0.80178  -0.79636  -0.79046  -0.77798
 Alpha  occ. eigenvalues --   -0.77459  -0.77121  -0.76885  -0.76843  -0.76087
 Alpha  occ. eigenvalues --   -0.75531  -0.74596  -0.73179  -0.72382  -0.71200
 Alpha  occ. eigenvalues --   -0.70684  -0.70177  -0.69062  -0.68443  -0.67831
 Alpha  occ. eigenvalues --   -0.67528  -0.66944  -0.66177  -0.65993  -0.65566
 Alpha  occ. eigenvalues --   -0.65190  -0.64700  -0.64506  -0.62851  -0.62438
 Alpha  occ. eigenvalues --   -0.61636  -0.61467  -0.60756  -0.60265  -0.59541
 Alpha  occ. eigenvalues --   -0.58564  -0.58259  -0.57933  -0.57671  -0.57024
 Alpha  occ. eigenvalues --   -0.56912  -0.56428  -0.56331  -0.55854  -0.55639
 Alpha  occ. eigenvalues --   -0.55217  -0.55009  -0.54815  -0.54529  -0.54507
 Alpha  occ. eigenvalues --   -0.54343  -0.53737  -0.53574  -0.53530  -0.53349
 Alpha  occ. eigenvalues --   -0.53230  -0.53073  -0.52685  -0.52539  -0.52431
 Alpha  occ. eigenvalues --   -0.52209  -0.52011  -0.51819  -0.51661  -0.51351
 Alpha  occ. eigenvalues --   -0.51323  -0.50943  -0.50888  -0.50422  -0.50180
 Alpha  occ. eigenvalues --   -0.50055  -0.49760  -0.49594  -0.49435  -0.49354
 Alpha  occ. eigenvalues --   -0.49140  -0.48977  -0.48783  -0.48652  -0.48563
 Alpha  occ. eigenvalues --   -0.48404  -0.48073  -0.47958  -0.47700  -0.47613
 Alpha  occ. eigenvalues --   -0.47351  -0.47236  -0.46916  -0.46779  -0.46424
 Alpha  occ. eigenvalues --   -0.46358  -0.46212  -0.45982  -0.45828  -0.45717
 Alpha  occ. eigenvalues --   -0.45632  -0.45391  -0.45277  -0.44978  -0.44832
 Alpha  occ. eigenvalues --   -0.44576  -0.44408  -0.44250  -0.43967  -0.43881
 Alpha  occ. eigenvalues --   -0.43750  -0.43646  -0.43435  -0.43320  -0.42985
 Alpha  occ. eigenvalues --   -0.42572  -0.42271  -0.42186  -0.41934  -0.41669
 Alpha  occ. eigenvalues --   -0.41645  -0.41473  -0.41128  -0.41121  -0.40785
 Alpha  occ. eigenvalues --   -0.40497  -0.40043  -0.39967  -0.39768  -0.39541
 Alpha  occ. eigenvalues --   -0.39040  -0.38767  -0.38741  -0.38361  -0.38317
 Alpha  occ. eigenvalues --   -0.37768  -0.37128  -0.37066  -0.36672  -0.36238
 Alpha  occ. eigenvalues --   -0.35426  -0.35089  -0.33906  -0.33333  -0.33204
 Alpha  occ. eigenvalues --   -0.32967  -0.32727  -0.32229  -0.31838  -0.25819
 Alpha  occ. eigenvalues --   -0.22397
 Alpha virt. eigenvalues --   -0.06558   0.00196   0.02097   0.03912   0.05842
 Alpha virt. eigenvalues --    0.06777   0.07406   0.07897   0.08724   0.09492
 Alpha virt. eigenvalues --    0.10525   0.11459   0.12009   0.12113   0.12677

 Mulliken charges:
               1
     1  Mg   0.987303
     2  C   -0.026845
     3  C   -0.079596
     4  C   -0.076745
     5  C   -0.105825
     6  N   -0.321578
     7  C   -0.024517
     8  C   -0.058617
     9  C   -0.092757
    10  C    0.045849
    11  C    0.011251
    12  C    0.046740
    13  C    0.006437
    14  C    0.194968
    15  O   -0.225295
    16  O   -0.385450
    17  N   -0.518470
    18  C    0.166063
    19  C   -0.166148
    20  C   -0.085267
    21  C    0.187866
    22  C    0.060712
    23  C    0.087502
    24  O   -0.265601
    25  C   -0.035440
    26  N   -0.389147
    27  C    0.040730
    28  C   -0.089576
    29  C   -0.096366
    30  C    0.072715
    31  C    0.043517
    32  C   -0.018204
    33  C   -0.046492
    34  N   -0.411484
    35  C    0.140386
    36  C   -0.185825
    37  C    0.004458
    38  C    0.153278
    39  C    0.081706
    40  C    0.135701
    41  O   -0.254066
    42  C   -0.109222
    43  C    0.249505
    44  O   -0.293119
    45  O   -0.351696
    46  C    0.154152
    47  C    0.255735
    48  C   -0.097082
    49  C   -0.213124
    50  C    0.035533
    51  C   -0.003718
    52  C   -0.021484
    53  C    0.015752
    54  C   -0.200545
    55  C   -0.015528
    56  C    0.002432
    57  C   -0.012473
    58  C    0.016534
    59  C   -0.188496
    60  C    0.017552
    61  C   -0.000489
    62  C   -0.010694
    63  C   -0.016039
    64  C   -0.237258
    65  C    0.002867
    66  C   -0.032904
    67  H    0.008512
    68  H    0.028388
    69  H   -0.011905
    70  H    0.065176
    71  H    0.036956
    72  H    0.030799
    73  H    0.046669
    74  H    0.053265
    75  H    0.025946
    76  H    0.049687
    77  H    0.055031
    78  H    0.059982
    79  H    0.036627
    80  H    0.058289
    81  H    0.054710
    82  H    0.068298
    83  H    0.049280
    84  H    0.058340
    85  H    0.034114
    86  H    0.028119
    87  H    0.055838
    88  H    0.045947
    89  H    0.048026
    90  H    0.027563
    91  H    0.026847
    92  H    0.041634
    93  H    0.032791
    94  H    0.041548
    95  H    0.032815
    96  H    0.063711
    97  H    0.051453
    98  H    0.063844
    99  H    0.062259
   100  H    0.071599
   101  H    0.038801
   102  H    0.043702
   103  H    0.047426
   104  H    0.015405
   105  H    0.037727
   106  H    0.039851
   107  H    0.020665
   108  H    0.038440
   109  H    0.010541
   110  H    0.039172
   111  H    0.026442
   112  H    0.027432
   113  H    0.025885
   114  H    0.027969
   115  H    0.023891
   116  H    0.020078
   117  H    0.040487
   118  H    0.010718
   119  H    0.013894
   120  H    0.033689
   121  H    0.022307
   122  H    0.014271
   123  H    0.012323
   124  H    0.013008
   125  H    0.018164
   126  H    0.032535
   127  H    0.009261
   128  H    0.006931
   129  H    0.013042
   130  H    0.032343
   131  H    0.031353
   132  H    0.012460
   133  H    0.016403
   134  H    0.022875
   135  H    0.040383
   136  H    0.033521
   137  H    0.034300
   138  H    0.026705
   139  H    0.034126
   140  H    0.035255
 Sum of Mulliken charges =  -0.00000

 Dipole moment (field-independent basis, Debye):
    X=             -5.4381    Y=              2.7706    Z=              3.2879  Tot=              6.9325
 Quadrupole moment (field-independent basis, Debye-Ang):
   XX=           -372.9921   YY=           -419.7280   ZZ=           -406.0832
   XY=             21.9049   XZ=             17.5238   YZ=             -8.9005

 Normal termination of Gaussian 16 at Wed May  4 01:02:56 2022.
