 Gaussian 16, Revision A.03,
 Gaussian 16:  ES64L-G16RevA.03 25-Dec-2016

 --------------------
 #p ZINDO=(nstates=5)
 --------------------

 ------------------------------
 step_1151_chromophore_24 ZINDO
 ------------------------------
 Symbolic Z-matrix:
 Charge =  0 Multiplicity = 1

                         Standard orientation:
 ---------------------------------------------------------------------
 Center     Atomic      Atomic             Coordinates (Angstroms)
 Number     Number       Type             X           Y           Z
 ---------------------------------------------------------------------
      1         12           0        5.121461    1.029743    0.197572
      2          6           0        4.184223   -2.291913   -0.088667
      3          6           0        1.890533    1.817384   -0.625454
      4          6           0        6.243173    4.245703   -0.035836
      5          6           0        8.414014   -0.061263    0.283535
      6          7           0        3.154795   -0.128140   -0.085582
      7          6           0        2.989137   -1.466651   -0.093000
      8          6           0        1.519364   -1.892164    0.103096
      9          6           0        0.806631   -0.560207   -0.228034
     10          6           0        1.975640    0.478984   -0.321862
     11          6           0       -0.187776   -0.583171   -1.457013
     12          6           0        1.133256   -2.518548    1.472270
     13          6           0        0.166466   -3.689452    1.403267
     14          6           0       -0.495102   -4.045371   -0.002768
     15          8           0       -0.031633   -4.629824   -0.947359
     16          8           0       -1.741657   -3.436745   -0.047409
     17          7           0        4.241507    2.762833   -0.269661
     18          6           0        2.891366    2.878227   -0.527454
     19          6           0        2.586841    4.348409   -0.749636
     20          6           0        3.764607    5.042214   -0.454083
     21          6           0        4.855262    4.030241   -0.180591
     22          6           0        1.190283    4.765208   -1.055266
     23          6           0        4.061137    6.561178   -0.389960
     24          8           0        5.205633    7.059607   -0.152088
     25          6           0        2.867716    7.528726   -0.632929
     26          7           0        6.984957    1.919605    0.161513
     27          6           0        7.289608    3.264317    0.228992
     28          6           0        8.787245    3.626153    0.164845
     29          6           0        9.451863    2.197508    0.524516
     30          6           0        8.204744    1.267789    0.284014
     31          6           0        9.278236    4.294860   -1.151857
     32          6           0        9.916585    2.100518    1.969973
     33          6           0       10.886754    3.157505    2.581703
     34          7           0        6.140099   -0.774386    0.251211
     35          6           0        7.464846   -1.100722    0.183975
     36          6           0        7.650402   -2.523503    0.145955
     37          6           0        6.378252   -3.004978   -0.082062
     38          6           0        5.511760   -1.917238    0.032719
     39          6           0        9.020877   -3.184596    0.167105
     40          6           0        5.644102   -4.185269   -0.325744
     41          8           0        6.022871   -5.375815   -0.506943
     42          6           0        4.138111   -3.788458   -0.118018
     43          6           0        3.331739   -4.563207   -1.178424
     44          8           0        3.194796   -4.220793   -2.375795
     45          8           0        2.847072   -5.731485   -0.726892
     46          6           0        2.604956   -6.802667   -1.777044
     47          6           0       -2.688910   -3.705084   -1.111035
     48          6           0       -3.987113   -2.959385   -0.749922
     49          6           0       -5.234726   -3.394723   -0.598877
     50          6           0       -5.699652   -4.748463   -0.913572
     51          6           0       -6.457925   -2.413926   -0.356623
     52          6           0       -7.212964   -2.705711    0.955915
     53          6           0       -7.300322   -1.460106    1.832168
     54          6           0       -8.525598   -1.549677    2.836057
     55          6           0       -8.142173   -2.337732    4.208745
     56          6           0       -9.128553   -0.139713    3.133106
     57          6           0      -10.248534    0.278026    2.077660
     58          6           0      -10.058199    1.738658    1.664152
     59          6           0      -10.436957    1.926038    0.201549
     60          6           0       -9.235876    1.668347   -0.701775
     61          6           0      -11.033340    3.312152    0.023868
     62          6           0      -12.652776    3.403976   -0.000636
     63          6           0      -13.205182    3.164000   -1.444281
     64          6           0      -14.554706    2.330085   -1.444981
     65          6           0      -14.880077    1.760448   -2.849571
     66          6           0      -15.761453    3.238807   -0.864431
     67          1           0        0.836951    2.104441   -0.592411
     68          1           0        6.660420    5.254343   -0.079652
     69          1           0        9.475922   -0.296260    0.382209
     70          1           0        1.457132   -2.652587   -0.676323
     71          1           0        0.191072   -0.254034    0.618070
     72          1           0       -0.089980    0.327298   -2.048803
     73          1           0       -1.208343   -0.743786   -1.108960
     74          1           0        0.107920   -1.363749   -2.158057
     75          1           0        0.546969   -1.747876    1.971898
     76          1           0        1.967879   -2.814185    2.107953
     77          1           0       -0.585694   -3.478415    2.163453
     78          1           0        0.762011   -4.573355    1.633125
     79          1           0        1.257027    5.600575   -1.752437
     80          1           0        0.785489    5.127688   -0.110914
     81          1           0        0.459847    4.092563   -1.503586
     82          1           0        2.449151    7.454983   -1.636931
     83          1           0        3.206224    8.561330   -0.544386
     84          1           0        2.145327    7.383998    0.169708
     85          1           0        8.975694    4.278176    1.017919
     86          1           0       10.274172    1.940859   -0.144151
     87          1           0        9.108077    5.362817   -1.017317
     88          1           0        8.580925    3.937350   -1.909483
     89          1           0       10.292331    3.980611   -1.398150
     90          1           0       10.300332    1.089501    2.105720
     91          1           0        9.028416    2.144172    2.600490
     92          1           0       10.404185    3.756438    3.355065
     93          1           0       11.242608    3.878228    1.845527
     94          1           0       11.756690    2.664786    3.016601
     95          1           0        9.807669   -2.500050   -0.150618
     96          1           0        8.947664   -4.025242   -0.523808
     97          1           0        9.303019   -3.512712    1.167301
     98          1           0        3.637776   -4.123727    0.790786
     99          1           0        3.533837   -6.888097   -2.340858
    100          1           0        1.706978   -6.739432   -2.390319
    101          1           0        2.532992   -7.783380   -1.307350
    102          1           0       -2.680474   -4.787687   -1.234446
    103          1           0       -2.287985   -3.299267   -2.039951
    104          1           0       -3.923158   -1.876173   -0.642488
    105          1           0       -6.503550   -4.786673   -1.647234
    106          1           0       -6.119930   -5.328131   -0.091500
    107          1           0       -4.860848   -5.329602   -1.298823
    108          1           0       -7.110689   -2.517883   -1.224068
    109          1           0       -6.039047   -1.407317   -0.356950
    110          1           0       -6.638790   -3.536999    1.365976
    111          1           0       -8.118818   -3.063545    0.468005
    112          1           0       -7.321314   -0.519031    1.283536
    113          1           0       -6.357239   -1.472557    2.378357
    114          1           0       -9.316175   -2.187363    2.439293
    115          1           0       -8.418350   -1.769884    5.097133
    116          1           0       -7.053709   -2.386585    4.246957
    117          1           0       -8.615455   -3.318063    4.266262
    118          1           0       -8.256641    0.514018    3.173588
    119          1           0       -9.494563   -0.038084    4.154723
    120          1           0      -11.262858    0.137216    2.451997
    121          1           0      -10.114637   -0.410707    1.243759
    122          1           0       -9.068957    2.127849    1.903183
    123          1           0      -10.696539    2.367570    2.283791
    124          1           0      -11.226071    1.255365   -0.136771
    125          1           0       -8.771670    2.621440   -0.953173
    126          1           0       -9.449680    1.115359   -1.617132
    127          1           0       -8.416741    1.129949   -0.225530
    128          1           0      -10.555372    3.663307   -0.891289
    129          1           0      -10.718442    3.961144    0.841130
    130          1           0      -12.815963    4.466155    0.181800
    131          1           0      -13.134649    2.669339    0.644349
    132          1           0      -12.440884    2.744379   -2.098354
    133          1           0      -13.468980    4.115559   -1.905941
    134          1           0      -14.481436    1.486537   -0.758156
    135          1           0      -15.190212    2.560360   -3.521457
    136          1           0      -15.676388    1.067835   -2.577536
    137          1           0      -13.996948    1.215149   -3.183211
    138          1           0      -16.257646    2.650516   -0.093355
    139          1           0      -16.458084    3.458535   -1.673797
    140          1           0      -15.454375    4.139461   -0.331989
 ---------------------------------------------------------------------

 SCF Done:  E(RZINDO/S) =  -473.868713904     A.U. after   19 cycles

 Excitation energies and oscillator strengths:

 Excited State   1:      Singlet-A      1.2406 eV  999.42 nm  f=0.5945  <S**2>=0.000
     175 ->178         0.17735
     176 ->177         0.66500
 This state for optimization and/or second-order correction.
 Total Energy, E(CIS/TDA) =  -473.823123899
 Copying the excited state density for this state as the 1-particle RhoCI density.

 Excited State   2:      Singlet-A      1.9055 eV  650.68 nm  f=0.0148  <S**2>=0.000
     175 ->177         0.51302
     176 ->178        -0.45541

 Excited State   3:      Singlet-A      2.8418 eV  436.29 nm  f=0.0640  <S**2>=0.000
     170 ->177         0.13271
     170 ->179         0.13095
     170 ->180         0.17214
     171 ->180         0.13958
     176 ->179         0.50510
     176 ->180         0.22341

 Excited State   4:      Singlet-A      2.9365 eV  422.21 nm  f=0.2978  <S**2>=0.000
     169 ->180         0.12828
     170 ->177        -0.10621
     170 ->179        -0.15311
     170 ->180        -0.16302
     171 ->177        -0.12568
     175 ->177         0.24297
     176 ->178         0.34362
     176 ->179         0.34411

 Excited State   5:      Singlet-A      2.9567 eV  419.33 nm  f=0.7226  <S**2>=0.000
     169 ->180        -0.10550
     170 ->177         0.16245
     170 ->179         0.12459
     170 ->180         0.17779
     175 ->177         0.34036
     176 ->178         0.37517
     176 ->179        -0.18661
     176 ->180        -0.15016

 The electronic state is 1-A.
 Alpha  occ. eigenvalues --   -1.86507  -1.79569  -1.78259  -1.72117  -1.69657
 Alpha  occ. eigenvalues --   -1.69024  -1.65251  -1.59929  -1.56729  -1.54572
 Alpha  occ. eigenvalues --   -1.54431  -1.51223  -1.48834  -1.46134  -1.45517
 Alpha  occ. eigenvalues --   -1.44694  -1.40739  -1.39327  -1.38265  -1.37667
 Alpha  occ. eigenvalues --   -1.35444  -1.32915  -1.32598  -1.31809  -1.28602
 Alpha  occ. eigenvalues --   -1.27112  -1.23664  -1.21571  -1.20043  -1.18566
 Alpha  occ. eigenvalues --   -1.16752  -1.15127  -1.14401  -1.14204  -1.13818
 Alpha  occ. eigenvalues --   -1.12692  -1.10627  -1.09638  -1.05313  -1.03891
 Alpha  occ. eigenvalues --   -1.03408  -1.01585  -0.98012  -0.97117  -0.96739
 Alpha  occ. eigenvalues --   -0.95639  -0.95139  -0.93499  -0.92720  -0.91323
 Alpha  occ. eigenvalues --   -0.90261  -0.89921  -0.89075  -0.88558  -0.86509
 Alpha  occ. eigenvalues --   -0.86071  -0.84081  -0.82850  -0.82280  -0.80593
 Alpha  occ. eigenvalues --   -0.79792  -0.78118  -0.76533  -0.76004  -0.75714
 Alpha  occ. eigenvalues --   -0.75586  -0.75345  -0.74395  -0.73803  -0.73325
 Alpha  occ. eigenvalues --   -0.72901  -0.71943  -0.71511  -0.70947  -0.70589
 Alpha  occ. eigenvalues --   -0.69888  -0.69477  -0.68387  -0.67811  -0.67470
 Alpha  occ. eigenvalues --   -0.67048  -0.66931  -0.66800  -0.66353  -0.65371
 Alpha  occ. eigenvalues --   -0.64994  -0.64297  -0.63766  -0.63302  -0.62678
 Alpha  occ. eigenvalues --   -0.62422  -0.62209  -0.62092  -0.61893  -0.61641
 Alpha  occ. eigenvalues --   -0.61261  -0.61147  -0.60637  -0.60367  -0.60131
 Alpha  occ. eigenvalues --   -0.59158  -0.58719  -0.58653  -0.58498  -0.58179
 Alpha  occ. eigenvalues --   -0.57696  -0.57455  -0.57392  -0.56533  -0.56288
 Alpha  occ. eigenvalues --   -0.56015  -0.55489  -0.55281  -0.55217  -0.54896
 Alpha  occ. eigenvalues --   -0.54447  -0.54341  -0.53890  -0.53721  -0.52964
 Alpha  occ. eigenvalues --   -0.52696  -0.52233  -0.52116  -0.52026  -0.51831
 Alpha  occ. eigenvalues --   -0.51433  -0.51109  -0.50394  -0.49867  -0.49846
 Alpha  occ. eigenvalues --   -0.49799  -0.49392  -0.49107  -0.48705  -0.48611
 Alpha  occ. eigenvalues --   -0.48357  -0.48164  -0.48001  -0.47819  -0.47703
 Alpha  occ. eigenvalues --   -0.47227  -0.47144  -0.46999  -0.46896  -0.46491
 Alpha  occ. eigenvalues --   -0.46271  -0.45881  -0.45752  -0.45698  -0.45394
 Alpha  occ. eigenvalues --   -0.45237  -0.45001  -0.44817  -0.44443  -0.44063
 Alpha  occ. eigenvalues --   -0.43980  -0.43582  -0.43402  -0.42263  -0.41952
 Alpha  occ. eigenvalues --   -0.41647  -0.41349  -0.39510  -0.39178  -0.38463
 Alpha  occ. eigenvalues --   -0.37541  -0.36465  -0.36338  -0.34830  -0.34394
 Alpha  occ. eigenvalues --   -0.33801  -0.33454  -0.32317  -0.32144  -0.26621
 Alpha  occ. eigenvalues --   -0.21374
 Alpha virt. eigenvalues --   -0.08152  -0.02246  -0.00890   0.01071   0.02163
 Alpha virt. eigenvalues --    0.02502   0.03001   0.03855   0.04372   0.04592
 Alpha virt. eigenvalues --    0.05828   0.06410   0.07408   0.07708   0.07994

 Mulliken charges:
               1
     1  Mg   0.428644
     2  C   -0.051576
     3  C   -0.100254
     4  C   -0.060966
     5  C   -0.055670
     6  N   -0.282950
     7  C    0.107896
     8  C    0.009894
     9  C    0.010022
    10  C    0.149200
    11  C   -0.053397
    12  C   -0.014683
    13  C    0.004330
    14  C    0.462834
    15  O   -0.489202
    16  O   -0.295934
    17  N   -0.313196
    18  C    0.123261
    19  C    0.030917
    20  C   -0.034037
    21  C    0.125875
    22  C   -0.036946
    23  C    0.322443
    24  O   -0.524339
    25  C   -0.031776
    26  N   -0.262752
    27  C    0.143475
    28  C    0.000316
    29  C   -0.003759
    30  C    0.092516
    31  C   -0.047279
    32  C   -0.025009
    33  C   -0.057616
    34  N   -0.311875
    35  C    0.076248
    36  C    0.018828
    37  C   -0.041682
    38  C    0.125640
    39  C   -0.040012
    40  C    0.329526
    41  O   -0.542810
    42  C    0.051412
    43  C    0.483960
    44  O   -0.545489
    45  O   -0.259231
    46  C    0.077672
    47  C    0.113197
    48  C   -0.082221
    49  C   -0.004236
    50  C   -0.040964
    51  C   -0.036466
    52  C   -0.037842
    53  C   -0.023495
    54  C   -0.024294
    55  C   -0.069663
    56  C   -0.043426
    57  C   -0.036312
    58  C   -0.026775
    59  C   -0.004135
    60  C   -0.056553
    61  C   -0.046090
    62  C   -0.046314
    63  C   -0.041452
    64  C   -0.023557
    65  C   -0.059947
    66  C   -0.065930
    67  H    0.018659
    68  H    0.050384
    69  H    0.019324
    70  H    0.055407
    71  H    0.026094
    72  H    0.021393
    73  H    0.026579
    74  H    0.030782
    75  H    0.019234
    76  H    0.032603
    77  H    0.038441
    78  H    0.037462
    79  H    0.021525
    80  H    0.032667
    81  H    0.036703
    82  H    0.042116
    83  H    0.031873
    84  H    0.037460
    85  H    0.029803
    86  H    0.031644
    87  H    0.030924
    88  H    0.025143
    89  H    0.031538
    90  H    0.017651
    91  H    0.016246
    92  H    0.020644
    93  H    0.017712
    94  H    0.019700
    95  H    0.022457
    96  H    0.035773
    97  H    0.033184
    98  H    0.054354
    99  H    0.047857
   100  H    0.058334
   101  H    0.022922
   102  H    0.052470
   103  H    0.044984
   104  H    0.026656
   105  H    0.025898
   106  H    0.025225
   107  H    0.013893
   108  H    0.023705
   109  H    0.014555
   110  H    0.031726
   111  H    0.026372
   112  H    0.027769
   113  H    0.020742
   114  H    0.019801
   115  H    0.018321
   116  H    0.017554
   117  H    0.024544
   118  H    0.017049
   119  H    0.016231
   120  H    0.025252
   121  H    0.020704
   122  H    0.023550
   123  H    0.009731
   124  H    0.020492
   125  H    0.014992
   126  H    0.017940
   127  H    0.011650
   128  H    0.019341
   129  H    0.012793
   130  H    0.024019
   131  H    0.037899
   132  H    0.019430
   133  H    0.014285
   134  H    0.018935
   135  H    0.030079
   136  H    0.019442
   137  H    0.020991
   138  H    0.013072
   139  H    0.023952
   140  H    0.023369
 Sum of Mulliken charges =  -0.00000

 Dipole moment (field-independent basis, Debye):
    X=             -7.7035    Y=              5.6134    Z=              5.0659  Tot=             10.7944
 N-N= 4.314061078213D+03 E-N= 0.000000000000D+00  KE=-9.302590592727D+03
 Leave Link  601 at Wed May  4 01:14:45 2022, MaxMem=  6710886400 cpu:               0.9 elap:               0.1
 (Enter /sw/apps/gaussian-16.0/g16/l9999.exe)
 1\1\GINC-BP1-COMPUTE050\SP\RZINDO CIS\STO-3G\C55H74Mg1N4O6\OF15641\04-
 May-2022\0\\#p ZINDO=(nstates=5)\\step_1151_chromophore_24 ZINDO\\0,1\
 Mg,0,0.095,43.857,24.697\C,0,2.098,43.24,27.454\C,0,-2.498,42.567,26.5
 27\C,0,-1.679,43.986,21.783\C,0,3.006,44.414,22.893\N,0,-0.227,43.196,
 26.876\C,0,0.707,43.088,27.843\C,0,0.101,43.02,29.26\C,0,-1.36,42.652,
 28.911\C,0,-1.425,42.806,27.353\C,0,-1.894,41.279,29.485\C,0,0.262,44.
 272,30.167\C,0,0.566,43.983,31.628\C,0,0.51,42.471,32.13\O,0,1.311,41.

 Normal termination of Gaussian 16 at Wed May  4 01:14:46 2022.
