 Gaussian 16, Revision A.03,
 Gaussian 16:  ES64L-G16RevA.03 25-Dec-2016

 ------------------------------
 #p blyp/Def2SVP td=(nstates=5)
 ------------------------------

 --------------------------------------------------
 step_1101_chromophore_3 TDDFT with blyp functional
 --------------------------------------------------
 Symbolic Z-matrix:
 Charge =  0 Multiplicity = 1

                         Standard orientation:
 ---------------------------------------------------------------------
 Center     Atomic      Atomic             Coordinates (Angstroms)
 Number     Number       Type             X           Y           Z
 ---------------------------------------------------------------------
      1         12           0       -5.374848    0.750963   -0.331972
      2          6           0       -4.224472   -2.524371   -0.033622
      3          6           0       -2.343165    1.907850   -0.436336
      4          6           0       -6.707321    3.906584    0.270476
      5          6           0       -8.632305   -0.536792    0.380354
      6          7           0       -3.457071   -0.266091   -0.126324
      7          6           0       -3.196356   -1.590066   -0.276272
      8          6           0       -1.640091   -1.816479   -0.487746
      9          6           0       -1.098223   -0.453026   -0.426891
     10          6           0       -2.355208    0.501381   -0.253171
     11          6           0        0.067963   -0.178023    0.633307
     12          6           0       -1.368489   -2.684634   -1.793979
     13          6           0       -0.199978   -3.597937   -2.027203
     14          6           0        1.004251   -3.584584   -1.067345
     15          8           0        1.130622   -4.231785   -0.048028
     16          8           0        1.917328   -2.684185   -1.530811
     17          7           0       -4.609568    2.642127   -0.204329
     18          6           0       -3.306920    2.899708   -0.389087
     19          6           0       -3.120103    4.339695   -0.446132
     20          6           0       -4.393878    4.935997   -0.100262
     21          6           0       -5.324155    3.796626    0.002596
     22          6           0       -1.737610    5.006428   -0.670905
     23          6           0       -4.720601    6.415648   -0.001419
     24          8           0       -5.871994    6.853769    0.060852
     25          6           0       -3.683910    7.368076   -0.055962
     26          7           0       -7.345865    1.540283    0.205467
     27          6           0       -7.639055    2.889688    0.216258
     28          6           0       -9.148347    3.232726    0.369131
     29          6           0       -9.737162    1.767744    0.258993
     30          6           0       -8.516656    0.862147    0.269840
     31          6           0       -9.356242    4.122772    1.604622
     32          6           0      -10.650583    1.464486   -0.968729
     33          6           0      -12.117681    0.995890   -0.792562
     34          7           0       -6.295728   -1.125936    0.096957
     35          6           0       -7.585084   -1.464589    0.358374
     36          6           0       -7.693404   -2.908553    0.478532
     37          6           0       -6.332201   -3.371705    0.417748
     38          6           0       -5.559471   -2.247525    0.191663
     39          6           0       -8.922466   -3.721086    0.885063
     40          6           0       -5.480654   -4.579203    0.559216
     41          8           0       -5.634331   -5.729304    0.910261
     42          6           0       -4.026269   -3.982441    0.394863
     43          6           0       -3.237471   -4.237696    1.602676
     44          8           0       -3.491828   -3.770369    2.717623
     45          8           0       -2.166857   -5.122404    1.438397
     46          6           0       -1.181640   -5.144619    2.427560
     47          6           0        3.258288   -2.713297   -0.966845
     48          6           0        4.294397   -2.528432   -1.984209
     49          6           0        5.637253   -2.599485   -1.924931
     50          6           0        6.314519   -3.033449   -0.606692
     51          6           0        6.565112   -2.342213   -3.090627
     52          6           0        7.117727   -0.879493   -3.106633
     53          6           0        8.627740   -0.832839   -3.335225
     54          6           0        9.241129    0.066767   -2.247215
     55          6           0        9.391661   -0.553858   -0.873326
     56          6           0       10.708785    0.472202   -2.700646
     57          6           0       10.912392    2.030767   -2.399339
     58          6           0       12.383404    2.317676   -1.853326
     59          6           0       12.409590    2.634478   -0.274617
     60          6           0       12.917061    4.088174    0.040208
     61          6           0       12.992627    1.508371    0.577907
     62          6           0       12.026202    0.985671    1.636348
     63          6           0       12.110160    1.650856    3.094121
     64          6           0       11.976358    0.508950    4.189899
     65          6           0       11.129429    1.044842    5.361130
     66          6           0       13.394081    0.095564    4.776304
     67          1           0       -1.335186    2.284372   -0.624012
     68          1           0       -7.127897    4.914093    0.246074
     69          1           0       -9.641641   -0.953487    0.416140
     70          1           0       -1.381041   -2.318430    0.443914
     71          1           0       -0.718826   -0.253756   -1.429287
     72          1           0        0.958208   -0.045720    0.019029
     73          1           0        0.262924   -0.949664    1.377785
     74          1           0       -0.038511    0.719646    1.241783
     75          1           0       -1.510674   -2.061021   -2.675820
     76          1           0       -2.236975   -3.339076   -1.866536
     77          1           0        0.103723   -3.494306   -3.068741
     78          1           0       -0.535870   -4.608302   -1.794989
     79          1           0       -1.140400    4.217349   -1.125923
     80          1           0       -1.351593    5.495921    0.223490
     81          1           0       -1.871411    5.827908   -1.375276
     82          1           0       -3.953308    8.406290    0.138068
     83          1           0       -3.193636    7.291495   -1.026821
     84          1           0       -2.962443    7.088813    0.712463
     85          1           0       -9.251964    3.822708   -0.541424
     86          1           0      -10.252867    1.778282    1.219974
     87          1           0       -8.470475    4.393722    2.178159
     88          1           0      -10.104628    3.752885    2.305390
     89          1           0       -9.716709    5.047479    1.155021
     90          1           0      -10.253799    0.541890   -1.391376
     91          1           0      -10.585984    2.203949   -1.766710
     92          1           0      -12.416577    1.283396    0.215152
     93          1           0      -12.272890   -0.078443   -0.696318
     94          1           0      -12.895701    1.391663   -1.444821
     95          1           0       -9.892243   -3.266842    0.680744
     96          1           0       -8.829545   -3.824363    1.966646
     97          1           0       -8.774425   -4.686932    0.404611
     98          1           0       -3.788113   -4.513511   -0.527459
     99          1           0       -1.399866   -5.535549    3.421277
    100          1           0       -0.800814   -4.142388    2.623631
    101          1           0       -0.376628   -5.780514    2.060292
    102          1           0        3.428544   -3.584735   -0.335221
    103          1           0        3.455736   -1.797564   -0.408762
    104          1           0        3.938907   -2.290349   -2.987723
    105          1           0        5.600280   -3.315743    0.166831
    106          1           0        6.948424   -2.200396   -0.302577
    107          1           0        6.990319   -3.829858   -0.918100
    108          1           0        6.029680   -2.523918   -4.023259
    109          1           0        7.344986   -3.079241   -2.903288
    110          1           0        6.887082   -0.399748   -2.155897
    111          1           0        6.591614   -0.353174   -3.902730
    112          1           0        8.917815   -0.429683   -4.305719
    113          1           0        8.974755   -1.864972   -3.282994
    114          1           0        8.601587    0.949390   -2.217734
    115          1           0        8.936556    0.118139   -0.145711
    116          1           0       10.419772   -0.696116   -0.540245
    117          1           0        8.923004   -1.535099   -0.947585
    118          1           0       10.926393    0.294612   -3.754323
    119          1           0       11.408307   -0.199927   -2.204313
    120          1           0       10.101275    2.523588   -1.862975
    121          1           0       10.816289    2.553040   -3.351235
    122          1           0       12.777591    3.122076   -2.473954
    123          1           0       13.000893    1.419806   -1.905504
    124          1           0       11.357922    2.718992   -0.001035
    125          1           0       13.565654    3.965264    0.907856
    126          1           0       12.125134    4.822015    0.187148
    127          1           0       13.546937    4.602989   -0.685244
    128          1           0       13.892282    1.866400    1.078133
    129          1           0       13.281695    0.647410   -0.023758
    130          1           0       12.217260   -0.084520    1.715261
    131          1           0       10.990549    0.958840    1.299014
    132          1           0       11.288271    2.360351    3.200042
    133          1           0       12.962998    2.314072    3.238506
    134          1           0       11.511962   -0.398769    3.803233
    135          1           0       10.446376    1.810746    4.994678
    136          1           0       11.773595    1.453268    6.140233
    137          1           0       10.532230    0.264207    5.833051
    138          1           0       13.354896   -0.989201    4.874414
    139          1           0       13.627097    0.480135    5.769426
    140          1           0       14.197636    0.379885    4.097213
 ---------------------------------------------------------------------

 SCF Done:  E(RB-LYP) =  -3007.34178066     A.U. after   21 cycles

 Excitation energies and oscillator strengths:

 Excited State   1:      Singlet-A      1.8350 eV  675.68 nm  f=0.2862  <S**2>=0.000
     245 -> 248       -0.20187
     246 -> 247        0.68055
     246 <- 247       -0.14195
 This state for optimization and/or second-order correction.
 Total Energy, E(TD-HF/TD-DFT) =  -3007.27434704
 Copying the excited state density for this state as the 1-particle RhoCI density.

 Excited State   2:      Singlet-A      1.9517 eV  635.26 nm  f=0.0082  <S**2>=0.000
     244 -> 247        0.69061
     245 -> 247       -0.11293

 Excited State   3:      Singlet-A      2.0402 eV  607.70 nm  f=0.0730  <S**2>=0.000
     243 -> 247        0.14745
     244 -> 247        0.11496
     245 -> 247        0.62483
     246 -> 248        0.25418

 Excited State   4:      Singlet-A      2.1117 eV  587.13 nm  f=0.0055  <S**2>=0.000
     243 -> 247        0.68720
     245 -> 247       -0.12857

 Excited State   5:      Singlet-A      2.2888 eV  541.70 nm  f=0.0001  <S**2>=0.000
     242 -> 247        0.70708

 The electronic state is 1-A.
 Alpha  occ. eigenvalues --  -46.27541 -18.82938 -18.80851 -18.77869 -18.76276
 Alpha  occ. eigenvalues --  -18.76031 -18.75102 -14.03491 -14.02971 -14.01037
 Alpha  occ. eigenvalues --  -14.00400 -10.04910 -10.03537 -10.00016  -9.99380
 Alpha  occ. eigenvalues --   -9.98341  -9.96988  -9.96877  -9.96289  -9.95880
 Alpha  occ. eigenvalues --   -9.95710  -9.95653  -9.95520  -9.95056  -9.94588
 Alpha  occ. eigenvalues --   -9.94294  -9.94178  -9.94100  -9.94001  -9.93939
 Alpha  occ. eigenvalues --   -9.93921  -9.93664  -9.93628  -9.93584  -9.93494
 Alpha  occ. eigenvalues --   -9.93490  -9.93083  -9.92882  -9.92813  -9.92597
 Alpha  occ. eigenvalues --   -9.92592  -9.92518  -9.92448  -9.92435  -9.92391
 Alpha  occ. eigenvalues --   -9.92370  -9.92024  -9.91995  -9.91898  -9.91852
 Alpha  occ. eigenvalues --   -9.91772  -9.91767  -9.91715  -9.91588  -9.91425
 Alpha  occ. eigenvalues --   -9.91421  -9.91383  -9.91374  -9.91333  -9.91316
 Alpha  occ. eigenvalues --   -9.91271  -9.91225  -9.91095  -9.90957  -9.90826
 Alpha  occ. eigenvalues --   -9.90514  -2.92147  -1.72550  -1.72033  -1.71864
 Alpha  occ. eigenvalues --   -0.98951  -0.96807  -0.92127  -0.91193  -0.91086
 Alpha  occ. eigenvalues --   -0.88710  -0.86917  -0.86081  -0.85896  -0.85051
 Alpha  occ. eigenvalues --   -0.75696  -0.74227  -0.73435  -0.72614  -0.71970
 Alpha  occ. eigenvalues --   -0.71958  -0.71725  -0.70649  -0.70415  -0.70265
 Alpha  occ. eigenvalues --   -0.69928  -0.69422  -0.68435  -0.67500  -0.67182
 Alpha  occ. eigenvalues --   -0.66640  -0.66541  -0.65409  -0.65034  -0.64586
 Alpha  occ. eigenvalues --   -0.63741  -0.62557  -0.62423  -0.61845  -0.60801
 Alpha  occ. eigenvalues --   -0.60553  -0.59947  -0.59750  -0.59475  -0.59245
 Alpha  occ. eigenvalues --   -0.58486  -0.57496  -0.56829  -0.56234  -0.54639
 Alpha  occ. eigenvalues --   -0.54158  -0.53745  -0.53000  -0.52608  -0.51695
 Alpha  occ. eigenvalues --   -0.51437  -0.51345  -0.50736  -0.50582  -0.50475
 Alpha  occ. eigenvalues --   -0.50076  -0.49535  -0.49089  -0.48503  -0.46701
 Alpha  occ. eigenvalues --   -0.46279  -0.45862  -0.45581  -0.45325  -0.45115
 Alpha  occ. eigenvalues --   -0.44304  -0.43950  -0.43328  -0.42990  -0.42524
 Alpha  occ. eigenvalues --   -0.41935  -0.41879  -0.41487  -0.41023  -0.40813
 Alpha  occ. eigenvalues --   -0.40617  -0.40555  -0.40470  -0.40254  -0.40025
 Alpha  occ. eigenvalues --   -0.39701  -0.39544  -0.39457  -0.39413  -0.38926
 Alpha  occ. eigenvalues --   -0.38850  -0.38670  -0.38548  -0.38418  -0.38289
 Alpha  occ. eigenvalues --   -0.38109  -0.37946  -0.37882  -0.37550  -0.37314
 Alpha  occ. eigenvalues --   -0.37068  -0.37000  -0.36792  -0.36672  -0.36334
 Alpha  occ. eigenvalues --   -0.36234  -0.36083  -0.35959  -0.35911  -0.35631
 Alpha  occ. eigenvalues --   -0.35497  -0.35254  -0.35178  -0.35162  -0.34808
 Alpha  occ. eigenvalues --   -0.34620  -0.34217  -0.34056  -0.33926  -0.33856
 Alpha  occ. eigenvalues --   -0.33730  -0.33595  -0.33380  -0.33257  -0.33133
 Alpha  occ. eigenvalues --   -0.33106  -0.32928  -0.32731  -0.32453  -0.32307
 Alpha  occ. eigenvalues --   -0.32288  -0.31939  -0.31823  -0.31651  -0.31624
 Alpha  occ. eigenvalues --   -0.31460  -0.31141  -0.31009  -0.30909  -0.30646
 Alpha  occ. eigenvalues --   -0.30570  -0.30399  -0.30384  -0.29953  -0.29874
 Alpha  occ. eigenvalues --   -0.29670  -0.29423  -0.28953  -0.28796  -0.28618
 Alpha  occ. eigenvalues --   -0.28421  -0.28343  -0.28217  -0.28157  -0.27991
 Alpha  occ. eigenvalues --   -0.27793  -0.27373  -0.27327  -0.27302  -0.26461
 Alpha  occ. eigenvalues --   -0.26306  -0.26102  -0.26011  -0.25810  -0.25645
 Alpha  occ. eigenvalues --   -0.25376  -0.24082  -0.24078  -0.23557  -0.23293
 Alpha  occ. eigenvalues --   -0.23048  -0.22955  -0.21961  -0.21059  -0.20708
 Alpha  occ. eigenvalues --   -0.20235  -0.19762  -0.18966  -0.18437  -0.17183
 Alpha  occ. eigenvalues --   -0.15767
 Alpha virt. eigenvalues --   -0.11351  -0.06793  -0.06220  -0.04492  -0.03619
 Alpha virt. eigenvalues --   -0.03429  -0.03109  -0.01384  -0.01131   0.00210
 Alpha virt. eigenvalues --    0.01324   0.02130   0.02147   0.02582   0.02613

 Mulliken charges:
               1
     1  Mg   0.693577
     2  C   -0.078441
     3  C   -0.059893
     4  C   -0.046190
     5  C   -0.087135
     6  N   -0.211032
     7  C   -0.144866
     8  C    0.100626
     9  C    0.018538
    10  C    0.005472
    11  C    0.106435
    12  C    0.116470
    13  C    0.187636
    14  C    0.047514
    15  O   -0.173839
    16  O   -0.267731
    17  N   -0.294941
    18  C    0.154413
    19  C   -0.159588
    20  C    0.008384
    21  C    0.103308
    22  C    0.181433
    23  C   -0.071827
    24  O   -0.176492
    25  C    0.168828
    26  N   -0.199992
    27  C   -0.037824
    28  C   -0.012866
    29  C    0.089187
    30  C    0.014953
    31  C    0.142423
    32  C    0.111102
    33  C    0.049828
    34  N   -0.224123
    35  C    0.128745
    36  C   -0.199166
    37  C    0.039628
    38  C    0.139688
    39  C    0.163244
    40  C   -0.062241
    41  O   -0.107076
    42  C    0.090681
    43  C    0.157966
    44  O   -0.189676
    45  O   -0.256899
    46  C    0.236968
    47  C    0.340655
    48  C   -0.127122
    49  C   -0.213238
    50  C    0.136176
    51  C    0.159046
    52  C    0.079503
    53  C    0.115977
    54  C   -0.138677
    55  C    0.129520
    56  C    0.099364
    57  C    0.048145
    58  C    0.107410
    59  C   -0.063863
    60  C    0.088428
    61  C    0.135492
    62  C    0.022237
    63  C    0.111388
    64  C   -0.094705
    65  C    0.097322
    66  C    0.089228
    67  H   -0.071646
    68  H   -0.037128
    69  H   -0.067804
    70  H   -0.013674
    71  H   -0.029630
    72  H   -0.005792
    73  H    0.002154
    74  H   -0.007331
    75  H   -0.034383
    76  H   -0.027547
    77  H   -0.004852
    78  H   -0.002066
    79  H   -0.002913
    80  H    0.012143
    81  H   -0.018417
    82  H   -0.008055
    83  H    0.009876
    84  H   -0.004697
    85  H   -0.018587
    86  H   -0.026567
    87  H    0.012448
    88  H   -0.008734
    89  H   -0.004906
    90  H   -0.018958
    91  H   -0.017928
    92  H   -0.029206
    93  H   -0.011634
    94  H   -0.002753
    95  H   -0.007760
    96  H    0.019821
    97  H    0.014815
    98  H   -0.010991
    99  H   -0.005944
   100  H   -0.013113
   101  H    0.008202
   102  H    0.020953
   103  H    0.003426
   104  H   -0.051176
   105  H   -0.010321
   106  H    0.000280
   107  H   -0.006134
   108  H   -0.027083
   109  H   -0.031622
   110  H   -0.015557
   111  H   -0.026648
   112  H   -0.033164
   113  H   -0.038836
   114  H   -0.024962
   115  H   -0.002290
   116  H   -0.006722
   117  H   -0.018690
   118  H   -0.038254
   119  H   -0.033502
   120  H   -0.023678
   121  H   -0.038979
   122  H   -0.032251
   123  H   -0.028881
   124  H   -0.033241
   125  H   -0.025088
   126  H   -0.013446
   127  H   -0.024100
   128  H   -0.036519
   129  H   -0.040686
   130  H   -0.032895
   131  H   -0.026262
   132  H   -0.040058
   133  H   -0.029871
   134  H   -0.019582
   135  H   -0.020665
   136  H   -0.015852
   137  H   -0.020449
   138  H   -0.017737
   139  H   -0.011493
   140  H   -0.011907
 Sum of Mulliken charges =  -0.00000

 Dipole moment (field-independent basis, Debye):
    X=              3.6825    Y=              3.5833    Z=             -4.7374  Tot=              6.9888
 Quadrupole moment (field-independent basis, Debye-Ang):
   XX=           -380.5275   YY=           -444.9714   ZZ=           -405.0826
   XY=            -12.5995   XZ=             13.2935   YZ=             10.6741

 Normal termination of Gaussian 16 at Wed May  4 00:12:13 2022.
