 Gaussian 16, Revision A.03,
 Gaussian 16:  ES64L-G16RevA.03 25-Dec-2016

 -----------------------------------
 #p cam-b3lyp/Def2SVP td=(nstates=5)
 -----------------------------------

 -------------------------------------------------------
 step_1101_chromophore_3 TDDFT with cam-b3lyp functional
 -------------------------------------------------------
 Symbolic Z-matrix:
 Charge =  0 Multiplicity = 1

                         Standard orientation:
 ---------------------------------------------------------------------
 Center     Atomic      Atomic             Coordinates (Angstroms)
 Number     Number       Type             X           Y           Z
 ---------------------------------------------------------------------
      1         12           0       -5.374848    0.750963   -0.331972
      2          6           0       -4.224472   -2.524371   -0.033622
      3          6           0       -2.343165    1.907850   -0.436336
      4          6           0       -6.707321    3.906584    0.270476
      5          6           0       -8.632305   -0.536792    0.380354
      6          7           0       -3.457071   -0.266091   -0.126324
      7          6           0       -3.196356   -1.590066   -0.276272
      8          6           0       -1.640091   -1.816479   -0.487746
      9          6           0       -1.098223   -0.453026   -0.426891
     10          6           0       -2.355208    0.501381   -0.253171
     11          6           0        0.067963   -0.178023    0.633307
     12          6           0       -1.368489   -2.684634   -1.793979
     13          6           0       -0.199978   -3.597937   -2.027203
     14          6           0        1.004251   -3.584584   -1.067345
     15          8           0        1.130622   -4.231785   -0.048028
     16          8           0        1.917328   -2.684185   -1.530811
     17          7           0       -4.609568    2.642127   -0.204329
     18          6           0       -3.306920    2.899708   -0.389087
     19          6           0       -3.120103    4.339695   -0.446132
     20          6           0       -4.393878    4.935997   -0.100262
     21          6           0       -5.324155    3.796626    0.002596
     22          6           0       -1.737610    5.006428   -0.670905
     23          6           0       -4.720601    6.415648   -0.001419
     24          8           0       -5.871994    6.853769    0.060852
     25          6           0       -3.683910    7.368076   -0.055962
     26          7           0       -7.345865    1.540283    0.205467
     27          6           0       -7.639055    2.889688    0.216258
     28          6           0       -9.148347    3.232726    0.369131
     29          6           0       -9.737162    1.767744    0.258993
     30          6           0       -8.516656    0.862147    0.269840
     31          6           0       -9.356242    4.122772    1.604622
     32          6           0      -10.650583    1.464486   -0.968729
     33          6           0      -12.117681    0.995890   -0.792562
     34          7           0       -6.295728   -1.125936    0.096957
     35          6           0       -7.585084   -1.464589    0.358374
     36          6           0       -7.693404   -2.908553    0.478532
     37          6           0       -6.332201   -3.371705    0.417748
     38          6           0       -5.559471   -2.247525    0.191663
     39          6           0       -8.922466   -3.721086    0.885063
     40          6           0       -5.480654   -4.579203    0.559216
     41          8           0       -5.634331   -5.729304    0.910261
     42          6           0       -4.026269   -3.982441    0.394863
     43          6           0       -3.237471   -4.237696    1.602676
     44          8           0       -3.491828   -3.770369    2.717623
     45          8           0       -2.166857   -5.122404    1.438397
     46          6           0       -1.181640   -5.144619    2.427560
     47          6           0        3.258288   -2.713297   -0.966845
     48          6           0        4.294397   -2.528432   -1.984209
     49          6           0        5.637253   -2.599485   -1.924931
     50          6           0        6.314519   -3.033449   -0.606692
     51          6           0        6.565112   -2.342213   -3.090627
     52          6           0        7.117727   -0.879493   -3.106633
     53          6           0        8.627740   -0.832839   -3.335225
     54          6           0        9.241129    0.066767   -2.247215
     55          6           0        9.391661   -0.553858   -0.873326
     56          6           0       10.708785    0.472202   -2.700646
     57          6           0       10.912392    2.030767   -2.399339
     58          6           0       12.383404    2.317676   -1.853326
     59          6           0       12.409590    2.634478   -0.274617
     60          6           0       12.917061    4.088174    0.040208
     61          6           0       12.992627    1.508371    0.577907
     62          6           0       12.026202    0.985671    1.636348
     63          6           0       12.110160    1.650856    3.094121
     64          6           0       11.976358    0.508950    4.189899
     65          6           0       11.129429    1.044842    5.361130
     66          6           0       13.394081    0.095564    4.776304
     67          1           0       -1.335186    2.284372   -0.624012
     68          1           0       -7.127897    4.914093    0.246074
     69          1           0       -9.641641   -0.953487    0.416140
     70          1           0       -1.381041   -2.318430    0.443914
     71          1           0       -0.718826   -0.253756   -1.429287
     72          1           0        0.958208   -0.045720    0.019029
     73          1           0        0.262924   -0.949664    1.377785
     74          1           0       -0.038511    0.719646    1.241783
     75          1           0       -1.510674   -2.061021   -2.675820
     76          1           0       -2.236975   -3.339076   -1.866536
     77          1           0        0.103723   -3.494306   -3.068741
     78          1           0       -0.535870   -4.608302   -1.794989
     79          1           0       -1.140400    4.217349   -1.125923
     80          1           0       -1.351593    5.495921    0.223490
     81          1           0       -1.871411    5.827908   -1.375276
     82          1           0       -3.953308    8.406290    0.138068
     83          1           0       -3.193636    7.291495   -1.026821
     84          1           0       -2.962443    7.088813    0.712463
     85          1           0       -9.251964    3.822708   -0.541424
     86          1           0      -10.252867    1.778282    1.219974
     87          1           0       -8.470475    4.393722    2.178159
     88          1           0      -10.104628    3.752885    2.305390
     89          1           0       -9.716709    5.047479    1.155021
     90          1           0      -10.253799    0.541890   -1.391376
     91          1           0      -10.585984    2.203949   -1.766710
     92          1           0      -12.416577    1.283396    0.215152
     93          1           0      -12.272890   -0.078443   -0.696318
     94          1           0      -12.895701    1.391663   -1.444821
     95          1           0       -9.892243   -3.266842    0.680744
     96          1           0       -8.829545   -3.824363    1.966646
     97          1           0       -8.774425   -4.686932    0.404611
     98          1           0       -3.788113   -4.513511   -0.527459
     99          1           0       -1.399866   -5.535549    3.421277
    100          1           0       -0.800814   -4.142388    2.623631
    101          1           0       -0.376628   -5.780514    2.060292
    102          1           0        3.428544   -3.584735   -0.335221
    103          1           0        3.455736   -1.797564   -0.408762
    104          1           0        3.938907   -2.290349   -2.987723
    105          1           0        5.600280   -3.315743    0.166831
    106          1           0        6.948424   -2.200396   -0.302577
    107          1           0        6.990319   -3.829858   -0.918100
    108          1           0        6.029680   -2.523918   -4.023259
    109          1           0        7.344986   -3.079241   -2.903288
    110          1           0        6.887082   -0.399748   -2.155897
    111          1           0        6.591614   -0.353174   -3.902730
    112          1           0        8.917815   -0.429683   -4.305719
    113          1           0        8.974755   -1.864972   -3.282994
    114          1           0        8.601587    0.949390   -2.217734
    115          1           0        8.936556    0.118139   -0.145711
    116          1           0       10.419772   -0.696116   -0.540245
    117          1           0        8.923004   -1.535099   -0.947585
    118          1           0       10.926393    0.294612   -3.754323
    119          1           0       11.408307   -0.199927   -2.204313
    120          1           0       10.101275    2.523588   -1.862975
    121          1           0       10.816289    2.553040   -3.351235
    122          1           0       12.777591    3.122076   -2.473954
    123          1           0       13.000893    1.419806   -1.905504
    124          1           0       11.357922    2.718992   -0.001035
    125          1           0       13.565654    3.965264    0.907856
    126          1           0       12.125134    4.822015    0.187148
    127          1           0       13.546937    4.602989   -0.685244
    128          1           0       13.892282    1.866400    1.078133
    129          1           0       13.281695    0.647410   -0.023758
    130          1           0       12.217260   -0.084520    1.715261
    131          1           0       10.990549    0.958840    1.299014
    132          1           0       11.288271    2.360351    3.200042
    133          1           0       12.962998    2.314072    3.238506
    134          1           0       11.511962   -0.398769    3.803233
    135          1           0       10.446376    1.810746    4.994678
    136          1           0       11.773595    1.453268    6.140233
    137          1           0       10.532230    0.264207    5.833051
    138          1           0       13.354896   -0.989201    4.874414
    139          1           0       13.627097    0.480135    5.769426
    140          1           0       14.197636    0.379885    4.097213
 ---------------------------------------------------------------------

 SCF Done:  E(RCAM-B3LYP) =  -3007.13454717     A.U. after   17 cycles

 Excitation energies and oscillator strengths:

 Excited State   1:      Singlet-A      1.7364 eV  714.03 nm  f=0.3714  <S**2>=0.000
     245 -> 248       -0.19086
     246 -> 247        0.68239
     245 <- 248       -0.11016
 This state for optimization and/or second-order correction.
 Total Energy, E(TD-HF/TD-DFT) =  -3007.07073532
 Copying the excited state density for this state as the 1-particle RhoCI density.

 Excited State   2:      Singlet-A      2.2577 eV  549.15 nm  f=0.1036  <S**2>=0.000
     245 -> 247        0.63271
     246 -> 248        0.30467

 Excited State   3:      Singlet-A      3.4094 eV  363.66 nm  f=0.0075  <S**2>=0.000
     243 -> 247        0.67058
     246 -> 248       -0.13625

 Excited State   4:      Singlet-A      3.5321 eV  351.02 nm  f=0.4120  <S**2>=0.000
     242 -> 247       -0.41012
     245 -> 247       -0.21647
     246 -> 248        0.50065

 Excited State   5:      Singlet-A      3.6196 eV  342.54 nm  f=0.1111  <S**2>=0.000
     240 -> 247       -0.16055
     241 -> 247        0.50333
     241 -> 248       -0.10210
     241 -> 249        0.23809
     241 -> 251       -0.18401
     242 -> 247        0.12623
     245 -> 247       -0.11079
     246 -> 248        0.21080

 The electronic state is 1-A.
 Alpha  occ. eigenvalues --  -46.89110 -19.25802 -19.23742 -19.20875 -19.19545
 Alpha  occ. eigenvalues --  -19.19215 -19.18300 -14.42467 -14.41737 -14.39490
 Alpha  occ. eigenvalues --  -14.38733 -10.40217 -10.39098 -10.35462 -10.34534
 Alpha  occ. eigenvalues --  -10.32347 -10.31509 -10.31424 -10.30659 -10.30376
 Alpha  occ. eigenvalues --  -10.30093 -10.29795 -10.29519 -10.29249 -10.28918
 Alpha  occ. eigenvalues --  -10.28719 -10.28329 -10.28150 -10.28102 -10.28084
 Alpha  occ. eigenvalues --  -10.27901 -10.27898 -10.27892 -10.27856 -10.27613
 Alpha  occ. eigenvalues --  -10.27529 -10.27321 -10.27272 -10.26767 -10.26557
 Alpha  occ. eigenvalues --  -10.26351 -10.26333 -10.26280 -10.26164 -10.26152
 Alpha  occ. eigenvalues --  -10.26139 -10.25747 -10.25738 -10.25630 -10.25604
 Alpha  occ. eigenvalues --  -10.25537 -10.25458 -10.25455 -10.25435 -10.25420
 Alpha  occ. eigenvalues --  -10.25359 -10.25339 -10.25126 -10.25093 -10.25086
 Alpha  occ. eigenvalues --  -10.24933 -10.24902 -10.24756 -10.24568 -10.24451
 Alpha  occ. eigenvalues --  -10.24112  -3.17614  -1.92494  -1.92064  -1.91920
 Alpha  occ. eigenvalues --   -1.17434  -1.15325  -1.10627  -1.09486  -1.09091
 Alpha  occ. eigenvalues --   -1.06682  -1.04688  -1.03699  -1.03538  -1.02559
 Alpha  occ. eigenvalues --   -0.92892  -0.91165  -0.90265  -0.89388  -0.88687
 Alpha  occ. eigenvalues --   -0.88668  -0.88265  -0.87286  -0.87148  -0.86797
 Alpha  occ. eigenvalues --   -0.86361  -0.85871  -0.84687  -0.83684  -0.83438
 Alpha  occ. eigenvalues --   -0.82861  -0.82603  -0.81330  -0.80922  -0.80377
 Alpha  occ. eigenvalues --   -0.79531  -0.78271  -0.78084  -0.77351  -0.76206
 Alpha  occ. eigenvalues --   -0.75936  -0.75215  -0.75079  -0.74766  -0.74445
 Alpha  occ. eigenvalues --   -0.73642  -0.72490  -0.71752  -0.71100  -0.69195
 Alpha  occ. eigenvalues --   -0.68763  -0.68390  -0.67509  -0.66993  -0.65876
 Alpha  occ. eigenvalues --   -0.65552  -0.65547  -0.64664  -0.64600  -0.64375
 Alpha  occ. eigenvalues --   -0.64092  -0.63537  -0.63040  -0.62242  -0.60372
 Alpha  occ. eigenvalues --   -0.59898  -0.59528  -0.59130  -0.58724  -0.58455
 Alpha  occ. eigenvalues --   -0.57729  -0.57327  -0.56632  -0.56034  -0.55624
 Alpha  occ. eigenvalues --   -0.55197  -0.54820  -0.54515  -0.54050  -0.53687
 Alpha  occ. eigenvalues --   -0.53501  -0.53363  -0.53238  -0.53110  -0.52879
 Alpha  occ. eigenvalues --   -0.52479  -0.52204  -0.52113  -0.51883  -0.51773
 Alpha  occ. eigenvalues --   -0.51323  -0.51268  -0.51150  -0.51077  -0.50751
 Alpha  occ. eigenvalues --   -0.50497  -0.50378  -0.50328  -0.49960  -0.49845
 Alpha  occ. eigenvalues --   -0.49415  -0.49252  -0.49072  -0.49030  -0.48752
 Alpha  occ. eigenvalues --   -0.48647  -0.48594  -0.48247  -0.47990  -0.47899
 Alpha  occ. eigenvalues --   -0.47371  -0.47329  -0.47209  -0.47093  -0.46772
 Alpha  occ. eigenvalues --   -0.46553  -0.45937  -0.45875  -0.45640  -0.45560
 Alpha  occ. eigenvalues --   -0.45521  -0.45368  -0.45199  -0.44897  -0.44827
 Alpha  occ. eigenvalues --   -0.44687  -0.44561  -0.44414  -0.44359  -0.43979
 Alpha  occ. eigenvalues --   -0.43836  -0.43657  -0.43442  -0.43197  -0.43088
 Alpha  occ. eigenvalues --   -0.42935  -0.42766  -0.42572  -0.42349  -0.42279
 Alpha  occ. eigenvalues --   -0.41954  -0.41791  -0.41565  -0.41419  -0.41100
 Alpha  occ. eigenvalues --   -0.41084  -0.40595  -0.40567  -0.40027  -0.39955
 Alpha  occ. eigenvalues --   -0.39776  -0.39421  -0.39103  -0.39061  -0.39032
 Alpha  occ. eigenvalues --   -0.38773  -0.38277  -0.38235  -0.38156  -0.37459
 Alpha  occ. eigenvalues --   -0.37106  -0.37051  -0.36950  -0.36712  -0.36703
 Alpha  occ. eigenvalues --   -0.36038  -0.35034  -0.34999  -0.34491  -0.34208
 Alpha  occ. eigenvalues --   -0.33748  -0.33363  -0.33358  -0.31063  -0.30998
 Alpha  occ. eigenvalues --   -0.30888  -0.30075  -0.29421  -0.29376  -0.23908
 Alpha  occ. eigenvalues --   -0.21079
 Alpha virt. eigenvalues --   -0.08402  -0.01710   0.00252   0.01463   0.02535
 Alpha virt. eigenvalues --    0.04338   0.04472   0.05811   0.06188   0.07228
 Alpha virt. eigenvalues --    0.08392   0.08416   0.08597   0.08909   0.09183

 Mulliken charges:
               1
     1  Mg   0.824471
     2  C   -0.090115
     3  C   -0.076863
     4  C   -0.065384
     5  C   -0.091387
     6  N   -0.280230
     7  C   -0.105984
     8  C    0.046779
     9  C   -0.035761
    10  C    0.028446
    11  C    0.051560
    12  C    0.066793
    13  C    0.117197
    14  C    0.126196
    15  O   -0.215368
    16  O   -0.331870
    17  N   -0.385946
    18  C    0.159482
    19  C   -0.161829
    20  C   -0.059897
    21  C    0.128849
    22  C    0.128258
    23  C    0.013177
    24  O   -0.218199
    25  C    0.074497
    26  N   -0.270835
    27  C   -0.010642
    28  C   -0.058710
    29  C    0.028377
    30  C    0.032059
    31  C    0.075866
    32  C    0.048875
    33  C   -0.009201
    34  N   -0.312983
    35  C    0.130896
    36  C   -0.192471
    37  C   -0.039919
    38  C    0.176307
    39  C    0.114775
    40  C    0.046698
    41  O   -0.145615
    42  C    0.000878
    43  C    0.243689
    44  O   -0.223575
    45  O   -0.319386
    46  C    0.195086
    47  C    0.307556
    48  C   -0.146986
    49  C   -0.233511
    50  C    0.078929
    51  C    0.098848
    52  C    0.024205
    53  C    0.063549
    54  C   -0.195223
    55  C    0.074547
    56  C    0.051402
    57  C   -0.005826
    58  C    0.057517
    59  C   -0.121291
    60  C    0.036039
    61  C    0.078388
    62  C   -0.026556
    63  C    0.058450
    64  C   -0.155629
    65  C    0.039924
    66  C    0.033006
    67  H   -0.037424
    68  H    0.003386
    69  H   -0.034193
    70  H    0.017274
    71  H    0.006505
    72  H    0.016844
    73  H    0.025856
    74  H    0.018774
    75  H   -0.002698
    76  H    0.001897
    77  H    0.029246
    78  H    0.029667
    79  H    0.022969
    80  H    0.038735
    81  H    0.008123
    82  H    0.029227
    83  H    0.036598
    84  H    0.023093
    85  H    0.016032
    86  H    0.008458
    87  H    0.039618
    88  H    0.016270
    89  H    0.019559
    90  H    0.012189
    91  H    0.011673
    92  H   -0.006044
    93  H    0.010391
    94  H    0.022309
    95  H    0.015736
    96  H    0.045602
    97  H    0.038845
    98  H    0.032991
    99  H    0.018332
   100  H    0.007264
   101  H    0.032395
   102  H    0.050171
   103  H    0.028889
   104  H   -0.015674
   105  H    0.014595
   106  H    0.021407
   107  H    0.017398
   108  H    0.004662
   109  H   -0.003398
   110  H    0.011950
   111  H    0.003318
   112  H   -0.002527
   113  H   -0.009971
   114  H    0.005723
   115  H    0.019666
   116  H    0.014511
   117  H    0.000812
   118  H   -0.008784
   119  H   -0.007534
   120  H    0.002306
   121  H   -0.009231
   122  H   -0.002929
   123  H   -0.002215
   124  H   -0.002510
   125  H   -0.003459
   126  H    0.010132
   127  H   -0.000075
   128  H   -0.008012
   129  H   -0.011103
   130  H   -0.005506
   131  H   -0.002097
   132  H   -0.011097
   133  H   -0.002808
   134  H    0.010872
   135  H    0.003179
   136  H    0.006899
   137  H    0.004618
   138  H    0.005995
   139  H    0.011549
   140  H    0.010403
 Sum of Mulliken charges =  -0.00000

 Dipole moment (field-independent basis, Debye):
    X=              4.0547    Y=              3.9691    Z=             -5.0299  Tot=              7.5825
 Quadrupole moment (field-independent basis, Debye-Ang):
   XX=           -380.7430   YY=           -442.2154   ZZ=           -404.7970
   XY=            -12.9587   XZ=             14.1297   YZ=             11.3779

 Normal termination of Gaussian 16 at Tue May  3 23:16:44 2022.
