 Gaussian 16, Revision A.03,
 Gaussian 16:  ES64L-G16RevA.03 25-Dec-2016

 ---------------------------------
 #p PBE1PBE/Def2SVP td=(nstates=5)
 ---------------------------------

 -----------------------------------------------------
 step_1101_chromophore_3 TDDFT with PBE1PBE functional
 -----------------------------------------------------
 Symbolic Z-matrix:
 Charge =  0 Multiplicity = 1

                         Standard orientation:
 ---------------------------------------------------------------------
 Center     Atomic      Atomic             Coordinates (Angstroms)
 Number     Number       Type             X           Y           Z
 ---------------------------------------------------------------------
      1         12           0       -5.374848    0.750963   -0.331972
      2          6           0       -4.224472   -2.524371   -0.033622
      3          6           0       -2.343165    1.907850   -0.436336
      4          6           0       -6.707321    3.906584    0.270476
      5          6           0       -8.632305   -0.536792    0.380354
      6          7           0       -3.457071   -0.266091   -0.126324
      7          6           0       -3.196356   -1.590066   -0.276272
      8          6           0       -1.640091   -1.816479   -0.487746
      9          6           0       -1.098223   -0.453026   -0.426891
     10          6           0       -2.355208    0.501381   -0.253171
     11          6           0        0.067963   -0.178023    0.633307
     12          6           0       -1.368489   -2.684634   -1.793979
     13          6           0       -0.199978   -3.597937   -2.027203
     14          6           0        1.004251   -3.584584   -1.067345
     15          8           0        1.130622   -4.231785   -0.048028
     16          8           0        1.917328   -2.684185   -1.530811
     17          7           0       -4.609568    2.642127   -0.204329
     18          6           0       -3.306920    2.899708   -0.389087
     19          6           0       -3.120103    4.339695   -0.446132
     20          6           0       -4.393878    4.935997   -0.100262
     21          6           0       -5.324155    3.796626    0.002596
     22          6           0       -1.737610    5.006428   -0.670905
     23          6           0       -4.720601    6.415648   -0.001419
     24          8           0       -5.871994    6.853769    0.060852
     25          6           0       -3.683910    7.368076   -0.055962
     26          7           0       -7.345865    1.540283    0.205467
     27          6           0       -7.639055    2.889688    0.216258
     28          6           0       -9.148347    3.232726    0.369131
     29          6           0       -9.737162    1.767744    0.258993
     30          6           0       -8.516656    0.862147    0.269840
     31          6           0       -9.356242    4.122772    1.604622
     32          6           0      -10.650583    1.464486   -0.968729
     33          6           0      -12.117681    0.995890   -0.792562
     34          7           0       -6.295728   -1.125936    0.096957
     35          6           0       -7.585084   -1.464589    0.358374
     36          6           0       -7.693404   -2.908553    0.478532
     37          6           0       -6.332201   -3.371705    0.417748
     38          6           0       -5.559471   -2.247525    0.191663
     39          6           0       -8.922466   -3.721086    0.885063
     40          6           0       -5.480654   -4.579203    0.559216
     41          8           0       -5.634331   -5.729304    0.910261
     42          6           0       -4.026269   -3.982441    0.394863
     43          6           0       -3.237471   -4.237696    1.602676
     44          8           0       -3.491828   -3.770369    2.717623
     45          8           0       -2.166857   -5.122404    1.438397
     46          6           0       -1.181640   -5.144619    2.427560
     47          6           0        3.258288   -2.713297   -0.966845
     48          6           0        4.294397   -2.528432   -1.984209
     49          6           0        5.637253   -2.599485   -1.924931
     50          6           0        6.314519   -3.033449   -0.606692
     51          6           0        6.565112   -2.342213   -3.090627
     52          6           0        7.117727   -0.879493   -3.106633
     53          6           0        8.627740   -0.832839   -3.335225
     54          6           0        9.241129    0.066767   -2.247215
     55          6           0        9.391661   -0.553858   -0.873326
     56          6           0       10.708785    0.472202   -2.700646
     57          6           0       10.912392    2.030767   -2.399339
     58          6           0       12.383404    2.317676   -1.853326
     59          6           0       12.409590    2.634478   -0.274617
     60          6           0       12.917061    4.088174    0.040208
     61          6           0       12.992627    1.508371    0.577907
     62          6           0       12.026202    0.985671    1.636348
     63          6           0       12.110160    1.650856    3.094121
     64          6           0       11.976358    0.508950    4.189899
     65          6           0       11.129429    1.044842    5.361130
     66          6           0       13.394081    0.095564    4.776304
     67          1           0       -1.335186    2.284372   -0.624012
     68          1           0       -7.127897    4.914093    0.246074
     69          1           0       -9.641641   -0.953487    0.416140
     70          1           0       -1.381041   -2.318430    0.443914
     71          1           0       -0.718826   -0.253756   -1.429287
     72          1           0        0.958208   -0.045720    0.019029
     73          1           0        0.262924   -0.949664    1.377785
     74          1           0       -0.038511    0.719646    1.241783
     75          1           0       -1.510674   -2.061021   -2.675820
     76          1           0       -2.236975   -3.339076   -1.866536
     77          1           0        0.103723   -3.494306   -3.068741
     78          1           0       -0.535870   -4.608302   -1.794989
     79          1           0       -1.140400    4.217349   -1.125923
     80          1           0       -1.351593    5.495921    0.223490
     81          1           0       -1.871411    5.827908   -1.375276
     82          1           0       -3.953308    8.406290    0.138068
     83          1           0       -3.193636    7.291495   -1.026821
     84          1           0       -2.962443    7.088813    0.712463
     85          1           0       -9.251964    3.822708   -0.541424
     86          1           0      -10.252867    1.778282    1.219974
     87          1           0       -8.470475    4.393722    2.178159
     88          1           0      -10.104628    3.752885    2.305390
     89          1           0       -9.716709    5.047479    1.155021
     90          1           0      -10.253799    0.541890   -1.391376
     91          1           0      -10.585984    2.203949   -1.766710
     92          1           0      -12.416577    1.283396    0.215152
     93          1           0      -12.272890   -0.078443   -0.696318
     94          1           0      -12.895701    1.391663   -1.444821
     95          1           0       -9.892243   -3.266842    0.680744
     96          1           0       -8.829545   -3.824363    1.966646
     97          1           0       -8.774425   -4.686932    0.404611
     98          1           0       -3.788113   -4.513511   -0.527459
     99          1           0       -1.399866   -5.535549    3.421277
    100          1           0       -0.800814   -4.142388    2.623631
    101          1           0       -0.376628   -5.780514    2.060292
    102          1           0        3.428544   -3.584735   -0.335221
    103          1           0        3.455736   -1.797564   -0.408762
    104          1           0        3.938907   -2.290349   -2.987723
    105          1           0        5.600280   -3.315743    0.166831
    106          1           0        6.948424   -2.200396   -0.302577
    107          1           0        6.990319   -3.829858   -0.918100
    108          1           0        6.029680   -2.523918   -4.023259
    109          1           0        7.344986   -3.079241   -2.903288
    110          1           0        6.887082   -0.399748   -2.155897
    111          1           0        6.591614   -0.353174   -3.902730
    112          1           0        8.917815   -0.429683   -4.305719
    113          1           0        8.974755   -1.864972   -3.282994
    114          1           0        8.601587    0.949390   -2.217734
    115          1           0        8.936556    0.118139   -0.145711
    116          1           0       10.419772   -0.696116   -0.540245
    117          1           0        8.923004   -1.535099   -0.947585
    118          1           0       10.926393    0.294612   -3.754323
    119          1           0       11.408307   -0.199927   -2.204313
    120          1           0       10.101275    2.523588   -1.862975
    121          1           0       10.816289    2.553040   -3.351235
    122          1           0       12.777591    3.122076   -2.473954
    123          1           0       13.000893    1.419806   -1.905504
    124          1           0       11.357922    2.718992   -0.001035
    125          1           0       13.565654    3.965264    0.907856
    126          1           0       12.125134    4.822015    0.187148
    127          1           0       13.546937    4.602989   -0.685244
    128          1           0       13.892282    1.866400    1.078133
    129          1           0       13.281695    0.647410   -0.023758
    130          1           0       12.217260   -0.084520    1.715261
    131          1           0       10.990549    0.958840    1.299014
    132          1           0       11.288271    2.360351    3.200042
    133          1           0       12.962998    2.314072    3.238506
    134          1           0       11.511962   -0.398769    3.803233
    135          1           0       10.446376    1.810746    4.994678
    136          1           0       11.773595    1.453268    6.140233
    137          1           0       10.532230    0.264207    5.833051
    138          1           0       13.354896   -0.989201    4.874414
    139          1           0       13.627097    0.480135    5.769426
    140          1           0       14.197636    0.379885    4.097213
 ---------------------------------------------------------------------

 SCF Done:  E(RPBE1PBE) =  -3005.32410378     A.U. after   15 cycles

 Excitation energies and oscillator strengths:

 Excited State   1:      Singlet-A      1.8916 eV  655.44 nm  f=0.3588  <S**2>=0.000
     245 -> 248       -0.18394
     246 -> 247        0.68942
     246 <- 247       -0.10189
 This state for optimization and/or second-order correction.
 Total Energy, E(TD-HF/TD-DFT) =  -3005.25458790
 Copying the excited state density for this state as the 1-particle RhoCI density.

 Excited State   2:      Singlet-A      2.2631 eV  547.84 nm  f=0.1039  <S**2>=0.000
     245 -> 247        0.64533
     246 -> 248        0.27840

 Excited State   3:      Singlet-A      3.0592 eV  405.29 nm  f=0.0004  <S**2>=0.000
     240 -> 247       -0.13394
     241 -> 247        0.16563
     243 -> 247        0.65387

 Excited State   4:      Singlet-A      3.1267 eV  396.54 nm  f=0.0002  <S**2>=0.000
     240 -> 247        0.25275
     241 -> 249        0.11862
     242 -> 247        0.62456
     242 -> 249        0.10727

 Excited State   5:      Singlet-A      3.1661 eV  391.60 nm  f=0.0002  <S**2>=0.000
     240 -> 247       -0.20491
     240 -> 249        0.10396
     241 -> 247        0.60126
     242 -> 247        0.10039
     243 -> 247       -0.22249

 The electronic state is 1-A.
 Alpha  occ. eigenvalues --  -46.92512 -19.26486 -19.24360 -19.21125 -19.19753
 Alpha  occ. eigenvalues --  -19.19404 -19.18518 -14.41917 -14.41311 -14.39126
 Alpha  occ. eigenvalues --  -14.38408 -10.37241 -10.36072 -10.32611 -10.31608
 Alpha  occ. eigenvalues --  -10.29740 -10.29247 -10.29215 -10.28411 -10.28020
 Alpha  occ. eigenvalues --  -10.27833 -10.27449 -10.26966 -10.26722 -10.26574
 Alpha  occ. eigenvalues --  -10.26473 -10.26081 -10.25867 -10.25836 -10.25749
 Alpha  occ. eigenvalues --  -10.25682 -10.25605 -10.25513 -10.25381 -10.25369
 Alpha  occ. eigenvalues --  -10.25021 -10.24983 -10.24886 -10.24445 -10.24225
 Alpha  occ. eigenvalues --  -10.24042 -10.23979 -10.23810 -10.23724 -10.23600
 Alpha  occ. eigenvalues --  -10.23565 -10.23467 -10.23254 -10.23183 -10.23169
 Alpha  occ. eigenvalues --  -10.23157 -10.23082 -10.23050 -10.22997 -10.22938
 Alpha  occ. eigenvalues --  -10.22930 -10.22912 -10.22728 -10.22711 -10.22652
 Alpha  occ. eigenvalues --  -10.22473 -10.22321 -10.22309 -10.21970 -10.21847
 Alpha  occ. eigenvalues --  -10.21505  -3.14595  -1.87415  -1.86964  -1.86824
 Alpha  occ. eigenvalues --   -1.12244  -1.10074  -1.05370  -1.04190  -1.03952
 Alpha  occ. eigenvalues --   -1.01466  -0.99309  -0.98379  -0.98177  -0.97232
 Alpha  occ. eigenvalues --   -0.87253  -0.85298  -0.84453  -0.83520  -0.83021
 Alpha  occ. eigenvalues --   -0.82766  -0.82588  -0.81557  -0.81368  -0.80911
 Alpha  occ. eigenvalues --   -0.80603  -0.80207  -0.78882  -0.77995  -0.77707
 Alpha  occ. eigenvalues --   -0.77082  -0.76787  -0.75560  -0.75196  -0.74760
 Alpha  occ. eigenvalues --   -0.73663  -0.72564  -0.72310  -0.71667  -0.70361
 Alpha  occ. eigenvalues --   -0.70271  -0.69597  -0.69171  -0.68899  -0.68666
 Alpha  occ. eigenvalues --   -0.67874  -0.66962  -0.66181  -0.65429  -0.63551
 Alpha  occ. eigenvalues --   -0.63021  -0.62827  -0.61942  -0.61250  -0.60282
 Alpha  occ. eigenvalues --   -0.60009  -0.59752  -0.59229  -0.59165  -0.58795
 Alpha  occ. eigenvalues --   -0.58314  -0.57722  -0.57204  -0.56793  -0.54910
 Alpha  occ. eigenvalues --   -0.54371  -0.53937  -0.53611  -0.53323  -0.53118
 Alpha  occ. eigenvalues --   -0.52287  -0.51806  -0.51160  -0.50463  -0.50161
 Alpha  occ. eigenvalues --   -0.49792  -0.49318  -0.49058  -0.48559  -0.48236
 Alpha  occ. eigenvalues --   -0.47974  -0.47740  -0.47692  -0.47582  -0.47469
 Alpha  occ. eigenvalues --   -0.47065  -0.46717  -0.46618  -0.46422  -0.46403
 Alpha  occ. eigenvalues --   -0.45860  -0.45767  -0.45679  -0.45658  -0.45268
 Alpha  occ. eigenvalues --   -0.45068  -0.44934  -0.44867  -0.44499  -0.44392
 Alpha  occ. eigenvalues --   -0.43977  -0.43856  -0.43682  -0.43645  -0.43342
 Alpha  occ. eigenvalues --   -0.43251  -0.43187  -0.42865  -0.42696  -0.42562
 Alpha  occ. eigenvalues --   -0.42000  -0.41960  -0.41844  -0.41722  -0.41452
 Alpha  occ. eigenvalues --   -0.41256  -0.40681  -0.40597  -0.40386  -0.40334
 Alpha  occ. eigenvalues --   -0.40192  -0.40009  -0.39992  -0.39616  -0.39513
 Alpha  occ. eigenvalues --   -0.39351  -0.39309  -0.39258  -0.39103  -0.38787
 Alpha  occ. eigenvalues --   -0.38589  -0.38370  -0.38184  -0.37987  -0.37902
 Alpha  occ. eigenvalues --   -0.37717  -0.37548  -0.37404  -0.37118  -0.37089
 Alpha  occ. eigenvalues --   -0.36803  -0.36727  -0.36339  -0.36245  -0.35940
 Alpha  occ. eigenvalues --   -0.35841  -0.35345  -0.35308  -0.34849  -0.34781
 Alpha  occ. eigenvalues --   -0.34699  -0.34381  -0.34039  -0.33904  -0.33786
 Alpha  occ. eigenvalues --   -0.33620  -0.33161  -0.33070  -0.32977  -0.32469
 Alpha  occ. eigenvalues --   -0.32126  -0.31946  -0.31885  -0.31745  -0.31508
 Alpha  occ. eigenvalues --   -0.30880  -0.29895  -0.29882  -0.29451  -0.29436
 Alpha  occ. eigenvalues --   -0.29104  -0.28396  -0.28290  -0.26730  -0.25942
 Alpha  occ. eigenvalues --   -0.25798  -0.25448  -0.25053  -0.24677  -0.20863
 Alpha  occ. eigenvalues --   -0.18707
 Alpha virt. eigenvalues --   -0.10906  -0.05182  -0.03915  -0.01912  -0.01324
 Alpha virt. eigenvalues --   -0.00224  -0.00118   0.01461   0.01827   0.03246
 Alpha virt. eigenvalues --    0.04412   0.05029   0.05037   0.05342   0.05496

 Mulliken charges:
               1
     1  Mg   0.967014
     2  C   -0.094934
     3  C   -0.080472
     4  C   -0.048170
     5  C   -0.076576
     6  N   -0.385034
     7  C   -0.033615
     8  C   -0.037443
     9  C   -0.108462
    10  C    0.076549
    11  C   -0.005361
    12  C    0.016823
    13  C    0.036987
    14  C    0.197875
    15  O   -0.250519
    16  O   -0.363576
    17  N   -0.507759
    18  C    0.181763
    19  C   -0.178842
    20  C   -0.109738
    21  C    0.157466
    22  C    0.064654
    23  C    0.062498
    24  O   -0.256785
    25  C   -0.002653
    26  N   -0.369373
    27  C    0.021582
    28  C   -0.122938
    29  C   -0.050911
    30  C    0.060806
    31  C    0.014738
    32  C   -0.011947
    33  C   -0.078985
    34  N   -0.437613
    35  C    0.147746
    36  C   -0.201409
    37  C   -0.083729
    38  C    0.222413
    39  C    0.057457
    40  C    0.141302
    41  O   -0.191865
    42  C   -0.109012
    43  C    0.330863
    44  O   -0.257791
    45  O   -0.354094
    46  C    0.140889
    47  C    0.266647
    48  C   -0.153044
    49  C   -0.279457
    50  C    0.014513
    51  C    0.032379
    52  C   -0.036504
    53  C    0.009778
    54  C   -0.285613
    55  C    0.014786
    56  C    0.000010
    57  C   -0.067082
    58  C    0.003285
    59  C   -0.201447
    60  C   -0.021225
    61  C    0.020859
    62  C   -0.094427
    63  C    0.008830
    64  C   -0.249606
    65  C   -0.019848
    66  C   -0.024759
    67  H   -0.004285
    68  H    0.033984
    69  H   -0.000233
    70  H    0.063824
    71  H    0.044487
    72  H    0.044726
    73  H    0.051375
    74  H    0.045513
    75  H    0.029098
    76  H    0.037745
    77  H    0.060132
    78  H    0.061846
    79  H    0.050668
    80  H    0.065880
    81  H    0.037709
    82  H    0.056778
    83  H    0.064003
    84  H    0.051164
    85  H    0.053636
    86  H    0.045921
    87  H    0.066684
    88  H    0.043794
    89  H    0.047210
    90  H    0.046974
    91  H    0.043406
    92  H    0.022593
    93  H    0.036887
    94  H    0.049790
    95  H    0.041800
    96  H    0.074063
    97  H    0.066635
    98  H    0.071665
    99  H    0.041024
   100  H    0.029507
   101  H    0.054685
   102  H    0.074097
   103  H    0.056599
   104  H    0.015809
   105  H    0.041937
   106  H    0.051547
   107  H    0.045166
   108  H    0.036803
   109  H    0.028540
   110  H    0.044978
   111  H    0.036569
   112  H    0.030569
   113  H    0.022741
   114  H    0.043594
   115  H    0.045674
   116  H    0.043310
   117  H    0.031083
   118  H    0.022683
   119  H    0.023514
   120  H    0.031295
   121  H    0.024452
   122  H    0.028769
   123  H    0.030034
   124  H    0.037141
   125  H    0.023875
   126  H    0.036635
   127  H    0.026622
   128  H    0.024599
   129  H    0.020564
   130  H    0.026868
   131  H    0.033750
   132  H    0.021198
   133  H    0.027353
   134  H    0.046495
   135  H    0.030529
   136  H    0.033991
   137  H    0.032793
   138  H    0.033947
   139  H    0.037528
   140  H    0.037763
 Sum of Mulliken charges =  -0.00000

 Dipole moment (field-independent basis, Debye):
    X=              3.9420    Y=              3.9710    Z=             -5.0131  Tot=              7.5126
 Quadrupole moment (field-independent basis, Debye-Ang):
   XX=           -374.0486   YY=           -439.7363   ZZ=           -402.2067
   XY=            -13.1284   XZ=             13.8329   YZ=             11.1653

 Normal termination of Gaussian 16 at Tue May  3 23:32:36 2022.
