 Gaussian 16, Revision A.03,
 Gaussian 16:  ES64L-G16RevA.03 25-Dec-2016

 --------------------------------
 #p wB97XD/Def2SVP td=(nstates=5)
 --------------------------------

 ----------------------------------------------------
 step_1101_chromophore_3 TDDFT with wB97XD functional
 ----------------------------------------------------
 Symbolic Z-matrix:
 Charge =  0 Multiplicity = 1

                         Standard orientation:
 ---------------------------------------------------------------------
 Center     Atomic      Atomic             Coordinates (Angstroms)
 Number     Number       Type             X           Y           Z
 ---------------------------------------------------------------------
      1         12           0       -5.374848    0.750963   -0.331972
      2          6           0       -4.224472   -2.524371   -0.033622
      3          6           0       -2.343165    1.907850   -0.436336
      4          6           0       -6.707321    3.906584    0.270476
      5          6           0       -8.632305   -0.536792    0.380354
      6          7           0       -3.457071   -0.266091   -0.126324
      7          6           0       -3.196356   -1.590066   -0.276272
      8          6           0       -1.640091   -1.816479   -0.487746
      9          6           0       -1.098223   -0.453026   -0.426891
     10          6           0       -2.355208    0.501381   -0.253171
     11          6           0        0.067963   -0.178023    0.633307
     12          6           0       -1.368489   -2.684634   -1.793979
     13          6           0       -0.199978   -3.597937   -2.027203
     14          6           0        1.004251   -3.584584   -1.067345
     15          8           0        1.130622   -4.231785   -0.048028
     16          8           0        1.917328   -2.684185   -1.530811
     17          7           0       -4.609568    2.642127   -0.204329
     18          6           0       -3.306920    2.899708   -0.389087
     19          6           0       -3.120103    4.339695   -0.446132
     20          6           0       -4.393878    4.935997   -0.100262
     21          6           0       -5.324155    3.796626    0.002596
     22          6           0       -1.737610    5.006428   -0.670905
     23          6           0       -4.720601    6.415648   -0.001419
     24          8           0       -5.871994    6.853769    0.060852
     25          6           0       -3.683910    7.368076   -0.055962
     26          7           0       -7.345865    1.540283    0.205467
     27          6           0       -7.639055    2.889688    0.216258
     28          6           0       -9.148347    3.232726    0.369131
     29          6           0       -9.737162    1.767744    0.258993
     30          6           0       -8.516656    0.862147    0.269840
     31          6           0       -9.356242    4.122772    1.604622
     32          6           0      -10.650583    1.464486   -0.968729
     33          6           0      -12.117681    0.995890   -0.792562
     34          7           0       -6.295728   -1.125936    0.096957
     35          6           0       -7.585084   -1.464589    0.358374
     36          6           0       -7.693404   -2.908553    0.478532
     37          6           0       -6.332201   -3.371705    0.417748
     38          6           0       -5.559471   -2.247525    0.191663
     39          6           0       -8.922466   -3.721086    0.885063
     40          6           0       -5.480654   -4.579203    0.559216
     41          8           0       -5.634331   -5.729304    0.910261
     42          6           0       -4.026269   -3.982441    0.394863
     43          6           0       -3.237471   -4.237696    1.602676
     44          8           0       -3.491828   -3.770369    2.717623
     45          8           0       -2.166857   -5.122404    1.438397
     46          6           0       -1.181640   -5.144619    2.427560
     47          6           0        3.258288   -2.713297   -0.966845
     48          6           0        4.294397   -2.528432   -1.984209
     49          6           0        5.637253   -2.599485   -1.924931
     50          6           0        6.314519   -3.033449   -0.606692
     51          6           0        6.565112   -2.342213   -3.090627
     52          6           0        7.117727   -0.879493   -3.106633
     53          6           0        8.627740   -0.832839   -3.335225
     54          6           0        9.241129    0.066767   -2.247215
     55          6           0        9.391661   -0.553858   -0.873326
     56          6           0       10.708785    0.472202   -2.700646
     57          6           0       10.912392    2.030767   -2.399339
     58          6           0       12.383404    2.317676   -1.853326
     59          6           0       12.409590    2.634478   -0.274617
     60          6           0       12.917061    4.088174    0.040208
     61          6           0       12.992627    1.508371    0.577907
     62          6           0       12.026202    0.985671    1.636348
     63          6           0       12.110160    1.650856    3.094121
     64          6           0       11.976358    0.508950    4.189899
     65          6           0       11.129429    1.044842    5.361130
     66          6           0       13.394081    0.095564    4.776304
     67          1           0       -1.335186    2.284372   -0.624012
     68          1           0       -7.127897    4.914093    0.246074
     69          1           0       -9.641641   -0.953487    0.416140
     70          1           0       -1.381041   -2.318430    0.443914
     71          1           0       -0.718826   -0.253756   -1.429287
     72          1           0        0.958208   -0.045720    0.019029
     73          1           0        0.262924   -0.949664    1.377785
     74          1           0       -0.038511    0.719646    1.241783
     75          1           0       -1.510674   -2.061021   -2.675820
     76          1           0       -2.236975   -3.339076   -1.866536
     77          1           0        0.103723   -3.494306   -3.068741
     78          1           0       -0.535870   -4.608302   -1.794989
     79          1           0       -1.140400    4.217349   -1.125923
     80          1           0       -1.351593    5.495921    0.223490
     81          1           0       -1.871411    5.827908   -1.375276
     82          1           0       -3.953308    8.406290    0.138068
     83          1           0       -3.193636    7.291495   -1.026821
     84          1           0       -2.962443    7.088813    0.712463
     85          1           0       -9.251964    3.822708   -0.541424
     86          1           0      -10.252867    1.778282    1.219974
     87          1           0       -8.470475    4.393722    2.178159
     88          1           0      -10.104628    3.752885    2.305390
     89          1           0       -9.716709    5.047479    1.155021
     90          1           0      -10.253799    0.541890   -1.391376
     91          1           0      -10.585984    2.203949   -1.766710
     92          1           0      -12.416577    1.283396    0.215152
     93          1           0      -12.272890   -0.078443   -0.696318
     94          1           0      -12.895701    1.391663   -1.444821
     95          1           0       -9.892243   -3.266842    0.680744
     96          1           0       -8.829545   -3.824363    1.966646
     97          1           0       -8.774425   -4.686932    0.404611
     98          1           0       -3.788113   -4.513511   -0.527459
     99          1           0       -1.399866   -5.535549    3.421277
    100          1           0       -0.800814   -4.142388    2.623631
    101          1           0       -0.376628   -5.780514    2.060292
    102          1           0        3.428544   -3.584735   -0.335221
    103          1           0        3.455736   -1.797564   -0.408762
    104          1           0        3.938907   -2.290349   -2.987723
    105          1           0        5.600280   -3.315743    0.166831
    106          1           0        6.948424   -2.200396   -0.302577
    107          1           0        6.990319   -3.829858   -0.918100
    108          1           0        6.029680   -2.523918   -4.023259
    109          1           0        7.344986   -3.079241   -2.903288
    110          1           0        6.887082   -0.399748   -2.155897
    111          1           0        6.591614   -0.353174   -3.902730
    112          1           0        8.917815   -0.429683   -4.305719
    113          1           0        8.974755   -1.864972   -3.282994
    114          1           0        8.601587    0.949390   -2.217734
    115          1           0        8.936556    0.118139   -0.145711
    116          1           0       10.419772   -0.696116   -0.540245
    117          1           0        8.923004   -1.535099   -0.947585
    118          1           0       10.926393    0.294612   -3.754323
    119          1           0       11.408307   -0.199927   -2.204313
    120          1           0       10.101275    2.523588   -1.862975
    121          1           0       10.816289    2.553040   -3.351235
    122          1           0       12.777591    3.122076   -2.473954
    123          1           0       13.000893    1.419806   -1.905504
    124          1           0       11.357922    2.718992   -0.001035
    125          1           0       13.565654    3.965264    0.907856
    126          1           0       12.125134    4.822015    0.187148
    127          1           0       13.546937    4.602989   -0.685244
    128          1           0       13.892282    1.866400    1.078133
    129          1           0       13.281695    0.647410   -0.023758
    130          1           0       12.217260   -0.084520    1.715261
    131          1           0       10.990549    0.958840    1.299014
    132          1           0       11.288271    2.360351    3.200042
    133          1           0       12.962998    2.314072    3.238506
    134          1           0       11.511962   -0.398769    3.803233
    135          1           0       10.446376    1.810746    4.994678
    136          1           0       11.773595    1.453268    6.140233
    137          1           0       10.532230    0.264207    5.833051
    138          1           0       13.354896   -0.989201    4.874414
    139          1           0       13.627097    0.480135    5.769426
    140          1           0       14.197636    0.379885    4.097213
 ---------------------------------------------------------------------

 SCF Done:  E(RwB97XD) =  -3007.83329868     A.U. after   19 cycles

 Excitation energies and oscillator strengths:

 Excited State   1:      Singlet-A      1.6783 eV  738.76 nm  f=0.3695  <S**2>=0.000
     245 -> 248       -0.19663
     246 -> 247        0.68021
     245 <- 248       -0.11955
 This state for optimization and/or second-order correction.
 Total Energy, E(TD-HF/TD-DFT) =  -3007.77162353
 Copying the excited state density for this state as the 1-particle RhoCI density.

 Excited State   2:      Singlet-A      2.2019 eV  563.09 nm  f=0.1003  <S**2>=0.000
     245 -> 247        0.63078
     246 -> 248        0.30647

 Excited State   3:      Singlet-A      3.4285 eV  361.63 nm  f=0.0165  <S**2>=0.000
     243 -> 247        0.65791
     246 -> 248       -0.16968

 Excited State   4:      Singlet-A      3.5437 eV  349.87 nm  f=0.4481  <S**2>=0.000
     242 -> 247       -0.39391
     243 -> 247        0.12010
     245 -> 247       -0.22220
     246 -> 248        0.50738

 Excited State   5:      Singlet-A      3.6496 eV  339.72 nm  f=0.0924  <S**2>=0.000
     240 -> 247        0.33520
     240 -> 249       -0.19812
     240 -> 250       -0.11720
     241 -> 247        0.39417
     241 -> 249       -0.21056
     241 -> 250       -0.11978
     242 -> 247        0.13921
     245 -> 247       -0.10035
     246 -> 248        0.18511

 The electronic state is 1-A.
 Alpha  occ. eigenvalues --  -46.95462 -19.31032 -19.28964 -19.25778 -19.24614
 Alpha  occ. eigenvalues --  -19.24170 -19.23325 -14.47063 -14.46317 -14.44075
 Alpha  occ. eigenvalues --  -14.43333 -10.44018 -10.42966 -10.39508 -10.38460
 Alpha  occ. eigenvalues --  -10.36231 -10.35542 -10.35467 -10.34663 -10.34422
 Alpha  occ. eigenvalues --  -10.34112 -10.33808 -10.33267 -10.33234 -10.33092
 Alpha  occ. eigenvalues --  -10.32763 -10.32352 -10.32253 -10.32140 -10.32065
 Alpha  occ. eigenvalues --  -10.31992 -10.31965 -10.31939 -10.31796 -10.31573
 Alpha  occ. eigenvalues --  -10.31562 -10.31393 -10.31376 -10.30780 -10.30501
 Alpha  occ. eigenvalues --  -10.30348 -10.30245 -10.30202 -10.30109 -10.30027
 Alpha  occ. eigenvalues --  -10.30020 -10.29740 -10.29584 -10.29544 -10.29535
 Alpha  occ. eigenvalues --  -10.29516 -10.29493 -10.29407 -10.29384 -10.29344
 Alpha  occ. eigenvalues --  -10.29290 -10.29272 -10.29081 -10.29057 -10.29029
 Alpha  occ. eigenvalues --  -10.28843 -10.28787 -10.28687 -10.28386 -10.28281
 Alpha  occ. eigenvalues --  -10.27930  -3.21410  -1.94979  -1.94525  -1.94386
 Alpha  occ. eigenvalues --   -1.19607  -1.17503  -1.12888  -1.11684  -1.11278
 Alpha  occ. eigenvalues --   -1.08883  -1.06695  -1.05734  -1.05554  -1.04584
 Alpha  occ. eigenvalues --   -0.94890  -0.92978  -0.92102  -0.91190  -0.90616
 Alpha  occ. eigenvalues --   -0.90441  -0.90121  -0.89223  -0.89066  -0.88582
 Alpha  occ. eigenvalues --   -0.88239  -0.87813  -0.86542  -0.85598  -0.85376
 Alpha  occ. eigenvalues --   -0.84771  -0.84449  -0.83205  -0.82834  -0.82354
 Alpha  occ. eigenvalues --   -0.81348  -0.80229  -0.79972  -0.79260  -0.78056
 Alpha  occ. eigenvalues --   -0.77886  -0.77164  -0.76874  -0.76588  -0.76318
 Alpha  occ. eigenvalues --   -0.75524  -0.74486  -0.73716  -0.73031  -0.71095
 Alpha  occ. eigenvalues --   -0.70648  -0.70391  -0.69506  -0.68880  -0.67812
 Alpha  occ. eigenvalues --   -0.67492  -0.67405  -0.66640  -0.66601  -0.66301
 Alpha  occ. eigenvalues --   -0.65957  -0.65372  -0.64866  -0.64229  -0.62373
 Alpha  occ. eigenvalues --   -0.61841  -0.61461  -0.61083  -0.60712  -0.60448
 Alpha  occ. eigenvalues --   -0.59705  -0.59256  -0.58570  -0.57938  -0.57589
 Alpha  occ. eigenvalues --   -0.57179  -0.56748  -0.56444  -0.55968  -0.55606
 Alpha  occ. eigenvalues --   -0.55415  -0.55281  -0.55145  -0.54996  -0.54809
 Alpha  occ. eigenvalues --   -0.54429  -0.54089  -0.53996  -0.53789  -0.53679
 Alpha  occ. eigenvalues --   -0.53228  -0.53165  -0.53051  -0.53037  -0.52630
 Alpha  occ. eigenvalues --   -0.52427  -0.52285  -0.52220  -0.51902  -0.51754
 Alpha  occ. eigenvalues --   -0.51310  -0.51184  -0.51028  -0.50960  -0.50636
 Alpha  occ. eigenvalues --   -0.50580  -0.50502  -0.50158  -0.49881  -0.49828
 Alpha  occ. eigenvalues --   -0.49313  -0.49207  -0.49090  -0.48975  -0.48677
 Alpha  occ. eigenvalues --   -0.48488  -0.47845  -0.47789  -0.47549  -0.47501
 Alpha  occ. eigenvalues --   -0.47416  -0.47235  -0.47116  -0.46817  -0.46721
 Alpha  occ. eigenvalues --   -0.46536  -0.46506  -0.46376  -0.46284  -0.45922
 Alpha  occ. eigenvalues --   -0.45738  -0.45549  -0.45340  -0.45104  -0.45000
 Alpha  occ. eigenvalues --   -0.44849  -0.44661  -0.44501  -0.44237  -0.44204
 Alpha  occ. eigenvalues --   -0.43891  -0.43761  -0.43440  -0.43353  -0.43065
 Alpha  occ. eigenvalues --   -0.42972  -0.42532  -0.42445  -0.41893  -0.41847
 Alpha  occ. eigenvalues --   -0.41675  -0.41319  -0.40969  -0.40929  -0.40890
 Alpha  occ. eigenvalues --   -0.40668  -0.40157  -0.40091  -0.40021  -0.39398
 Alpha  occ. eigenvalues --   -0.39178  -0.38971  -0.38907  -0.38634  -0.38549
 Alpha  occ. eigenvalues --   -0.37888  -0.36999  -0.36934  -0.36339  -0.36218
 Alpha  occ. eigenvalues --   -0.35840  -0.35450  -0.35237  -0.33288  -0.32962
 Alpha  occ. eigenvalues --   -0.32886  -0.32236  -0.31608  -0.31407  -0.25828
 Alpha  occ. eigenvalues --   -0.22889
 Alpha virt. eigenvalues --   -0.06750   0.00189   0.02374   0.04530   0.04670
 Alpha virt. eigenvalues --    0.06529   0.06713   0.08199   0.08519   0.09906
 Alpha virt. eigenvalues --    0.11117   0.11587   0.11623   0.11997   0.12142

 Mulliken charges:
               1
     1  Mg   0.959380
     2  C   -0.098580
     3  C   -0.091036
     4  C   -0.071745
     5  C   -0.099205
     6  N   -0.349833
     7  C   -0.063540
     8  C   -0.003847
     9  C   -0.085524
    10  C    0.056525
    11  C    0.004919
    12  C    0.028387
    13  C    0.056148
    14  C    0.181356
    15  O   -0.247176
    16  O   -0.361485
    17  N   -0.472494
    18  C    0.174230
    19  C   -0.175012
    20  C   -0.103303
    21  C    0.152018
    22  C    0.080864
    23  C    0.061287
    24  O   -0.250587
    25  C    0.009784
    26  N   -0.339906
    27  C    0.014575
    28  C   -0.102678
    29  C   -0.026514
    30  C    0.056998
    31  C    0.025302
    32  C    0.002147
    33  C   -0.062802
    34  N   -0.399635
    35  C    0.143269
    36  C   -0.202133
    37  C   -0.082854
    38  C    0.207132
    39  C    0.071210
    40  C    0.125964
    41  O   -0.182480
    42  C   -0.070926
    43  C    0.307695
    44  O   -0.251636
    45  O   -0.351261
    46  C    0.153795
    47  C    0.280424
    48  C   -0.164176
    49  C   -0.262583
    50  C    0.032200
    51  C    0.052604
    52  C   -0.021716
    53  C    0.024700
    54  C   -0.250582
    55  C    0.030537
    56  C    0.015672
    57  C   -0.051864
    58  C    0.020419
    59  C   -0.174724
    60  C   -0.007412
    61  C    0.037484
    62  C   -0.068477
    63  C    0.019796
    64  C   -0.220598
    65  C   -0.005532
    66  C   -0.013660
    67  H   -0.012461
    68  H    0.028162
    69  H   -0.008483
    70  H    0.043325
    71  H    0.033487
    72  H    0.039101
    73  H    0.046880
    74  H    0.040099
    75  H    0.022674
    76  H    0.024649
    77  H    0.056565
    78  H    0.056498
    79  H    0.045704
    80  H    0.061545
    81  H    0.030662
    82  H    0.056505
    83  H    0.057203
    84  H    0.043710
    85  H    0.042556
    86  H    0.033648
    87  H    0.060674
    88  H    0.038773
    89  H    0.041662
    90  H    0.035409
    91  H    0.037556
    92  H    0.014383
    93  H    0.030897
    94  H    0.045221
    95  H    0.037167
    96  H    0.068450
    97  H    0.061685
    98  H    0.064016
    99  H    0.037360
   100  H    0.024643
   101  H    0.052690
   102  H    0.069313
   103  H    0.050648
   104  H    0.011946
   105  H    0.037479
   106  H    0.040312
   107  H    0.039107
   108  H    0.031237
   109  H    0.017023
   110  H    0.031600
   111  H    0.030697
   112  H    0.022870
   113  H    0.012342
   114  H    0.029295
   115  H    0.040900
   116  H    0.033455
   117  H    0.017885
   118  H    0.015235
   119  H    0.012003
   120  H    0.022565
   121  H    0.017044
   122  H    0.022124
   123  H    0.018547
   124  H    0.019011
   125  H    0.015556
   126  H    0.031829
   127  H    0.020758
   128  H    0.014517
   129  H    0.012015
   130  H    0.016931
   131  H    0.018130
   132  H    0.011931
   133  H    0.019169
   134  H    0.036372
   135  H    0.023508
   136  H    0.026514
   137  H    0.027559
   138  H    0.028164
   139  H    0.031452
   140  H    0.031034
 Sum of Mulliken charges =  -0.00000

 Dipole moment (field-independent basis, Debye):
    X=              4.1266    Y=              4.0408    Z=             -5.0824  Tot=              7.6933
 Quadrupole moment (field-independent basis, Debye-Ang):
   XX=           -375.9331   YY=           -438.1823   ZZ=           -401.7329
   XY=            -12.6705   XZ=             14.3266   YZ=             11.2089

 Normal termination of Gaussian 16 at Wed May  4 00:00:57 2022.
