 Gaussian 16, Revision A.03,
 Gaussian 16:  ES64L-G16RevA.03 25-Dec-2016

 --------------------
 #p ZINDO=(nstates=5)
 --------------------

 -----------------------------
 step_1101_chromophore_3 ZINDO
 -----------------------------
 Symbolic Z-matrix:
 Charge =  0 Multiplicity = 1

                         Standard orientation:
 ---------------------------------------------------------------------
 Center     Atomic      Atomic             Coordinates (Angstroms)
 Number     Number       Type             X           Y           Z
 ---------------------------------------------------------------------
      1         12           0       -5.374848    0.750963   -0.331972
      2          6           0       -4.224472   -2.524371   -0.033622
      3          6           0       -2.343165    1.907850   -0.436336
      4          6           0       -6.707321    3.906584    0.270476
      5          6           0       -8.632305   -0.536792    0.380354
      6          7           0       -3.457071   -0.266091   -0.126324
      7          6           0       -3.196356   -1.590066   -0.276272
      8          6           0       -1.640091   -1.816479   -0.487746
      9          6           0       -1.098223   -0.453026   -0.426891
     10          6           0       -2.355208    0.501381   -0.253171
     11          6           0        0.067963   -0.178023    0.633307
     12          6           0       -1.368489   -2.684634   -1.793979
     13          6           0       -0.199978   -3.597937   -2.027203
     14          6           0        1.004251   -3.584584   -1.067345
     15          8           0        1.130622   -4.231785   -0.048028
     16          8           0        1.917328   -2.684185   -1.530811
     17          7           0       -4.609568    2.642127   -0.204329
     18          6           0       -3.306920    2.899708   -0.389087
     19          6           0       -3.120103    4.339695   -0.446132
     20          6           0       -4.393878    4.935997   -0.100262
     21          6           0       -5.324155    3.796626    0.002596
     22          6           0       -1.737610    5.006428   -0.670905
     23          6           0       -4.720601    6.415648   -0.001419
     24          8           0       -5.871994    6.853769    0.060852
     25          6           0       -3.683910    7.368076   -0.055962
     26          7           0       -7.345865    1.540283    0.205467
     27          6           0       -7.639055    2.889688    0.216258
     28          6           0       -9.148347    3.232726    0.369131
     29          6           0       -9.737162    1.767744    0.258993
     30          6           0       -8.516656    0.862147    0.269840
     31          6           0       -9.356242    4.122772    1.604622
     32          6           0      -10.650583    1.464486   -0.968729
     33          6           0      -12.117681    0.995890   -0.792562
     34          7           0       -6.295728   -1.125936    0.096957
     35          6           0       -7.585084   -1.464589    0.358374
     36          6           0       -7.693404   -2.908553    0.478532
     37          6           0       -6.332201   -3.371705    0.417748
     38          6           0       -5.559471   -2.247525    0.191663
     39          6           0       -8.922466   -3.721086    0.885063
     40          6           0       -5.480654   -4.579203    0.559216
     41          8           0       -5.634331   -5.729304    0.910261
     42          6           0       -4.026269   -3.982441    0.394863
     43          6           0       -3.237471   -4.237696    1.602676
     44          8           0       -3.491828   -3.770369    2.717623
     45          8           0       -2.166857   -5.122404    1.438397
     46          6           0       -1.181640   -5.144619    2.427560
     47          6           0        3.258288   -2.713297   -0.966845
     48          6           0        4.294397   -2.528432   -1.984209
     49          6           0        5.637253   -2.599485   -1.924931
     50          6           0        6.314519   -3.033449   -0.606692
     51          6           0        6.565112   -2.342213   -3.090627
     52          6           0        7.117727   -0.879493   -3.106633
     53          6           0        8.627740   -0.832839   -3.335225
     54          6           0        9.241129    0.066767   -2.247215
     55          6           0        9.391661   -0.553858   -0.873326
     56          6           0       10.708785    0.472202   -2.700646
     57          6           0       10.912392    2.030767   -2.399339
     58          6           0       12.383404    2.317676   -1.853326
     59          6           0       12.409590    2.634478   -0.274617
     60          6           0       12.917061    4.088174    0.040208
     61          6           0       12.992627    1.508371    0.577907
     62          6           0       12.026202    0.985671    1.636348
     63          6           0       12.110160    1.650856    3.094121
     64          6           0       11.976358    0.508950    4.189899
     65          6           0       11.129429    1.044842    5.361130
     66          6           0       13.394081    0.095564    4.776304
     67          1           0       -1.335186    2.284372   -0.624012
     68          1           0       -7.127897    4.914093    0.246074
     69          1           0       -9.641641   -0.953487    0.416140
     70          1           0       -1.381041   -2.318430    0.443914
     71          1           0       -0.718826   -0.253756   -1.429287
     72          1           0        0.958208   -0.045720    0.019029
     73          1           0        0.262924   -0.949664    1.377785
     74          1           0       -0.038511    0.719646    1.241783
     75          1           0       -1.510674   -2.061021   -2.675820
     76          1           0       -2.236975   -3.339076   -1.866536
     77          1           0        0.103723   -3.494306   -3.068741
     78          1           0       -0.535870   -4.608302   -1.794989
     79          1           0       -1.140400    4.217349   -1.125923
     80          1           0       -1.351593    5.495921    0.223490
     81          1           0       -1.871411    5.827908   -1.375276
     82          1           0       -3.953308    8.406290    0.138068
     83          1           0       -3.193636    7.291495   -1.026821
     84          1           0       -2.962443    7.088813    0.712463
     85          1           0       -9.251964    3.822708   -0.541424
     86          1           0      -10.252867    1.778282    1.219974
     87          1           0       -8.470475    4.393722    2.178159
     88          1           0      -10.104628    3.752885    2.305390
     89          1           0       -9.716709    5.047479    1.155021
     90          1           0      -10.253799    0.541890   -1.391376
     91          1           0      -10.585984    2.203949   -1.766710
     92          1           0      -12.416577    1.283396    0.215152
     93          1           0      -12.272890   -0.078443   -0.696318
     94          1           0      -12.895701    1.391663   -1.444821
     95          1           0       -9.892243   -3.266842    0.680744
     96          1           0       -8.829545   -3.824363    1.966646
     97          1           0       -8.774425   -4.686932    0.404611
     98          1           0       -3.788113   -4.513511   -0.527459
     99          1           0       -1.399866   -5.535549    3.421277
    100          1           0       -0.800814   -4.142388    2.623631
    101          1           0       -0.376628   -5.780514    2.060292
    102          1           0        3.428544   -3.584735   -0.335221
    103          1           0        3.455736   -1.797564   -0.408762
    104          1           0        3.938907   -2.290349   -2.987723
    105          1           0        5.600280   -3.315743    0.166831
    106          1           0        6.948424   -2.200396   -0.302577
    107          1           0        6.990319   -3.829858   -0.918100
    108          1           0        6.029680   -2.523918   -4.023259
    109          1           0        7.344986   -3.079241   -2.903288
    110          1           0        6.887082   -0.399748   -2.155897
    111          1           0        6.591614   -0.353174   -3.902730
    112          1           0        8.917815   -0.429683   -4.305719
    113          1           0        8.974755   -1.864972   -3.282994
    114          1           0        8.601587    0.949390   -2.217734
    115          1           0        8.936556    0.118139   -0.145711
    116          1           0       10.419772   -0.696116   -0.540245
    117          1           0        8.923004   -1.535099   -0.947585
    118          1           0       10.926393    0.294612   -3.754323
    119          1           0       11.408307   -0.199927   -2.204313
    120          1           0       10.101275    2.523588   -1.862975
    121          1           0       10.816289    2.553040   -3.351235
    122          1           0       12.777591    3.122076   -2.473954
    123          1           0       13.000893    1.419806   -1.905504
    124          1           0       11.357922    2.718992   -0.001035
    125          1           0       13.565654    3.965264    0.907856
    126          1           0       12.125134    4.822015    0.187148
    127          1           0       13.546937    4.602989   -0.685244
    128          1           0       13.892282    1.866400    1.078133
    129          1           0       13.281695    0.647410   -0.023758
    130          1           0       12.217260   -0.084520    1.715261
    131          1           0       10.990549    0.958840    1.299014
    132          1           0       11.288271    2.360351    3.200042
    133          1           0       12.962998    2.314072    3.238506
    134          1           0       11.511962   -0.398769    3.803233
    135          1           0       10.446376    1.810746    4.994678
    136          1           0       11.773595    1.453268    6.140233
    137          1           0       10.532230    0.264207    5.833051
    138          1           0       13.354896   -0.989201    4.874414
    139          1           0       13.627097    0.480135    5.769426
    140          1           0       14.197636    0.379885    4.097213
 ---------------------------------------------------------------------

 SCF Done:  E(RZINDO/S) =  -474.319740855     A.U. after   20 cycles

 Excitation energies and oscillator strengths:

 Excited State   1:      Singlet-A      1.2546 eV  988.20 nm  f=0.5729  <S**2>=0.000
     175 ->178        -0.20264
     176 ->177         0.65878
 This state for optimization and/or second-order correction.
 Total Energy, E(CIS/TDA) =  -474.273633429
 Copying the excited state density for this state as the 1-particle RhoCI density.

 Excited State   2:      Singlet-A      1.8940 eV  654.61 nm  f=0.0300  <S**2>=0.000
     175 ->177         0.53693
     176 ->178         0.43371

 Excited State   3:      Singlet-A      2.9321 eV  422.85 nm  f=0.4009  <S**2>=0.000
     169 ->177        -0.14662
     169 ->179         0.17586
     169 ->181        -0.12487
     169 ->185         0.10535
     170 ->177        -0.10139
     170 ->181        -0.10856
     175 ->177        -0.23290
     176 ->178         0.33990
     176 ->179         0.33385

 Excited State   4:      Singlet-A      2.9600 eV  418.86 nm  f=0.0293  <S**2>=0.000
     169 ->177        -0.12269
     169 ->181        -0.13867
     170 ->177         0.23729
     170 ->179         0.37341
     170 ->181         0.31090
     170 ->185         0.18159
     170 ->187         0.21066
     170 ->196        -0.10351

 Excited State   5:      Singlet-A      2.9957 eV  413.87 nm  f=0.2790  <S**2>=0.000
     168 ->177         0.17288
     168 ->179        -0.16369
     168 ->181         0.15832
     168 ->185        -0.10806
     169 ->177         0.19855
     169 ->178        -0.12517
     169 ->179        -0.20946
     169 ->181         0.15582
     169 ->185        -0.15573
     175 ->177        -0.18207
     176 ->178         0.25675
     176 ->179         0.20215
     176 ->180         0.15257

 The electronic state is 1-A.
 Alpha  occ. eigenvalues --   -1.84906  -1.81122  -1.79778  -1.73818  -1.72168
 Alpha  occ. eigenvalues --   -1.70713  -1.65338  -1.60463  -1.60147  -1.60127
 Alpha  occ. eigenvalues --   -1.54134  -1.51401  -1.48496  -1.48142  -1.45820
 Alpha  occ. eigenvalues --   -1.44665  -1.43292  -1.40858  -1.38750  -1.38315
 Alpha  occ. eigenvalues --   -1.35985  -1.34019  -1.32719  -1.32560  -1.28335
 Alpha  occ. eigenvalues --   -1.25901  -1.25508  -1.22667  -1.21745  -1.18347
 Alpha  occ. eigenvalues --   -1.17822  -1.15026  -1.14673  -1.14605  -1.13418
 Alpha  occ. eigenvalues --   -1.13168  -1.10898  -1.10216  -1.04743  -1.03514
 Alpha  occ. eigenvalues --   -1.03398  -1.00895  -0.99799  -0.97856  -0.97265
 Alpha  occ. eigenvalues --   -0.95925  -0.95265  -0.94417  -0.92839  -0.92228
 Alpha  occ. eigenvalues --   -0.91468  -0.91176  -0.89507  -0.88600  -0.87515
 Alpha  occ. eigenvalues --   -0.86383  -0.84888  -0.83941  -0.82188  -0.80491
 Alpha  occ. eigenvalues --   -0.79721  -0.79076  -0.77750  -0.76232  -0.76149
 Alpha  occ. eigenvalues --   -0.75336  -0.74782  -0.74150  -0.73665  -0.72672
 Alpha  occ. eigenvalues --   -0.72449  -0.71600  -0.71500  -0.71216  -0.70850
 Alpha  occ. eigenvalues --   -0.70036  -0.69646  -0.68526  -0.68433  -0.68058
 Alpha  occ. eigenvalues --   -0.67590  -0.67033  -0.66732  -0.66226  -0.65847
 Alpha  occ. eigenvalues --   -0.65464  -0.64772  -0.64320  -0.63878  -0.63747
 Alpha  occ. eigenvalues --   -0.63217  -0.62982  -0.62271  -0.61924  -0.61776
 Alpha  occ. eigenvalues --   -0.61528  -0.61006  -0.60393  -0.60187  -0.60057
 Alpha  occ. eigenvalues --   -0.59373  -0.59002  -0.58879  -0.58622  -0.58411
 Alpha  occ. eigenvalues --   -0.57970  -0.57628  -0.57310  -0.57072  -0.57023
 Alpha  occ. eigenvalues --   -0.56669  -0.56603  -0.55856  -0.55448  -0.54856
 Alpha  occ. eigenvalues --   -0.54371  -0.53948  -0.53729  -0.53623  -0.53139
 Alpha  occ. eigenvalues --   -0.52682  -0.52032  -0.51758  -0.51476  -0.51332
 Alpha  occ. eigenvalues --   -0.50900  -0.50700  -0.50566  -0.50397  -0.50057
 Alpha  occ. eigenvalues --   -0.49898  -0.49411  -0.49118  -0.48944  -0.48731
 Alpha  occ. eigenvalues --   -0.48388  -0.48256  -0.47972  -0.47881  -0.47800
 Alpha  occ. eigenvalues --   -0.47488  -0.47253  -0.47093  -0.47000  -0.46688
 Alpha  occ. eigenvalues --   -0.46083  -0.45658  -0.45411  -0.45381  -0.45129
 Alpha  occ. eigenvalues --   -0.44993  -0.44762  -0.44665  -0.44567  -0.43841
 Alpha  occ. eigenvalues --   -0.43437  -0.43174  -0.42648  -0.42570  -0.42370
 Alpha  occ. eigenvalues --   -0.41651  -0.41156  -0.40781  -0.39453  -0.38868
 Alpha  occ. eigenvalues --   -0.38144  -0.36917  -0.35131  -0.34912  -0.34512
 Alpha  occ. eigenvalues --   -0.32894  -0.32471  -0.31936  -0.31599  -0.26276
 Alpha  occ. eigenvalues --   -0.21613
 Alpha virt. eigenvalues --   -0.08204  -0.02239  -0.00233   0.01310   0.01475
 Alpha virt. eigenvalues --    0.01623   0.02749   0.03059   0.04561   0.05165
 Alpha virt. eigenvalues --    0.06153   0.07254   0.07792   0.08151   0.08351

 Mulliken charges:
               1
     1  Mg   0.430837
     2  C   -0.038700
     3  C   -0.060269
     4  C   -0.075672
     5  C   -0.082381
     6  N   -0.255811
     7  C    0.101198
     8  C    0.016468
     9  C    0.013530
    10  C    0.101682
    11  C   -0.055204
    12  C   -0.017242
    13  C    0.009440
    14  C    0.471438
    15  O   -0.512465
    16  O   -0.274797
    17  N   -0.315425
    18  C    0.110738
    19  C   -0.010015
    20  C   -0.063959
    21  C    0.138134
    22  C   -0.050016
    23  C    0.342621
    24  O   -0.544385
    25  C   -0.017576
    26  N   -0.281105
    27  C    0.131821
    28  C   -0.009793
    29  C    0.011100
    30  C    0.147017
    31  C   -0.044673
    32  C   -0.027458
    33  C   -0.061579
    34  N   -0.331678
    35  C    0.119641
    36  C    0.012818
    37  C   -0.051748
    38  C    0.124032
    39  C   -0.039769
    40  C    0.334242
    41  O   -0.501059
    42  C    0.053277
    43  C    0.499645
    44  O   -0.519081
    45  O   -0.265890
    46  C    0.085626
    47  C    0.111056
    48  C   -0.087164
    49  C   -0.029879
    50  C   -0.054466
    51  C   -0.022232
    52  C   -0.031865
    53  C   -0.034931
    54  C   -0.014273
    55  C   -0.055478
    56  C   -0.046097
    57  C   -0.047197
    58  C   -0.044430
    59  C   -0.017189
    60  C   -0.063441
    61  C   -0.021966
    62  C   -0.040759
    63  C   -0.037694
    64  C   -0.013925
    65  C   -0.059356
    66  C   -0.062090
    67  H    0.015019
    68  H    0.048027
    69  H    0.025191
    70  H    0.043109
    71  H    0.023031
    72  H    0.015455
    73  H    0.031529
    74  H    0.023870
    75  H    0.022033
    76  H    0.014918
    77  H    0.042376
    78  H    0.038372
    79  H    0.031097
    80  H    0.039085
    81  H    0.024295
    82  H    0.036600
    83  H    0.042185
    84  H    0.028323
    85  H    0.036570
    86  H    0.037488
    87  H    0.035247
    88  H    0.020298
    89  H    0.018837
    90  H    0.016397
    91  H    0.029191
    92  H    0.005962
    93  H    0.020981
    94  H    0.028030
    95  H    0.028319
    96  H    0.038408
    97  H    0.035702
    98  H    0.047021
    99  H    0.043242
   100  H    0.033418
   101  H    0.028974
   102  H    0.062511
   103  H    0.046737
   104  H    0.017328
   105  H    0.031029
   106  H    0.027406
   107  H    0.027541
   108  H    0.024265
   109  H    0.027874
   110  H    0.025195
   111  H    0.018996
   112  H    0.019693
   113  H    0.021070
   114  H    0.024511
   115  H    0.017968
   116  H    0.023217
   117  H    0.021193
   118  H    0.015398
   119  H    0.023232
   120  H    0.031163
   121  H    0.007438
   122  H    0.024178
   123  H    0.024313
   124  H    0.014824
   125  H    0.015936
   126  H    0.021300
   127  H    0.016546
   128  H    0.019916
   129  H    0.017805
   130  H    0.008639
   131  H    0.020825
   132  H    0.014209
   133  H    0.027995
   134  H    0.030191
   135  H    0.016192
   136  H    0.020567
   137  H    0.013606
   138  H    0.013088
   139  H    0.024634
   140  H    0.018694
 Sum of Mulliken charges =  -0.00000

 Dipole moment (field-independent basis, Debye):
    X=              5.6902    Y=              4.0515    Z=             -7.0842  Tot=              9.9488
 N-N= 4.284003164373D+03 E-N= 0.000000000000D+00  KE=-9.242375259831D+03
 Leave Link  601 at Wed May  4 00:12:20 2022, MaxMem=  6710886400 cpu:               1.1 elap:               0.1
 (Enter /sw/apps/gaussian-16.0/g16/l9999.exe)
 1\1\GINC-BP1-COMPUTE096\SP\RZINDO CIS\STO-3G\C55H74Mg1N4O6\OF15641\04-
 May-2022\0\\#p ZINDO=(nstates=5)\\step_1101_chromophore_3 ZINDO\\0,1\M
 g,0,1.695,8.62,26.341\C,0,1.903,10.775,29.071\C,0,2.156,6.023,28.234\C
 ,0,2.336,6.799,23.448\C,0,1.787,11.539,24.28\N,0,2.113,8.473,28.476\C,
 0,1.899,9.412,29.433\C,0,1.914,8.737,30.869\C,0,2.168,7.323,30.565\C,0
 ,2.221,7.227,28.981\C,0,3.415,6.633,31.292\C,0,0.6,9.115,31.684\C,0,0.
 478,9.215,33.177\C,0,1.611,8.707,34.088\O,0,2.582,9.333,34.461\O,0,1.3

 Normal termination of Gaussian 16 at Wed May  4 00:12:20 2022.
