 Gaussian 16, Revision A.03,
 Gaussian 16:  ES64L-G16RevA.03 25-Dec-2016

 ------------------------------
 #p blyp/Def2SVP td=(nstates=5)
 ------------------------------

 ---------------------------------------------------
 step_1201_chromophore_25 TDDFT with blyp functional
 ---------------------------------------------------
 Symbolic Z-matrix:
 Charge =  0 Multiplicity = 1

                         Standard orientation:
 ---------------------------------------------------------------------
 Center     Atomic      Atomic             Coordinates (Angstroms)
 Number     Number       Type             X           Y           Z
 ---------------------------------------------------------------------
      1         12           0        6.023200    0.383292    0.252032
      2          6           0        3.568881   -2.097506    0.068823
      3          6           0        3.615107    2.752785   -0.469640
      4          6           0        8.494152    2.705886   -0.056921
      5          6           0        8.431396   -2.157312    0.592830
      6          7           0        3.781926    0.349779   -0.075660
      7          6           0        3.011239   -0.801062   -0.036483
      8          6           0        1.527070   -0.466999   -0.251582
      9          6           0        1.557033    1.099936   -0.578383
     10          6           0        3.099193    1.436603   -0.436730
     11          6           0        0.972468    1.419571   -1.948316
     12          6           0        0.552959   -0.964749    0.994882
     13          6           0       -0.680797   -1.789097    0.634864
     14          6           0       -2.063458   -1.436378    1.278155
     15          8           0       -2.266612   -1.240081    2.495715
     16          8           0       -3.034362   -1.302954    0.299859
     17          7           0        6.062705    2.446119   -0.147025
     18          6           0        4.963037    3.234241   -0.342651
     19          6           0        5.428438    4.648408   -0.466094
     20          6           0        6.840209    4.635002   -0.497902
     21          6           0        7.206254    3.222661   -0.238387
     22          6           0        4.458511    5.891226   -0.760213
     23          6           0        7.815416    5.765202   -0.795421
     24          8           0        9.031054    5.720704   -0.760183
     25          6           0        7.384028    7.149309   -1.106241
     26          7           0        8.155915    0.249051    0.261543
     27          6           0        8.867174    1.386017    0.176796
     28          6           0       10.391075    1.031500    0.448170
     29          6           0       10.417476   -0.504743    0.621836
     30          6           0        8.915608   -0.825689    0.545411
     31          6           0       11.327448    1.391062   -0.738427
     32          6           0       11.109611   -0.992813    1.946969
     33          6           0       10.473782   -0.536722    3.263243
     34          7           0        6.029801   -1.620395    0.340506
     35          6           0        7.064052   -2.514622    0.408527
     36          6           0        6.581564   -3.868455    0.391535
     37          6           0        5.172568   -3.746114    0.225137
     38          6           0        4.892024   -2.380125    0.194757
     39          6           0        7.378656   -5.087545    0.268397
     40          6           0        3.907816   -4.477415    0.112841
     41          8           0        3.706727   -5.685999    0.017060
     42          6           0        2.807707   -3.481989    0.073867
     43          6           0        1.935098   -3.751657   -1.161311
     44          8           0        2.097304   -3.287111   -2.274925
     45          8           0        0.828722   -4.539802   -0.782052
     46          6           0       -0.023927   -4.823750   -1.967354
     47          6           0       -4.416754   -0.976378    0.780213
     48          6           0       -5.431499   -1.289524   -0.384345
     49          6           0       -6.377352   -2.212160   -0.486873
     50          6           0       -6.619564   -3.375770    0.505381
     51          6           0       -7.480032   -2.118119   -1.542461
     52          6           0       -8.583304   -1.098770   -1.267462
     53          6           0       -8.564715    0.199151   -1.996150
     54          6           0       -9.797706    0.407570   -2.917877
     55          6           0       -9.502586    1.234854   -4.137393
     56          6           0      -10.911774    1.189507   -2.092533
     57          6           0      -12.024438    0.213480   -1.545368
     58          6           0      -13.430459    0.883499   -1.259352
     59          6           0      -14.021831    0.687204    0.202347
     60          6           0      -15.179626   -0.276175    0.217806
     61          6           0      -14.381280    1.992372    1.015906
     62          6           0      -13.850979    1.929890    2.499349
     63          6           0      -12.480045    2.671737    2.772546
     64          6           0      -11.314595    1.782149    3.338046
     65          6           0      -10.312277    2.740196    4.025815
     66          6           0      -10.673099    1.196884    2.089985
     67          1           0        2.837106    3.517955   -0.517710
     68          1           0        9.345782    3.388469   -0.075800
     69          1           0        9.259433   -2.828905    0.828476
     70          1           0        1.321415   -1.103608   -1.112875
     71          1           0        1.055237    1.653495    0.214646
     72          1           0        0.455273    2.379152   -1.971938
     73          1           0        0.271091    0.635742   -2.235696
     74          1           0        1.817924    1.419635   -2.636059
     75          1           0        0.208201   -0.089827    1.547087
     76          1           0        1.037405   -1.482271    1.823346
     77          1           0       -0.469812   -2.831729    0.872218
     78          1           0       -0.722488   -1.689846   -0.449149
     79          1           0        3.413632    5.581327   -0.773585
     80          1           0        4.551208    6.385262   -1.727031
     81          1           0        4.621579    6.479894    0.142973
     82          1           0        6.822851    7.125965   -2.040149
     83          1           0        8.190489    7.826156   -1.389259
     84          1           0        6.833239    7.627653   -0.295652
     85          1           0       10.640297    1.381621    1.449794
     86          1           0       10.961573   -0.956009   -0.207273
     87          1           0       10.901444    2.191295   -1.342382
     88          1           0       11.499925    0.601598   -1.470974
     89          1           0       12.335702    1.621751   -0.395622
     90          1           0       12.028959   -0.427682    1.791673
     91          1           0       11.294647   -2.066967    1.926562
     92          1           0       10.474292   -1.358764    3.979290
     93          1           0        9.450448   -0.166178    3.208709
     94          1           0       11.123677    0.191602    3.750217
     95          1           0        6.735118   -5.851587   -0.168131
     96          1           0        7.747339   -5.408669    1.241766
     97          1           0        8.190562   -4.873561   -0.427015
     98          1           0        2.267675   -3.640984    1.007256
     99          1           0        0.519191   -5.264427   -2.804007
    100          1           0       -0.582023   -3.954085   -2.315912
    101          1           0       -0.749486   -5.586344   -1.683700
    102          1           0       -4.421859    0.085573    1.027526
    103          1           0       -4.634946   -1.535641    1.689780
    104          1           0       -5.554945   -0.516837   -1.143517
    105          1           0       -6.593948   -4.359394    0.035540
    106          1           0       -7.597591   -3.173341    0.942983
    107          1           0       -5.847333   -3.371364    1.274758
    108          1           0       -8.003814   -3.058919   -1.712400
    109          1           0       -6.990904   -1.745676   -2.441762
    110          1           0       -8.557575   -0.915511   -0.193354
    111          1           0       -9.511712   -1.620865   -1.499577
    112          1           0       -7.680864    0.436536   -2.587180
    113          1           0       -8.624538    0.951217   -1.209424
    114          1           0      -10.133408   -0.588228   -3.204277
    115          1           0       -8.526127    1.717865   -4.146140
    116          1           0      -10.139263    2.084961   -4.384696
    117          1           0       -9.732205    0.627438   -5.013056
    118          1           0      -11.343735    2.063051   -2.581266
    119          1           0      -10.535239    1.623351   -1.166610
    120          1           0      -11.688341   -0.191645   -0.591569
    121          1           0      -12.210691   -0.577131   -2.272479
    122          1           0      -14.175556    0.539322   -1.975912
    123          1           0      -13.217226    1.948160   -1.350086
    124          1           0      -13.245726    0.044112    0.617971
    125          1           0      -15.521453   -0.507177    1.226289
    126          1           0      -14.979104   -1.214106   -0.301132
    127          1           0      -16.020781    0.202379   -0.284477
    128          1           0      -15.439981    2.246240    0.962310
    129          1           0      -13.786051    2.770119    0.538712
    130          1           0      -13.693794    0.864276    2.667145
    131          1           0      -14.642725    2.279828    3.160949
    132          1           0      -12.803257    3.412229    3.504158
    133          1           0      -12.187473    3.194028    1.861742
    134          1           0      -11.599945    0.955244    3.988782
    135          1           0      -10.782045    3.247167    4.867933
    136          1           0       -9.874688    3.440454    3.313679
    137          1           0       -9.579297    2.037874    4.421288
    138          1           0      -10.366917    0.161904    2.241549
    139          1           0       -9.801089    1.805301    1.848617
    140          1           0      -11.305963    1.243069    1.203991
 ---------------------------------------------------------------------

 SCF Done:  E(RB-LYP) =  -3007.38408242     A.U. after   21 cycles

 Excitation energies and oscillator strengths:

 Excited State   1:      Singlet-A      1.8400 eV  673.82 nm  f=0.0914  <S**2>=0.000
     244 -> 247        0.60228
     245 -> 248       -0.10747
     246 -> 247       -0.35203
 This state for optimization and/or second-order correction.
 Total Energy, E(TD-HF/TD-DFT) =  -3007.31646331
 Copying the excited state density for this state as the 1-particle RhoCI density.

 Excited State   2:      Singlet-A      1.8459 eV  671.67 nm  f=0.2238  <S**2>=0.000
     244 -> 247        0.36056
     245 -> 248        0.18302
     246 -> 247        0.58770
     246 <- 247       -0.12287

 Excited State   3:      Singlet-A      2.0589 eV  602.19 nm  f=0.0103  <S**2>=0.000
     243 -> 247        0.64122
     245 -> 247        0.26987
     246 -> 248       -0.11113

 Excited State   4:      Singlet-A      2.0937 eV  592.18 nm  f=0.0487  <S**2>=0.000
     243 -> 247       -0.29544
     245 -> 247        0.57132
     246 -> 248       -0.27079

 Excited State   5:      Singlet-A      2.6233 eV  472.63 nm  f=0.0009  <S**2>=0.000
     241 -> 247        0.70387

 The electronic state is 1-A.
 Alpha  occ. eigenvalues --  -46.26879 -18.82785 -18.81961 -18.78242 -18.76762
 Alpha  occ. eigenvalues --  -18.75472 -18.75332 -14.03358 -14.02949 -14.01616
 Alpha  occ. eigenvalues --  -14.00957 -10.05040 -10.04357  -9.99814  -9.99493
 Alpha  occ. eigenvalues --   -9.98686  -9.97590  -9.96776  -9.96732  -9.96487
 Alpha  occ. eigenvalues --   -9.96163  -9.96123  -9.95958  -9.95490  -9.94905
 Alpha  occ. eigenvalues --   -9.94821  -9.94780  -9.94508  -9.94189  -9.93802
 Alpha  occ. eigenvalues --   -9.93647  -9.93619  -9.93521  -9.93378  -9.93368
 Alpha  occ. eigenvalues --   -9.93361  -9.93313  -9.93097  -9.93020  -9.92969
 Alpha  occ. eigenvalues --   -9.92697  -9.92563  -9.92443  -9.92371  -9.92250
 Alpha  occ. eigenvalues --   -9.92248  -9.92120  -9.92043  -9.91938  -9.91858
 Alpha  occ. eigenvalues --   -9.91768  -9.91615  -9.91547  -9.91466  -9.91462
 Alpha  occ. eigenvalues --   -9.91448  -9.91296  -9.91282  -9.91198  -9.91143
 Alpha  occ. eigenvalues --   -9.91132  -9.91089  -9.90893  -9.90805  -9.90804
 Alpha  occ. eigenvalues --   -9.90481  -2.91563  -1.71998  -1.71434  -1.71281
 Alpha  occ. eigenvalues --   -0.97537  -0.96194  -0.92072  -0.91154  -0.90359
 Alpha  occ. eigenvalues --   -0.88395  -0.86589  -0.85895  -0.85452  -0.84674
 Alpha  occ. eigenvalues --   -0.76081  -0.74234  -0.72665  -0.72352  -0.72203
 Alpha  occ. eigenvalues --   -0.71644  -0.71400  -0.71038  -0.70498  -0.69995
 Alpha  occ. eigenvalues --   -0.69609  -0.68907  -0.68054  -0.67391  -0.66898
 Alpha  occ. eigenvalues --   -0.66493  -0.65535  -0.64908  -0.64825  -0.64434
 Alpha  occ. eigenvalues --   -0.64256  -0.62510  -0.61934  -0.61732  -0.60991
 Alpha  occ. eigenvalues --   -0.60775  -0.60227  -0.59657  -0.59222  -0.58920
 Alpha  occ. eigenvalues --   -0.58582  -0.57343  -0.56644  -0.55380  -0.55332
 Alpha  occ. eigenvalues --   -0.53963  -0.53388  -0.52949  -0.52224  -0.51627
 Alpha  occ. eigenvalues --   -0.51102  -0.50648  -0.50439  -0.50390  -0.50326
 Alpha  occ. eigenvalues --   -0.49551  -0.49000  -0.48907  -0.48452  -0.46428
 Alpha  occ. eigenvalues --   -0.46189  -0.45885  -0.45433  -0.45156  -0.44636
 Alpha  occ. eigenvalues --   -0.43886  -0.43308  -0.42943  -0.42773  -0.42300
 Alpha  occ. eigenvalues --   -0.41904  -0.41670  -0.41327  -0.41208  -0.41040
 Alpha  occ. eigenvalues --   -0.40886  -0.40789  -0.40379  -0.40138  -0.39967
 Alpha  occ. eigenvalues --   -0.39783  -0.39670  -0.39560  -0.39386  -0.39318
 Alpha  occ. eigenvalues --   -0.38984  -0.38937  -0.38748  -0.38680  -0.38302
 Alpha  occ. eigenvalues --   -0.38121  -0.37854  -0.37645  -0.37606  -0.37479
 Alpha  occ. eigenvalues --   -0.37298  -0.37013  -0.36817  -0.36575  -0.36475
 Alpha  occ. eigenvalues --   -0.36131  -0.35907  -0.35845  -0.35744  -0.35554
 Alpha  occ. eigenvalues --   -0.35397  -0.35195  -0.34984  -0.34796  -0.34764
 Alpha  occ. eigenvalues --   -0.34586  -0.34511  -0.34100  -0.34040  -0.33981
 Alpha  occ. eigenvalues --   -0.33725  -0.33690  -0.33518  -0.33144  -0.33064
 Alpha  occ. eigenvalues --   -0.32908  -0.32793  -0.32433  -0.32301  -0.32136
 Alpha  occ. eigenvalues --   -0.32042  -0.31908  -0.31687  -0.31475  -0.31305
 Alpha  occ. eigenvalues --   -0.31165  -0.31144  -0.30883  -0.30736  -0.30638
 Alpha  occ. eigenvalues --   -0.30535  -0.30427  -0.30280  -0.30133  -0.29925
 Alpha  occ. eigenvalues --   -0.29854  -0.29635  -0.29259  -0.29100  -0.29049
 Alpha  occ. eigenvalues --   -0.28974  -0.28705  -0.28267  -0.28127  -0.28005
 Alpha  occ. eigenvalues --   -0.27437  -0.26981  -0.26866  -0.26548  -0.26498
 Alpha  occ. eigenvalues --   -0.26427  -0.25904  -0.25838  -0.25680  -0.25251
 Alpha  occ. eigenvalues --   -0.25044  -0.24854  -0.24511  -0.24140  -0.24083
 Alpha  occ. eigenvalues --   -0.23179  -0.23076  -0.22364  -0.22274  -0.21252
 Alpha  occ. eigenvalues --   -0.20972  -0.20516  -0.18818  -0.18031  -0.17412
 Alpha  occ. eigenvalues --   -0.15774
 Alpha virt. eigenvalues --   -0.11337  -0.07032  -0.06382  -0.04744  -0.03610
 Alpha virt. eigenvalues --   -0.02987  -0.02572  -0.01920  -0.01085   0.00207
 Alpha virt. eigenvalues --    0.01287   0.01794   0.01913   0.02684   0.02834

 Mulliken charges:
               1
     1  Mg   0.704092
     2  C   -0.035331
     3  C   -0.046802
     4  C   -0.048484
     5  C   -0.079561
     6  N   -0.190143
     7  C   -0.115125
     8  C    0.016759
     9  C    0.004215
    10  C   -0.000331
    11  C    0.134699
    12  C    0.102446
    13  C    0.097546
    14  C    0.094648
    15  O   -0.221448
    16  O   -0.278731
    17  N   -0.289780
    18  C    0.133510
    19  C   -0.157381
    20  C    0.049623
    21  C    0.111724
    22  C    0.148663
    23  C   -0.072926
    24  O   -0.156598
    25  C    0.145102
    26  N   -0.192811
    27  C    0.015041
    28  C    0.017771
    29  C    0.008615
    30  C   -0.029895
    31  C    0.125174
    32  C    0.062325
    33  C    0.067925
    34  N   -0.289926
    35  C    0.187259
    36  C   -0.224080
    37  C    0.095106
    38  C    0.135871
    39  C    0.194609
    40  C   -0.104799
    41  O   -0.138319
    42  C    0.131954
    43  C    0.139347
    44  O   -0.172473
    45  O   -0.285255
    46  C    0.220201
    47  C    0.303549
    48  C   -0.057419
    49  C   -0.159595
    50  C    0.134102
    51  C    0.140749
    52  C    0.056423
    53  C    0.134704
    54  C   -0.070100
    55  C    0.112590
    56  C    0.082669
    57  C    0.022018
    58  C    0.109336
    59  C   -0.087956
    60  C    0.098101
    61  C    0.112997
    62  C    0.061637
    63  C    0.081905
    64  C   -0.088142
    65  C    0.115691
    66  C    0.080533
    67  H   -0.062979
    68  H   -0.039585
    69  H   -0.068046
    70  H    0.000537
    71  H   -0.016426
    72  H   -0.006699
    73  H   -0.000137
    74  H   -0.000997
    75  H   -0.025734
    76  H   -0.016378
    77  H    0.018547
    78  H   -0.009722
    79  H   -0.025134
    80  H    0.020312
    81  H    0.012431
    82  H   -0.011723
    83  H   -0.017775
    84  H    0.006104
    85  H   -0.018281
    86  H   -0.024045
    87  H    0.000184
    88  H   -0.018184
    89  H   -0.008995
    90  H   -0.019756
    91  H   -0.007494
    92  H   -0.015751
    93  H    0.010034
    94  H   -0.008707
    95  H    0.007110
    96  H   -0.000594
    97  H   -0.001546
    98  H    0.015535
    99  H    0.020026
   100  H    0.016476
   101  H    0.007664
   102  H   -0.002518
   103  H    0.002675
   104  H   -0.040524
   105  H    0.004790
   106  H    0.001797
   107  H   -0.013669
   108  H   -0.038554
   109  H   -0.024391
   110  H   -0.026241
   111  H   -0.021714
   112  H   -0.034005
   113  H   -0.039400
   114  H   -0.026934
   115  H   -0.017481
   116  H   -0.029910
   117  H   -0.020884
   118  H   -0.022197
   119  H   -0.038221
   120  H   -0.013678
   121  H   -0.028939
   122  H   -0.033646
   123  H   -0.045236
   124  H   -0.034906
   125  H   -0.021812
   126  H   -0.020322
   127  H   -0.027047
   128  H   -0.025933
   129  H   -0.041493
   130  H   -0.027666
   131  H   -0.029328
   132  H   -0.040282
   133  H   -0.029833
   134  H   -0.025931
   135  H   -0.013226
   136  H   -0.006780
   137  H   -0.020486
   138  H   -0.015377
   139  H   -0.025388
   140  H    0.006605
 Sum of Mulliken charges =  -0.00000

 Dipole moment (field-independent basis, Debye):
    X=             -2.9645    Y=              1.9504    Z=             -0.1260  Tot=              3.5508
 Quadrupole moment (field-independent basis, Debye-Ang):
   XX=           -377.7191   YY=           -419.8605   ZZ=           -410.2985
   XY=             -7.8317   XZ=             18.0729   YZ=              0.7993

 Normal termination of Gaussian 16 at Wed Apr 27 15:13:50 2022.
