 Gaussian 16, Revision A.03,
 Gaussian 16:  ES64L-G16RevA.03 25-Dec-2016

 -----------------------------------
 #p cam-b3lyp/Def2SVP td=(nstates=5)
 -----------------------------------

 --------------------------------------------------------
 step_1201_chromophore_25 TDDFT with cam-b3lyp functional
 --------------------------------------------------------
 Symbolic Z-matrix:
 Charge =  0 Multiplicity = 1

                         Standard orientation:
 ---------------------------------------------------------------------
 Center     Atomic      Atomic             Coordinates (Angstroms)
 Number     Number       Type             X           Y           Z
 ---------------------------------------------------------------------
      1         12           0        6.023200    0.383292    0.252032
      2          6           0        3.568881   -2.097506    0.068823
      3          6           0        3.615107    2.752785   -0.469640
      4          6           0        8.494152    2.705886   -0.056921
      5          6           0        8.431396   -2.157312    0.592830
      6          7           0        3.781926    0.349779   -0.075660
      7          6           0        3.011239   -0.801062   -0.036483
      8          6           0        1.527070   -0.466999   -0.251582
      9          6           0        1.557033    1.099936   -0.578383
     10          6           0        3.099193    1.436603   -0.436730
     11          6           0        0.972468    1.419571   -1.948316
     12          6           0        0.552959   -0.964749    0.994882
     13          6           0       -0.680797   -1.789097    0.634864
     14          6           0       -2.063458   -1.436378    1.278155
     15          8           0       -2.266612   -1.240081    2.495715
     16          8           0       -3.034362   -1.302954    0.299859
     17          7           0        6.062705    2.446119   -0.147025
     18          6           0        4.963037    3.234241   -0.342651
     19          6           0        5.428438    4.648408   -0.466094
     20          6           0        6.840209    4.635002   -0.497902
     21          6           0        7.206254    3.222661   -0.238387
     22          6           0        4.458511    5.891226   -0.760213
     23          6           0        7.815416    5.765202   -0.795421
     24          8           0        9.031054    5.720704   -0.760183
     25          6           0        7.384028    7.149309   -1.106241
     26          7           0        8.155915    0.249051    0.261543
     27          6           0        8.867174    1.386017    0.176796
     28          6           0       10.391075    1.031500    0.448170
     29          6           0       10.417476   -0.504743    0.621836
     30          6           0        8.915608   -0.825689    0.545411
     31          6           0       11.327448    1.391062   -0.738427
     32          6           0       11.109611   -0.992813    1.946969
     33          6           0       10.473782   -0.536722    3.263243
     34          7           0        6.029801   -1.620395    0.340506
     35          6           0        7.064052   -2.514622    0.408527
     36          6           0        6.581564   -3.868455    0.391535
     37          6           0        5.172568   -3.746114    0.225137
     38          6           0        4.892024   -2.380125    0.194757
     39          6           0        7.378656   -5.087545    0.268397
     40          6           0        3.907816   -4.477415    0.112841
     41          8           0        3.706727   -5.685999    0.017060
     42          6           0        2.807707   -3.481989    0.073867
     43          6           0        1.935098   -3.751657   -1.161311
     44          8           0        2.097304   -3.287111   -2.274925
     45          8           0        0.828722   -4.539802   -0.782052
     46          6           0       -0.023927   -4.823750   -1.967354
     47          6           0       -4.416754   -0.976378    0.780213
     48          6           0       -5.431499   -1.289524   -0.384345
     49          6           0       -6.377352   -2.212160   -0.486873
     50          6           0       -6.619564   -3.375770    0.505381
     51          6           0       -7.480032   -2.118119   -1.542461
     52          6           0       -8.583304   -1.098770   -1.267462
     53          6           0       -8.564715    0.199151   -1.996150
     54          6           0       -9.797706    0.407570   -2.917877
     55          6           0       -9.502586    1.234854   -4.137393
     56          6           0      -10.911774    1.189507   -2.092533
     57          6           0      -12.024438    0.213480   -1.545368
     58          6           0      -13.430459    0.883499   -1.259352
     59          6           0      -14.021831    0.687204    0.202347
     60          6           0      -15.179626   -0.276175    0.217806
     61          6           0      -14.381280    1.992372    1.015906
     62          6           0      -13.850979    1.929890    2.499349
     63          6           0      -12.480045    2.671737    2.772546
     64          6           0      -11.314595    1.782149    3.338046
     65          6           0      -10.312277    2.740196    4.025815
     66          6           0      -10.673099    1.196884    2.089985
     67          1           0        2.837106    3.517955   -0.517710
     68          1           0        9.345782    3.388469   -0.075800
     69          1           0        9.259433   -2.828905    0.828476
     70          1           0        1.321415   -1.103608   -1.112875
     71          1           0        1.055237    1.653495    0.214646
     72          1           0        0.455273    2.379152   -1.971938
     73          1           0        0.271091    0.635742   -2.235696
     74          1           0        1.817924    1.419635   -2.636059
     75          1           0        0.208201   -0.089827    1.547087
     76          1           0        1.037405   -1.482271    1.823346
     77          1           0       -0.469812   -2.831729    0.872218
     78          1           0       -0.722488   -1.689846   -0.449149
     79          1           0        3.413632    5.581327   -0.773585
     80          1           0        4.551208    6.385262   -1.727031
     81          1           0        4.621579    6.479894    0.142973
     82          1           0        6.822851    7.125965   -2.040149
     83          1           0        8.190489    7.826156   -1.389259
     84          1           0        6.833239    7.627653   -0.295652
     85          1           0       10.640297    1.381621    1.449794
     86          1           0       10.961573   -0.956009   -0.207273
     87          1           0       10.901444    2.191295   -1.342382
     88          1           0       11.499925    0.601598   -1.470974
     89          1           0       12.335702    1.621751   -0.395622
     90          1           0       12.028959   -0.427682    1.791673
     91          1           0       11.294647   -2.066967    1.926562
     92          1           0       10.474292   -1.358764    3.979290
     93          1           0        9.450448   -0.166178    3.208709
     94          1           0       11.123677    0.191602    3.750217
     95          1           0        6.735118   -5.851587   -0.168131
     96          1           0        7.747339   -5.408669    1.241766
     97          1           0        8.190562   -4.873561   -0.427015
     98          1           0        2.267675   -3.640984    1.007256
     99          1           0        0.519191   -5.264427   -2.804007
    100          1           0       -0.582023   -3.954085   -2.315912
    101          1           0       -0.749486   -5.586344   -1.683700
    102          1           0       -4.421859    0.085573    1.027526
    103          1           0       -4.634946   -1.535641    1.689780
    104          1           0       -5.554945   -0.516837   -1.143517
    105          1           0       -6.593948   -4.359394    0.035540
    106          1           0       -7.597591   -3.173341    0.942983
    107          1           0       -5.847333   -3.371364    1.274758
    108          1           0       -8.003814   -3.058919   -1.712400
    109          1           0       -6.990904   -1.745676   -2.441762
    110          1           0       -8.557575   -0.915511   -0.193354
    111          1           0       -9.511712   -1.620865   -1.499577
    112          1           0       -7.680864    0.436536   -2.587180
    113          1           0       -8.624538    0.951217   -1.209424
    114          1           0      -10.133408   -0.588228   -3.204277
    115          1           0       -8.526127    1.717865   -4.146140
    116          1           0      -10.139263    2.084961   -4.384696
    117          1           0       -9.732205    0.627438   -5.013056
    118          1           0      -11.343735    2.063051   -2.581266
    119          1           0      -10.535239    1.623351   -1.166610
    120          1           0      -11.688341   -0.191645   -0.591569
    121          1           0      -12.210691   -0.577131   -2.272479
    122          1           0      -14.175556    0.539322   -1.975912
    123          1           0      -13.217226    1.948160   -1.350086
    124          1           0      -13.245726    0.044112    0.617971
    125          1           0      -15.521453   -0.507177    1.226289
    126          1           0      -14.979104   -1.214106   -0.301132
    127          1           0      -16.020781    0.202379   -0.284477
    128          1           0      -15.439981    2.246240    0.962310
    129          1           0      -13.786051    2.770119    0.538712
    130          1           0      -13.693794    0.864276    2.667145
    131          1           0      -14.642725    2.279828    3.160949
    132          1           0      -12.803257    3.412229    3.504158
    133          1           0      -12.187473    3.194028    1.861742
    134          1           0      -11.599945    0.955244    3.988782
    135          1           0      -10.782045    3.247167    4.867933
    136          1           0       -9.874688    3.440454    3.313679
    137          1           0       -9.579297    2.037874    4.421288
    138          1           0      -10.366917    0.161904    2.241549
    139          1           0       -9.801089    1.805301    1.848617
    140          1           0      -11.305963    1.243069    1.203991
 ---------------------------------------------------------------------

 SCF Done:  E(RCAM-B3LYP) =  -3007.16965068     A.U. after   17 cycles

 Excitation energies and oscillator strengths:

 Excited State   1:      Singlet-A      1.7415 eV  711.95 nm  f=0.3823  <S**2>=0.000
     245 -> 248       -0.19630
     246 -> 247        0.68158
     245 <- 248       -0.11176
 This state for optimization and/or second-order correction.
 Total Energy, E(TD-HF/TD-DFT) =  -3007.10565281
 Copying the excited state density for this state as the 1-particle RhoCI density.

 Excited State   2:      Singlet-A      2.3004 eV  538.96 nm  f=0.0752  <S**2>=0.000
     245 -> 247        0.61612
     246 -> 248        0.33857

 Excited State   3:      Singlet-A      3.5042 eV  353.81 nm  f=0.7938  <S**2>=0.000
     242 -> 247       -0.13428
     245 -> 247       -0.32072
     246 -> 248        0.60413
     245 <- 247        0.11293

 Excited State   4:      Singlet-A      3.5468 eV  349.56 nm  f=0.0033  <S**2>=0.000
     243 -> 247        0.48662
     243 -> 248        0.10589
     243 -> 249       -0.29232
     243 -> 250       -0.22093
     244 -> 247       -0.26998

 Excited State   5:      Singlet-A      3.5611 eV  348.16 nm  f=0.0096  <S**2>=0.000
     242 -> 247       -0.20787
     243 -> 247        0.17174
     243 -> 249       -0.12458
     243 -> 250       -0.10307
     244 -> 247        0.59852

 The electronic state is 1-A.
 Alpha  occ. eigenvalues --  -46.88393 -19.25692 -19.24855 -19.21383 -19.19746
 Alpha  occ. eigenvalues --  -19.18692 -19.18679 -14.42288 -14.41707 -14.40198
 Alpha  occ. eigenvalues --  -14.39283 -10.40600 -10.39801 -10.35089 -10.34732
 Alpha  occ. eigenvalues --  -10.32926 -10.31553 -10.31306 -10.31212 -10.31069
 Alpha  occ. eigenvalues --  -10.30753 -10.30729 -10.30229 -10.29870 -10.29557
 Alpha  occ. eigenvalues --  -10.29189 -10.28933 -10.28601 -10.28316 -10.28110
 Alpha  occ. eigenvalues --  -10.27948 -10.27834 -10.27763 -10.27618 -10.27496
 Alpha  occ. eigenvalues --  -10.27390 -10.27320 -10.27219 -10.26973 -10.26667
 Alpha  occ. eigenvalues --  -10.26650 -10.26230 -10.26193 -10.26152 -10.26087
 Alpha  occ. eigenvalues --  -10.26055 -10.25958 -10.25794 -10.25544 -10.25472
 Alpha  occ. eigenvalues --  -10.25376 -10.25315 -10.25303 -10.25192 -10.25187
 Alpha  occ. eigenvalues --  -10.25184 -10.25152 -10.25000 -10.24985 -10.24904
 Alpha  occ. eigenvalues --  -10.24829 -10.24753 -10.24722 -10.24406 -10.24359
 Alpha  occ. eigenvalues --  -10.24072  -3.16985  -1.91894  -1.91424  -1.91302
 Alpha  occ. eigenvalues --   -1.16078  -1.14599  -1.10647  -1.09558  -1.08224
 Alpha  occ. eigenvalues --   -1.06224  -1.04264  -1.03540  -1.03045  -1.02252
 Alpha  occ. eigenvalues --   -0.93204  -0.91108  -0.89448  -0.89006  -0.88903
 Alpha  occ. eigenvalues --   -0.88367  -0.88072  -0.87635  -0.87059  -0.86488
 Alpha  occ. eigenvalues --   -0.86388  -0.85281  -0.84294  -0.83577  -0.82987
 Alpha  occ. eigenvalues --   -0.82572  -0.81502  -0.80986  -0.80677  -0.80339
 Alpha  occ. eigenvalues --   -0.80106  -0.78298  -0.77543  -0.77200  -0.76362
 Alpha  occ. eigenvalues --   -0.76140  -0.75560  -0.74909  -0.74440  -0.74128
 Alpha  occ. eigenvalues --   -0.73734  -0.72310  -0.71529  -0.70146  -0.70013
 Alpha  occ. eigenvalues --   -0.68598  -0.67932  -0.67530  -0.66568  -0.65823
 Alpha  occ. eigenvalues --   -0.65063  -0.64806  -0.64487  -0.64418  -0.64314
 Alpha  occ. eigenvalues --   -0.63511  -0.62963  -0.62650  -0.62176  -0.60127
 Alpha  occ. eigenvalues --   -0.59757  -0.59335  -0.58997  -0.58771  -0.57916
 Alpha  occ. eigenvalues --   -0.57302  -0.56565  -0.56125  -0.55852  -0.55496
 Alpha  occ. eigenvalues --   -0.54975  -0.54633  -0.54450  -0.54212  -0.53934
 Alpha  occ. eigenvalues --   -0.53677  -0.53485  -0.53247  -0.53137  -0.52730
 Alpha  occ. eigenvalues --   -0.52718  -0.52365  -0.52066  -0.51928  -0.51779
 Alpha  occ. eigenvalues --   -0.51723  -0.51494  -0.51439  -0.51149  -0.50673
 Alpha  occ. eigenvalues --   -0.50585  -0.50312  -0.50074  -0.49811  -0.49701
 Alpha  occ. eigenvalues --   -0.49622  -0.49308  -0.49220  -0.48858  -0.48684
 Alpha  occ. eigenvalues --   -0.48496  -0.48345  -0.48118  -0.47963  -0.47773
 Alpha  occ. eigenvalues --   -0.47536  -0.47243  -0.46903  -0.46781  -0.46603
 Alpha  occ. eigenvalues --   -0.46525  -0.46259  -0.45937  -0.45899  -0.45721
 Alpha  occ. eigenvalues --   -0.45645  -0.45584  -0.45329  -0.44914  -0.44706
 Alpha  occ. eigenvalues --   -0.44603  -0.44466  -0.44112  -0.43902  -0.43829
 Alpha  occ. eigenvalues --   -0.43570  -0.43511  -0.43292  -0.43219  -0.42988
 Alpha  occ. eigenvalues --   -0.42815  -0.42706  -0.42510  -0.42355  -0.42026
 Alpha  occ. eigenvalues --   -0.41939  -0.41824  -0.41674  -0.41316  -0.41168
 Alpha  occ. eigenvalues --   -0.40997  -0.40967  -0.40439  -0.40429  -0.40160
 Alpha  occ. eigenvalues --   -0.39981  -0.39708  -0.39176  -0.39069  -0.39035
 Alpha  occ. eigenvalues --   -0.38232  -0.38078  -0.37813  -0.37518  -0.37469
 Alpha  occ. eigenvalues --   -0.37277  -0.37025  -0.36575  -0.36342  -0.36277
 Alpha  occ. eigenvalues --   -0.36010  -0.35783  -0.35415  -0.35008  -0.34494
 Alpha  occ. eigenvalues --   -0.34098  -0.33885  -0.33418  -0.31684  -0.31250
 Alpha  occ. eigenvalues --   -0.31060  -0.30651  -0.30491  -0.29699  -0.24156
 Alpha  occ. eigenvalues --   -0.21014
 Alpha virt. eigenvalues --   -0.08337  -0.02016   0.00155   0.02205   0.03046
 Alpha virt. eigenvalues --    0.04177   0.04876   0.05052   0.06028   0.06603
 Alpha virt. eigenvalues --    0.07887   0.07969   0.08727   0.09054   0.09153

 Mulliken charges:
               1
     1  Mg   0.837331
     2  C   -0.062000
     3  C   -0.061685
     4  C   -0.068027
     5  C   -0.082178
     6  N   -0.261014
     7  C   -0.063973
     8  C   -0.033434
     9  C   -0.047479
    10  C    0.020148
    11  C    0.076318
    12  C    0.049080
    13  C    0.032214
    14  C    0.178645
    15  O   -0.263955
    16  O   -0.344018
    17  N   -0.377683
    18  C    0.141614
    19  C   -0.158958
    20  C   -0.021869
    21  C    0.137837
    22  C    0.098184
    23  C    0.005802
    24  O   -0.195564
    25  C    0.062014
    26  N   -0.267808
    27  C    0.039990
    28  C   -0.046473
    29  C   -0.037621
    30  C   -0.014046
    31  C    0.065335
    32  C    0.012094
    33  C    0.000215
    34  N   -0.380563
    35  C    0.184824
    36  C   -0.205847
    37  C    0.009718
    38  C    0.164879
    39  C    0.130947
    40  C   -0.000123
    41  O   -0.176550
    42  C    0.060066
    43  C    0.220578
    44  O   -0.208058
    45  O   -0.348644
    46  C    0.178998
    47  C    0.275756
    48  C   -0.085462
    49  C   -0.178153
    50  C    0.077094
    51  C    0.078482
    52  C    0.009109
    53  C    0.078369
    54  C   -0.129855
    55  C    0.052078
    56  C    0.037088
    57  C   -0.026774
    58  C    0.060531
    59  C   -0.150361
    60  C    0.045716
    61  C    0.058871
    62  C    0.013878
    63  C    0.025230
    64  C   -0.148690
    65  C    0.055084
    66  C    0.032865
    67  H   -0.028971
    68  H    0.001651
    69  H   -0.031462
    70  H    0.031413
    71  H    0.017332
    72  H    0.017472
    73  H    0.023795
    74  H    0.024801
    75  H    0.006820
    76  H    0.015022
    77  H    0.048665
    78  H    0.021535
    79  H    0.003414
    80  H    0.045611
    81  H    0.037937
    82  H    0.015731
    83  H    0.019306
    84  H    0.033086
    85  H    0.016431
    86  H    0.011538
    87  H    0.024937
    88  H    0.008054
    89  H    0.016106
    90  H    0.007681
    91  H    0.018899
    92  H    0.010497
    93  H    0.032005
    94  H    0.015136
    95  H    0.034773
    96  H    0.025270
    97  H    0.023296
    98  H    0.056430
    99  H    0.043744
   100  H    0.037267
   101  H    0.032171
   102  H    0.026356
   103  H    0.032282
   104  H   -0.009826
   105  H    0.029411
   106  H    0.023286
   107  H    0.009959
   108  H   -0.006125
   109  H    0.006162
   110  H   -0.000236
   111  H    0.004935
   112  H   -0.006522
   113  H   -0.009816
   114  H    0.004139
   115  H    0.006863
   116  H   -0.003913
   117  H    0.004118
   118  H    0.005476
   119  H   -0.013907
   120  H    0.007540
   121  H   -0.001271
   122  H   -0.003865
   123  H   -0.017179
   124  H   -0.005688
   125  H    0.002551
   126  H    0.004091
   127  H   -0.003786
   128  H    0.003648
   129  H   -0.013739
   130  H   -0.002016
   131  H    0.000098
   132  H   -0.010093
   133  H   -0.002621
   134  H    0.005582
   135  H    0.011516
   136  H    0.015579
   137  H    0.005096
   138  H    0.008038
   139  H   -0.001708
   140  H    0.018076
 Sum of Mulliken charges =  -0.00000

 Dipole moment (field-independent basis, Debye):
    X=             -3.0276    Y=              2.7641    Z=             -0.2825  Tot=              4.1093
 Quadrupole moment (field-independent basis, Debye-Ang):
   XX=           -375.9229   YY=           -414.9468   ZZ=           -410.8343
   XY=             -3.5869   XZ=             18.0182   YZ=             -0.1936

 Normal termination of Gaussian 16 at Wed Apr 27 14:20:38 2022.
