 Gaussian 16, Revision A.03,
 Gaussian 16:  ES64L-G16RevA.03 25-Dec-2016

 ---------------------------------
 #p PBE1PBE/Def2SVP td=(nstates=5)
 ---------------------------------

 ------------------------------------------------------
 step_1201_chromophore_25 TDDFT with PBE1PBE functional
 ------------------------------------------------------
 Symbolic Z-matrix:
 Charge =  0 Multiplicity = 1

                         Standard orientation:
 ---------------------------------------------------------------------
 Center     Atomic      Atomic             Coordinates (Angstroms)
 Number     Number       Type             X           Y           Z
 ---------------------------------------------------------------------
      1         12           0        6.023200    0.383292    0.252032
      2          6           0        3.568881   -2.097506    0.068823
      3          6           0        3.615107    2.752785   -0.469640
      4          6           0        8.494152    2.705886   -0.056921
      5          6           0        8.431396   -2.157312    0.592830
      6          7           0        3.781926    0.349779   -0.075660
      7          6           0        3.011239   -0.801062   -0.036483
      8          6           0        1.527070   -0.466999   -0.251582
      9          6           0        1.557033    1.099936   -0.578383
     10          6           0        3.099193    1.436603   -0.436730
     11          6           0        0.972468    1.419571   -1.948316
     12          6           0        0.552959   -0.964749    0.994882
     13          6           0       -0.680797   -1.789097    0.634864
     14          6           0       -2.063458   -1.436378    1.278155
     15          8           0       -2.266612   -1.240081    2.495715
     16          8           0       -3.034362   -1.302954    0.299859
     17          7           0        6.062705    2.446119   -0.147025
     18          6           0        4.963037    3.234241   -0.342651
     19          6           0        5.428438    4.648408   -0.466094
     20          6           0        6.840209    4.635002   -0.497902
     21          6           0        7.206254    3.222661   -0.238387
     22          6           0        4.458511    5.891226   -0.760213
     23          6           0        7.815416    5.765202   -0.795421
     24          8           0        9.031054    5.720704   -0.760183
     25          6           0        7.384028    7.149309   -1.106241
     26          7           0        8.155915    0.249051    0.261543
     27          6           0        8.867174    1.386017    0.176796
     28          6           0       10.391075    1.031500    0.448170
     29          6           0       10.417476   -0.504743    0.621836
     30          6           0        8.915608   -0.825689    0.545411
     31          6           0       11.327448    1.391062   -0.738427
     32          6           0       11.109611   -0.992813    1.946969
     33          6           0       10.473782   -0.536722    3.263243
     34          7           0        6.029801   -1.620395    0.340506
     35          6           0        7.064052   -2.514622    0.408527
     36          6           0        6.581564   -3.868455    0.391535
     37          6           0        5.172568   -3.746114    0.225137
     38          6           0        4.892024   -2.380125    0.194757
     39          6           0        7.378656   -5.087545    0.268397
     40          6           0        3.907816   -4.477415    0.112841
     41          8           0        3.706727   -5.685999    0.017060
     42          6           0        2.807707   -3.481989    0.073867
     43          6           0        1.935098   -3.751657   -1.161311
     44          8           0        2.097304   -3.287111   -2.274925
     45          8           0        0.828722   -4.539802   -0.782052
     46          6           0       -0.023927   -4.823750   -1.967354
     47          6           0       -4.416754   -0.976378    0.780213
     48          6           0       -5.431499   -1.289524   -0.384345
     49          6           0       -6.377352   -2.212160   -0.486873
     50          6           0       -6.619564   -3.375770    0.505381
     51          6           0       -7.480032   -2.118119   -1.542461
     52          6           0       -8.583304   -1.098770   -1.267462
     53          6           0       -8.564715    0.199151   -1.996150
     54          6           0       -9.797706    0.407570   -2.917877
     55          6           0       -9.502586    1.234854   -4.137393
     56          6           0      -10.911774    1.189507   -2.092533
     57          6           0      -12.024438    0.213480   -1.545368
     58          6           0      -13.430459    0.883499   -1.259352
     59          6           0      -14.021831    0.687204    0.202347
     60          6           0      -15.179626   -0.276175    0.217806
     61          6           0      -14.381280    1.992372    1.015906
     62          6           0      -13.850979    1.929890    2.499349
     63          6           0      -12.480045    2.671737    2.772546
     64          6           0      -11.314595    1.782149    3.338046
     65          6           0      -10.312277    2.740196    4.025815
     66          6           0      -10.673099    1.196884    2.089985
     67          1           0        2.837106    3.517955   -0.517710
     68          1           0        9.345782    3.388469   -0.075800
     69          1           0        9.259433   -2.828905    0.828476
     70          1           0        1.321415   -1.103608   -1.112875
     71          1           0        1.055237    1.653495    0.214646
     72          1           0        0.455273    2.379152   -1.971938
     73          1           0        0.271091    0.635742   -2.235696
     74          1           0        1.817924    1.419635   -2.636059
     75          1           0        0.208201   -0.089827    1.547087
     76          1           0        1.037405   -1.482271    1.823346
     77          1           0       -0.469812   -2.831729    0.872218
     78          1           0       -0.722488   -1.689846   -0.449149
     79          1           0        3.413632    5.581327   -0.773585
     80          1           0        4.551208    6.385262   -1.727031
     81          1           0        4.621579    6.479894    0.142973
     82          1           0        6.822851    7.125965   -2.040149
     83          1           0        8.190489    7.826156   -1.389259
     84          1           0        6.833239    7.627653   -0.295652
     85          1           0       10.640297    1.381621    1.449794
     86          1           0       10.961573   -0.956009   -0.207273
     87          1           0       10.901444    2.191295   -1.342382
     88          1           0       11.499925    0.601598   -1.470974
     89          1           0       12.335702    1.621751   -0.395622
     90          1           0       12.028959   -0.427682    1.791673
     91          1           0       11.294647   -2.066967    1.926562
     92          1           0       10.474292   -1.358764    3.979290
     93          1           0        9.450448   -0.166178    3.208709
     94          1           0       11.123677    0.191602    3.750217
     95          1           0        6.735118   -5.851587   -0.168131
     96          1           0        7.747339   -5.408669    1.241766
     97          1           0        8.190562   -4.873561   -0.427015
     98          1           0        2.267675   -3.640984    1.007256
     99          1           0        0.519191   -5.264427   -2.804007
    100          1           0       -0.582023   -3.954085   -2.315912
    101          1           0       -0.749486   -5.586344   -1.683700
    102          1           0       -4.421859    0.085573    1.027526
    103          1           0       -4.634946   -1.535641    1.689780
    104          1           0       -5.554945   -0.516837   -1.143517
    105          1           0       -6.593948   -4.359394    0.035540
    106          1           0       -7.597591   -3.173341    0.942983
    107          1           0       -5.847333   -3.371364    1.274758
    108          1           0       -8.003814   -3.058919   -1.712400
    109          1           0       -6.990904   -1.745676   -2.441762
    110          1           0       -8.557575   -0.915511   -0.193354
    111          1           0       -9.511712   -1.620865   -1.499577
    112          1           0       -7.680864    0.436536   -2.587180
    113          1           0       -8.624538    0.951217   -1.209424
    114          1           0      -10.133408   -0.588228   -3.204277
    115          1           0       -8.526127    1.717865   -4.146140
    116          1           0      -10.139263    2.084961   -4.384696
    117          1           0       -9.732205    0.627438   -5.013056
    118          1           0      -11.343735    2.063051   -2.581266
    119          1           0      -10.535239    1.623351   -1.166610
    120          1           0      -11.688341   -0.191645   -0.591569
    121          1           0      -12.210691   -0.577131   -2.272479
    122          1           0      -14.175556    0.539322   -1.975912
    123          1           0      -13.217226    1.948160   -1.350086
    124          1           0      -13.245726    0.044112    0.617971
    125          1           0      -15.521453   -0.507177    1.226289
    126          1           0      -14.979104   -1.214106   -0.301132
    127          1           0      -16.020781    0.202379   -0.284477
    128          1           0      -15.439981    2.246240    0.962310
    129          1           0      -13.786051    2.770119    0.538712
    130          1           0      -13.693794    0.864276    2.667145
    131          1           0      -14.642725    2.279828    3.160949
    132          1           0      -12.803257    3.412229    3.504158
    133          1           0      -12.187473    3.194028    1.861742
    134          1           0      -11.599945    0.955244    3.988782
    135          1           0      -10.782045    3.247167    4.867933
    136          1           0       -9.874688    3.440454    3.313679
    137          1           0       -9.579297    2.037874    4.421288
    138          1           0      -10.366917    0.161904    2.241549
    139          1           0       -9.801089    1.805301    1.848617
    140          1           0      -11.305963    1.243069    1.203991
 ---------------------------------------------------------------------

 SCF Done:  E(RPBE1PBE) =  -3005.35632437     A.U. after   15 cycles

 Excitation energies and oscillator strengths:

 Excited State   1:      Singlet-A      1.8965 eV  653.75 nm  f=0.3732  <S**2>=0.000
     245 -> 248       -0.19022
     246 -> 247        0.68840
     246 <- 247       -0.10050
 This state for optimization and/or second-order correction.
 Total Energy, E(TD-HF/TD-DFT) =  -3005.28662889
 Copying the excited state density for this state as the 1-particle RhoCI density.

 Excited State   2:      Singlet-A      2.3098 eV  536.78 nm  f=0.0791  <S**2>=0.000
     245 -> 247        0.63143
     246 -> 248        0.31142

 Excited State   3:      Singlet-A      3.0065 eV  412.39 nm  f=0.0003  <S**2>=0.000
     244 -> 247        0.66743
     244 -> 249       -0.17381
     244 -> 250        0.12232

 Excited State   4:      Singlet-A      3.1479 eV  393.86 nm  f=0.0001  <S**2>=0.000
     242 -> 247        0.53679
     242 -> 249        0.17532
     243 -> 247        0.40245

 Excited State   5:      Singlet-A      3.2219 eV  384.82 nm  f=0.0011  <S**2>=0.000
     241 -> 247       -0.10485
     242 -> 247       -0.38440
     243 -> 247        0.56608

 The electronic state is 1-A.
 Alpha  occ. eigenvalues --  -46.91800 -19.26367 -19.25582 -19.21616 -19.20082
 Alpha  occ. eigenvalues --  -19.18948 -19.18802 -14.41763 -14.41249 -14.39802
 Alpha  occ. eigenvalues --  -14.39015 -10.37653 -10.36892 -10.32116 -10.31911
 Alpha  occ. eigenvalues --  -10.30332 -10.29054 -10.28960 -10.28797 -10.28652
 Alpha  occ. eigenvalues --  -10.28380 -10.28310 -10.28060 -10.27421 -10.27397
 Alpha  occ. eigenvalues --  -10.26836 -10.26819 -10.26370 -10.26094 -10.25907
 Alpha  occ. eigenvalues --  -10.25516 -10.25436 -10.25209 -10.25161 -10.25152
 Alpha  occ. eigenvalues --  -10.25136 -10.25040 -10.24891 -10.24849 -10.24397
 Alpha  occ. eigenvalues --  -10.24337 -10.23909 -10.23769 -10.23731 -10.23723
 Alpha  occ. eigenvalues --  -10.23619 -10.23376 -10.23365 -10.23108 -10.23034
 Alpha  occ. eigenvalues --  -10.22921 -10.22820 -10.22803 -10.22781 -10.22774
 Alpha  occ. eigenvalues --  -10.22730 -10.22713 -10.22592 -10.22547 -10.22503
 Alpha  occ. eigenvalues --  -10.22429 -10.22346 -10.22124 -10.21787 -10.21785
 Alpha  occ. eigenvalues --  -10.21449  -3.13970  -1.86822  -1.86328  -1.86211
 Alpha  occ. eigenvalues --   -1.10824  -1.09425  -1.05289  -1.04328  -1.03074
 Alpha  occ. eigenvalues --   -1.01115  -0.98915  -0.98171  -0.97707  -0.96878
 Alpha  occ. eigenvalues --   -0.87627  -0.85250  -0.83533  -0.83295  -0.83039
 Alpha  occ. eigenvalues --   -0.82574  -0.82389  -0.81757  -0.81408  -0.80807
 Alpha  occ. eigenvalues --   -0.80585  -0.79523  -0.78495  -0.77914  -0.77244
 Alpha  occ. eigenvalues --   -0.76724  -0.75774  -0.75157  -0.74887  -0.74584
 Alpha  occ. eigenvalues --   -0.74327  -0.72529  -0.71812  -0.71498  -0.70560
 Alpha  occ. eigenvalues --   -0.70442  -0.69642  -0.69255  -0.68663  -0.68319
 Alpha  occ. eigenvalues --   -0.67979  -0.66784  -0.65986  -0.64454  -0.64359
 Alpha  occ. eigenvalues --   -0.63069  -0.62170  -0.61931  -0.60817  -0.60237
 Alpha  occ. eigenvalues --   -0.59673  -0.59003  -0.58976  -0.58821  -0.58693
 Alpha  occ. eigenvalues --   -0.57648  -0.57227  -0.57095  -0.56780  -0.54619
 Alpha  occ. eigenvalues --   -0.54343  -0.53719  -0.53572  -0.53174  -0.52534
 Alpha  occ. eigenvalues --   -0.51903  -0.51007  -0.50555  -0.50381  -0.50017
 Alpha  occ. eigenvalues --   -0.49550  -0.49158  -0.49058  -0.48764  -0.48353
 Alpha  occ. eigenvalues --   -0.48149  -0.47929  -0.47777  -0.47737  -0.47236
 Alpha  occ. eigenvalues --   -0.47043  -0.46891  -0.46625  -0.46458  -0.46372
 Alpha  occ. eigenvalues --   -0.46265  -0.46052  -0.46006  -0.45676  -0.45280
 Alpha  occ. eigenvalues --   -0.45121  -0.44901  -0.44698  -0.44377  -0.44301
 Alpha  occ. eigenvalues --   -0.44179  -0.43910  -0.43821  -0.43472  -0.43287
 Alpha  occ. eigenvalues --   -0.43078  -0.42950  -0.42779  -0.42583  -0.42358
 Alpha  occ. eigenvalues --   -0.42134  -0.41941  -0.41540  -0.41395  -0.41305
 Alpha  occ. eigenvalues --   -0.41212  -0.40868  -0.40727  -0.40634  -0.40426
 Alpha  occ. eigenvalues --   -0.40311  -0.40275  -0.40092  -0.39744  -0.39516
 Alpha  occ. eigenvalues --   -0.39331  -0.39130  -0.38842  -0.38716  -0.38637
 Alpha  occ. eigenvalues --   -0.38366  -0.38169  -0.38055  -0.38003  -0.37726
 Alpha  occ. eigenvalues --   -0.37657  -0.37491  -0.37315  -0.37187  -0.36770
 Alpha  occ. eigenvalues --   -0.36695  -0.36609  -0.36460  -0.36147  -0.36009
 Alpha  occ. eigenvalues --   -0.35893  -0.35744  -0.35388  -0.35273  -0.34974
 Alpha  occ. eigenvalues --   -0.34731  -0.34513  -0.34151  -0.34019  -0.33854
 Alpha  occ. eigenvalues --   -0.33078  -0.33071  -0.32625  -0.32494  -0.32402
 Alpha  occ. eigenvalues --   -0.32113  -0.32093  -0.31470  -0.31272  -0.31133
 Alpha  occ. eigenvalues --   -0.31078  -0.30715  -0.30254  -0.29909  -0.29519
 Alpha  occ. eigenvalues --   -0.29272  -0.29008  -0.28796  -0.27264  -0.26519
 Alpha  occ. eigenvalues --   -0.26245  -0.25903  -0.25409  -0.25115  -0.21099
 Alpha  occ. eigenvalues --   -0.18674
 Alpha virt. eigenvalues --   -0.10862  -0.05453  -0.04080  -0.02158  -0.00511
 Alpha virt. eigenvalues --    0.00201   0.00332   0.00481   0.01734   0.03160
 Alpha virt. eigenvalues --    0.03800   0.04730   0.04892   0.05669   0.05762

 Mulliken charges:
               1
     1  Mg   0.986642
     2  C   -0.067100
     3  C   -0.057341
     4  C   -0.050987
     5  C   -0.064433
     6  N   -0.367277
     7  C    0.017423
     8  C   -0.102623
     9  C   -0.128809
    10  C    0.063381
    11  C    0.017862
    12  C    0.006089
    13  C   -0.048907
    14  C    0.242836
    15  O   -0.295315
    16  O   -0.372420
    17  N   -0.492402
    18  C    0.161191
    19  C   -0.178051
    20  C   -0.074879
    21  C    0.168004
    22  C    0.039436
    23  C    0.054932
    24  O   -0.233036
    25  C   -0.010980
    26  N   -0.379639
    27  C    0.074937
    28  C   -0.133504
    29  C   -0.105336
    30  C    0.029469
    31  C    0.008889
    32  C   -0.052093
    33  C   -0.072470
    34  N   -0.510561
    35  C    0.196742
    36  C   -0.210874
    37  C   -0.039615
    38  C    0.201863
    39  C    0.068185
    40  C    0.102660
    41  O   -0.222763
    42  C   -0.045343
    43  C    0.299199
    44  O   -0.241369
    45  O   -0.377693
    46  C    0.121362
    47  C    0.235256
    48  C   -0.102563
    49  C   -0.217113
    50  C    0.013008
    51  C    0.013388
    52  C   -0.049764
    53  C    0.023877
    54  C   -0.223678
    55  C   -0.001360
    56  C   -0.014434
    57  C   -0.094569
    58  C    0.013420
    59  C   -0.240835
    60  C   -0.013226
    61  C    0.002469
    62  C   -0.044304
    63  C   -0.033105
    64  C   -0.243654
    65  C   -0.008503
    66  C   -0.031228
    67  H    0.004375
    68  H    0.032414
    69  H    0.001003
    70  H    0.072448
    71  H    0.053406
    72  H    0.044699
    73  H    0.051457
    74  H    0.052980
    75  H    0.039322
    76  H    0.046004
    77  H    0.082057
    78  H    0.055649
    79  H    0.030595
    80  H    0.070093
    81  H    0.065561
    82  H    0.042709
    83  H    0.046836
    84  H    0.058876
    85  H    0.055178
    86  H    0.048480
    87  H    0.052332
    88  H    0.034566
    89  H    0.043936
    90  H    0.043603
    91  H    0.049284
    92  H    0.039352
    93  H    0.060669
    94  H    0.042662
    95  H    0.063444
    96  H    0.054181
    97  H    0.051123
    98  H    0.092294
    99  H    0.066002
   100  H    0.059651
   101  H    0.054630
   102  H    0.053216
   103  H    0.057280
   104  H    0.021353
   105  H    0.056899
   106  H    0.051184
   107  H    0.038539
   108  H    0.025946
   109  H    0.040200
   110  H    0.033902
   111  H    0.036489
   112  H    0.023583
   113  H    0.024180
   114  H    0.040428
   115  H    0.032972
   116  H    0.022991
   117  H    0.031815
   118  H    0.035576
   119  H    0.021013
   120  H    0.039808
   121  H    0.031589
   122  H    0.028184
   123  H    0.016159
   124  H    0.032378
   125  H    0.031272
   126  H    0.032499
   127  H    0.024936
   128  H    0.034496
   129  H    0.019949
   130  H    0.031927
   131  H    0.032229
   132  H    0.023403
   133  H    0.028489
   134  H    0.040555
   135  H    0.040178
   136  H    0.042280
   137  H    0.034786
   138  H    0.035589
   139  H    0.025786
   140  H    0.055706
 Sum of Mulliken charges =  -0.00000

 Dipole moment (field-independent basis, Debye):
    X=             -3.0257    Y=              2.4707    Z=             -0.2295  Tot=              3.9131
 Quadrupole moment (field-independent basis, Debye-Ang):
   XX=           -369.2100   YY=           -412.6569   ZZ=           -408.2380
   XY=             -6.0704   XZ=             18.9838   YZ=             -0.3168

 Normal termination of Gaussian 16 at Wed Apr 27 14:35:27 2022.
