 Gaussian 16, Revision A.03,
 Gaussian 16:  ES64L-G16RevA.03 25-Dec-2016

 --------------------------------
 #p wB97XD/Def2SVP td=(nstates=5)
 --------------------------------

 -----------------------------------------------------
 step_1201_chromophore_25 TDDFT with wB97XD functional
 -----------------------------------------------------
 Symbolic Z-matrix:
 Charge =  0 Multiplicity = 1

                         Standard orientation:
 ---------------------------------------------------------------------
 Center     Atomic      Atomic             Coordinates (Angstroms)
 Number     Number       Type             X           Y           Z
 ---------------------------------------------------------------------
      1         12           0        6.023200    0.383292    0.252032
      2          6           0        3.568881   -2.097506    0.068823
      3          6           0        3.615107    2.752785   -0.469640
      4          6           0        8.494152    2.705886   -0.056921
      5          6           0        8.431396   -2.157312    0.592830
      6          7           0        3.781926    0.349779   -0.075660
      7          6           0        3.011239   -0.801062   -0.036483
      8          6           0        1.527070   -0.466999   -0.251582
      9          6           0        1.557033    1.099936   -0.578383
     10          6           0        3.099193    1.436603   -0.436730
     11          6           0        0.972468    1.419571   -1.948316
     12          6           0        0.552959   -0.964749    0.994882
     13          6           0       -0.680797   -1.789097    0.634864
     14          6           0       -2.063458   -1.436378    1.278155
     15          8           0       -2.266612   -1.240081    2.495715
     16          8           0       -3.034362   -1.302954    0.299859
     17          7           0        6.062705    2.446119   -0.147025
     18          6           0        4.963037    3.234241   -0.342651
     19          6           0        5.428438    4.648408   -0.466094
     20          6           0        6.840209    4.635002   -0.497902
     21          6           0        7.206254    3.222661   -0.238387
     22          6           0        4.458511    5.891226   -0.760213
     23          6           0        7.815416    5.765202   -0.795421
     24          8           0        9.031054    5.720704   -0.760183
     25          6           0        7.384028    7.149309   -1.106241
     26          7           0        8.155915    0.249051    0.261543
     27          6           0        8.867174    1.386017    0.176796
     28          6           0       10.391075    1.031500    0.448170
     29          6           0       10.417476   -0.504743    0.621836
     30          6           0        8.915608   -0.825689    0.545411
     31          6           0       11.327448    1.391062   -0.738427
     32          6           0       11.109611   -0.992813    1.946969
     33          6           0       10.473782   -0.536722    3.263243
     34          7           0        6.029801   -1.620395    0.340506
     35          6           0        7.064052   -2.514622    0.408527
     36          6           0        6.581564   -3.868455    0.391535
     37          6           0        5.172568   -3.746114    0.225137
     38          6           0        4.892024   -2.380125    0.194757
     39          6           0        7.378656   -5.087545    0.268397
     40          6           0        3.907816   -4.477415    0.112841
     41          8           0        3.706727   -5.685999    0.017060
     42          6           0        2.807707   -3.481989    0.073867
     43          6           0        1.935098   -3.751657   -1.161311
     44          8           0        2.097304   -3.287111   -2.274925
     45          8           0        0.828722   -4.539802   -0.782052
     46          6           0       -0.023927   -4.823750   -1.967354
     47          6           0       -4.416754   -0.976378    0.780213
     48          6           0       -5.431499   -1.289524   -0.384345
     49          6           0       -6.377352   -2.212160   -0.486873
     50          6           0       -6.619564   -3.375770    0.505381
     51          6           0       -7.480032   -2.118119   -1.542461
     52          6           0       -8.583304   -1.098770   -1.267462
     53          6           0       -8.564715    0.199151   -1.996150
     54          6           0       -9.797706    0.407570   -2.917877
     55          6           0       -9.502586    1.234854   -4.137393
     56          6           0      -10.911774    1.189507   -2.092533
     57          6           0      -12.024438    0.213480   -1.545368
     58          6           0      -13.430459    0.883499   -1.259352
     59          6           0      -14.021831    0.687204    0.202347
     60          6           0      -15.179626   -0.276175    0.217806
     61          6           0      -14.381280    1.992372    1.015906
     62          6           0      -13.850979    1.929890    2.499349
     63          6           0      -12.480045    2.671737    2.772546
     64          6           0      -11.314595    1.782149    3.338046
     65          6           0      -10.312277    2.740196    4.025815
     66          6           0      -10.673099    1.196884    2.089985
     67          1           0        2.837106    3.517955   -0.517710
     68          1           0        9.345782    3.388469   -0.075800
     69          1           0        9.259433   -2.828905    0.828476
     70          1           0        1.321415   -1.103608   -1.112875
     71          1           0        1.055237    1.653495    0.214646
     72          1           0        0.455273    2.379152   -1.971938
     73          1           0        0.271091    0.635742   -2.235696
     74          1           0        1.817924    1.419635   -2.636059
     75          1           0        0.208201   -0.089827    1.547087
     76          1           0        1.037405   -1.482271    1.823346
     77          1           0       -0.469812   -2.831729    0.872218
     78          1           0       -0.722488   -1.689846   -0.449149
     79          1           0        3.413632    5.581327   -0.773585
     80          1           0        4.551208    6.385262   -1.727031
     81          1           0        4.621579    6.479894    0.142973
     82          1           0        6.822851    7.125965   -2.040149
     83          1           0        8.190489    7.826156   -1.389259
     84          1           0        6.833239    7.627653   -0.295652
     85          1           0       10.640297    1.381621    1.449794
     86          1           0       10.961573   -0.956009   -0.207273
     87          1           0       10.901444    2.191295   -1.342382
     88          1           0       11.499925    0.601598   -1.470974
     89          1           0       12.335702    1.621751   -0.395622
     90          1           0       12.028959   -0.427682    1.791673
     91          1           0       11.294647   -2.066967    1.926562
     92          1           0       10.474292   -1.358764    3.979290
     93          1           0        9.450448   -0.166178    3.208709
     94          1           0       11.123677    0.191602    3.750217
     95          1           0        6.735118   -5.851587   -0.168131
     96          1           0        7.747339   -5.408669    1.241766
     97          1           0        8.190562   -4.873561   -0.427015
     98          1           0        2.267675   -3.640984    1.007256
     99          1           0        0.519191   -5.264427   -2.804007
    100          1           0       -0.582023   -3.954085   -2.315912
    101          1           0       -0.749486   -5.586344   -1.683700
    102          1           0       -4.421859    0.085573    1.027526
    103          1           0       -4.634946   -1.535641    1.689780
    104          1           0       -5.554945   -0.516837   -1.143517
    105          1           0       -6.593948   -4.359394    0.035540
    106          1           0       -7.597591   -3.173341    0.942983
    107          1           0       -5.847333   -3.371364    1.274758
    108          1           0       -8.003814   -3.058919   -1.712400
    109          1           0       -6.990904   -1.745676   -2.441762
    110          1           0       -8.557575   -0.915511   -0.193354
    111          1           0       -9.511712   -1.620865   -1.499577
    112          1           0       -7.680864    0.436536   -2.587180
    113          1           0       -8.624538    0.951217   -1.209424
    114          1           0      -10.133408   -0.588228   -3.204277
    115          1           0       -8.526127    1.717865   -4.146140
    116          1           0      -10.139263    2.084961   -4.384696
    117          1           0       -9.732205    0.627438   -5.013056
    118          1           0      -11.343735    2.063051   -2.581266
    119          1           0      -10.535239    1.623351   -1.166610
    120          1           0      -11.688341   -0.191645   -0.591569
    121          1           0      -12.210691   -0.577131   -2.272479
    122          1           0      -14.175556    0.539322   -1.975912
    123          1           0      -13.217226    1.948160   -1.350086
    124          1           0      -13.245726    0.044112    0.617971
    125          1           0      -15.521453   -0.507177    1.226289
    126          1           0      -14.979104   -1.214106   -0.301132
    127          1           0      -16.020781    0.202379   -0.284477
    128          1           0      -15.439981    2.246240    0.962310
    129          1           0      -13.786051    2.770119    0.538712
    130          1           0      -13.693794    0.864276    2.667145
    131          1           0      -14.642725    2.279828    3.160949
    132          1           0      -12.803257    3.412229    3.504158
    133          1           0      -12.187473    3.194028    1.861742
    134          1           0      -11.599945    0.955244    3.988782
    135          1           0      -10.782045    3.247167    4.867933
    136          1           0       -9.874688    3.440454    3.313679
    137          1           0       -9.579297    2.037874    4.421288
    138          1           0      -10.366917    0.161904    2.241549
    139          1           0       -9.801089    1.805301    1.848617
    140          1           0      -11.305963    1.243069    1.203991
 ---------------------------------------------------------------------

 SCF Done:  E(RwB97XD) =  -3007.86899260     A.U. after   17 cycles

 Excitation energies and oscillator strengths:

 Excited State   1:      Singlet-A      1.6837 eV  736.37 nm  f=0.3797  <S**2>=0.000
     245 -> 248       -0.20137
     246 -> 247        0.67952
     245 <- 248       -0.12113
 This state for optimization and/or second-order correction.
 Total Energy, E(TD-HF/TD-DFT) =  -3007.80711713
 Copying the excited state density for this state as the 1-particle RhoCI density.

 Excited State   2:      Singlet-A      2.2450 eV  552.26 nm  f=0.0736  <S**2>=0.000
     245 -> 247        0.61476
     246 -> 248        0.33930

 Excited State   3:      Singlet-A      3.5136 eV  352.87 nm  f=0.7884  <S**2>=0.000
     242 -> 247       -0.13595
     245 -> 247       -0.31543
     246 -> 248        0.60109
     245 <- 247        0.11727

 Excited State   4:      Singlet-A      3.5568 eV  348.58 nm  f=0.0015  <S**2>=0.000
     243 -> 247        0.50066
     243 -> 248        0.12008
     243 -> 249       -0.34526
     243 -> 250        0.26610
     244 -> 247       -0.13161

 Excited State   5:      Singlet-A      3.5847 eV  345.87 nm  f=0.0141  <S**2>=0.000
     242 -> 247       -0.22037
     244 -> 247        0.62741

 The electronic state is 1-A.
 Alpha  occ. eigenvalues --  -46.94739 -19.30912 -19.30138 -19.26306 -19.24742
 Alpha  occ. eigenvalues --  -19.23732 -19.23710 -14.46892 -14.46281 -14.44820
 Alpha  occ. eigenvalues --  -14.43891 -10.44471 -10.43669 -10.39072 -10.38716
 Alpha  occ. eigenvalues --  -10.36864 -10.35357 -10.35297 -10.35229 -10.35170
 Alpha  occ. eigenvalues --  -10.34844 -10.34781 -10.34218 -10.34100 -10.33549
 Alpha  occ. eigenvalues --  -10.33239 -10.33036 -10.32648 -10.32294 -10.32217
 Alpha  occ. eigenvalues --  -10.32084 -10.31818 -10.31771 -10.31718 -10.31489
 Alpha  occ. eigenvalues --  -10.31362 -10.31317 -10.31290 -10.31003 -10.30694
 Alpha  occ. eigenvalues --  -10.30583 -10.30162 -10.30148 -10.30143 -10.30071
 Alpha  occ. eigenvalues --  -10.29997 -10.29803 -10.29732 -10.29422 -10.29372
 Alpha  occ. eigenvalues --  -10.29288 -10.29191 -10.29153 -10.29140 -10.29136
 Alpha  occ. eigenvalues --  -10.29128 -10.29078 -10.28935 -10.28928 -10.28897
 Alpha  occ. eigenvalues --  -10.28777 -10.28695 -10.28552 -10.28229 -10.28194
 Alpha  occ. eigenvalues --  -10.27900  -3.20761  -1.94363  -1.93870  -1.93748
 Alpha  occ. eigenvalues --   -1.18216  -1.16813  -1.12880  -1.11768  -1.10424
 Alpha  occ. eigenvalues --   -1.08462  -1.06257  -1.05541  -1.05086  -1.04310
 Alpha  occ. eigenvalues --   -0.95190  -0.92909  -0.91207  -0.90850  -0.90699
 Alpha  occ. eigenvalues --   -0.90217  -0.90011  -0.89413  -0.88989  -0.88463
 Alpha  occ. eigenvalues --   -0.88325  -0.87173  -0.86145  -0.85523  -0.84851
 Alpha  occ. eigenvalues --   -0.84390  -0.83423  -0.82917  -0.82554  -0.82269
 Alpha  occ. eigenvalues --   -0.81991  -0.80269  -0.79457  -0.79112  -0.78215
 Alpha  occ. eigenvalues --   -0.78042  -0.77345  -0.76848  -0.76309  -0.75979
 Alpha  occ. eigenvalues --   -0.75619  -0.74293  -0.73511  -0.72080  -0.71909
 Alpha  occ. eigenvalues --   -0.70608  -0.69807  -0.69552  -0.68444  -0.67771
 Alpha  occ. eigenvalues --   -0.67076  -0.66653  -0.66412  -0.66322  -0.66287
 Alpha  occ. eigenvalues --   -0.65319  -0.64779  -0.64666  -0.64171  -0.62151
 Alpha  occ. eigenvalues --   -0.61735  -0.61244  -0.60970  -0.60702  -0.59900
 Alpha  occ. eigenvalues --   -0.59299  -0.58478  -0.58030  -0.57794  -0.57433
 Alpha  occ. eigenvalues --   -0.56942  -0.56563  -0.56400  -0.56155  -0.55795
 Alpha  occ. eigenvalues --   -0.55563  -0.55363  -0.55167  -0.55083  -0.54669
 Alpha  occ. eigenvalues --   -0.54618  -0.54291  -0.53990  -0.53824  -0.53687
 Alpha  occ. eigenvalues --   -0.53616  -0.53394  -0.53377  -0.53040  -0.52612
 Alpha  occ. eigenvalues --   -0.52514  -0.52238  -0.51977  -0.51695  -0.51635
 Alpha  occ. eigenvalues --   -0.51524  -0.51236  -0.51129  -0.50770  -0.50642
 Alpha  occ. eigenvalues --   -0.50375  -0.50290  -0.50046  -0.49905  -0.49647
 Alpha  occ. eigenvalues --   -0.49481  -0.49171  -0.48824  -0.48674  -0.48508
 Alpha  occ. eigenvalues --   -0.48452  -0.48103  -0.47858  -0.47788  -0.47636
 Alpha  occ. eigenvalues --   -0.47527  -0.47482  -0.47255  -0.46844  -0.46618
 Alpha  occ. eigenvalues --   -0.46497  -0.46340  -0.46042  -0.45812  -0.45772
 Alpha  occ. eigenvalues --   -0.45468  -0.45376  -0.45221  -0.45127  -0.44930
 Alpha  occ. eigenvalues --   -0.44758  -0.44666  -0.44433  -0.44311  -0.44029
 Alpha  occ. eigenvalues --   -0.43849  -0.43706  -0.43561  -0.43205  -0.43076
 Alpha  occ. eigenvalues --   -0.42923  -0.42832  -0.42346  -0.42305  -0.42028
 Alpha  occ. eigenvalues --   -0.41815  -0.41576  -0.41094  -0.40984  -0.40870
 Alpha  occ. eigenvalues --   -0.40089  -0.40004  -0.39681  -0.39507  -0.39392
 Alpha  occ. eigenvalues --   -0.39153  -0.39136  -0.38497  -0.38290  -0.38162
 Alpha  occ. eigenvalues --   -0.37925  -0.37620  -0.37355  -0.36850  -0.36355
 Alpha  occ. eigenvalues --   -0.36074  -0.35862  -0.35677  -0.33905  -0.33276
 Alpha  occ. eigenvalues --   -0.33016  -0.32859  -0.32443  -0.31859  -0.26086
 Alpha  occ. eigenvalues --   -0.22823
 Alpha virt. eigenvalues --   -0.06691  -0.00115   0.02212   0.04333   0.06091
 Alpha virt. eigenvalues --    0.06406   0.07063   0.07224   0.08474   0.09436
 Alpha virt. eigenvalues --    0.10318   0.11391   0.11731   0.12380   0.12435

 Mulliken charges:
               1
     1  Mg   0.976224
     2  C   -0.071980
     3  C   -0.073421
     4  C   -0.075003
     5  C   -0.085954
     6  N   -0.331178
     7  C   -0.017924
     8  C   -0.072317
     9  C   -0.100860
    10  C    0.045811
    11  C    0.027633
    12  C    0.011306
    13  C   -0.026247
    14  C    0.234453
    15  O   -0.293132
    16  O   -0.372781
    17  N   -0.460182
    18  C    0.156675
    19  C   -0.171744
    20  C   -0.068209
    21  C    0.162299
    22  C    0.053297
    23  C    0.053439
    24  O   -0.226762
    25  C   -0.000681
    26  N   -0.342179
    27  C    0.063674
    28  C   -0.104906
    29  C   -0.080452
    30  C    0.010767
    31  C    0.019593
    32  C   -0.033857
    33  C   -0.058562
    34  N   -0.472921
    35  C    0.192610
    36  C   -0.210120
    37  C   -0.036770
    38  C    0.190609
    39  C    0.079779
    40  C    0.080986
    41  O   -0.212837
    42  C   -0.007745
    43  C    0.278368
    44  O   -0.235670
    45  O   -0.377163
    46  C    0.136936
    47  C    0.249030
    48  C   -0.110970
    49  C   -0.204370
    50  C    0.028152
    51  C    0.032528
    52  C   -0.032748
    53  C    0.039556
    54  C   -0.189641
    55  C    0.007847
    56  C    0.004689
    57  C   -0.069646
    58  C    0.025063
    59  C   -0.204435
    60  C   -0.001330
    61  C    0.018904
    62  C   -0.028309
    63  C   -0.014102
    64  C   -0.215452
    65  C    0.004240
    66  C   -0.002321
    67  H   -0.002940
    68  H    0.027421
    69  H   -0.004646
    70  H    0.052898
    71  H    0.044122
    72  H    0.040031
    73  H    0.045854
    74  H    0.046794
    75  H    0.031658
    76  H    0.039573
    77  H    0.073770
    78  H    0.046165
    79  H    0.026850
    80  H    0.066620
    81  H    0.060093
    82  H    0.036672
    83  H    0.046202
    84  H    0.054646
    85  H    0.043141
    86  H    0.037767
    87  H    0.045763
    88  H    0.029075
    89  H    0.038688
    90  H    0.032249
    91  H    0.042952
    92  H    0.034409
    93  H    0.052417
    94  H    0.037218
    95  H    0.059372
    96  H    0.049063
    97  H    0.044760
    98  H    0.085551
    99  H    0.061562
   100  H    0.055109
   101  H    0.051342
   102  H    0.049950
   103  H    0.051649
   104  H    0.016297
   105  H    0.052042
   106  H    0.044485
   107  H    0.031840
   108  H    0.020423
   109  H    0.030356
   110  H    0.023550
   111  H    0.025818
   112  H    0.013423
   113  H    0.014010
   114  H    0.027118
   115  H    0.027528
   116  H    0.016691
   117  H    0.026512
   118  H    0.026326
   119  H    0.006456
   120  H    0.024943
   121  H    0.022923
   122  H    0.021471
   123  H    0.003897
   124  H    0.013799
   125  H    0.025068
   126  H    0.026753
   127  H    0.017053
   128  H    0.028683
   129  H    0.006909
   130  H    0.018410
   131  H    0.026504
   132  H    0.015070
   133  H    0.017720
   134  H    0.032941
   135  H    0.034281
   136  H    0.035628
   137  H    0.028417
   138  H    0.030715
   139  H    0.018341
   140  H    0.024193
 Sum of Mulliken charges =  -0.00000

 Dipole moment (field-independent basis, Debye):
    X=             -3.0821    Y=              2.8923    Z=             -0.2953  Tot=              4.2370
 Quadrupole moment (field-independent basis, Debye-Ang):
   XX=           -370.6100   YY=           -410.3884   ZZ=           -408.0081
   XY=             -3.0388   XZ=             18.3782   YZ=             -0.5221

 Normal termination of Gaussian 16 at Wed Apr 27 15:00:09 2022.
