 Gaussian 16, Revision A.03,
 Gaussian 16:  ES64L-G16RevA.03 25-Dec-2016

 --------------------
 #p ZINDO=(nstates=5)
 --------------------

 ------------------------------
 step_1201_chromophore_25 ZINDO
 ------------------------------
 Symbolic Z-matrix:
 Charge =  0 Multiplicity = 1

                         Standard orientation:
 ---------------------------------------------------------------------
 Center     Atomic      Atomic             Coordinates (Angstroms)
 Number     Number       Type             X           Y           Z
 ---------------------------------------------------------------------
      1         12           0        6.023200    0.383292    0.252032
      2          6           0        3.568881   -2.097506    0.068823
      3          6           0        3.615107    2.752785   -0.469640
      4          6           0        8.494152    2.705886   -0.056921
      5          6           0        8.431396   -2.157312    0.592830
      6          7           0        3.781926    0.349779   -0.075660
      7          6           0        3.011239   -0.801062   -0.036483
      8          6           0        1.527070   -0.466999   -0.251582
      9          6           0        1.557033    1.099936   -0.578383
     10          6           0        3.099193    1.436603   -0.436730
     11          6           0        0.972468    1.419571   -1.948316
     12          6           0        0.552959   -0.964749    0.994882
     13          6           0       -0.680797   -1.789097    0.634864
     14          6           0       -2.063458   -1.436378    1.278155
     15          8           0       -2.266612   -1.240081    2.495715
     16          8           0       -3.034362   -1.302954    0.299859
     17          7           0        6.062705    2.446119   -0.147025
     18          6           0        4.963037    3.234241   -0.342651
     19          6           0        5.428438    4.648408   -0.466094
     20          6           0        6.840209    4.635002   -0.497902
     21          6           0        7.206254    3.222661   -0.238387
     22          6           0        4.458511    5.891226   -0.760213
     23          6           0        7.815416    5.765202   -0.795421
     24          8           0        9.031054    5.720704   -0.760183
     25          6           0        7.384028    7.149309   -1.106241
     26          7           0        8.155915    0.249051    0.261543
     27          6           0        8.867174    1.386017    0.176796
     28          6           0       10.391075    1.031500    0.448170
     29          6           0       10.417476   -0.504743    0.621836
     30          6           0        8.915608   -0.825689    0.545411
     31          6           0       11.327448    1.391062   -0.738427
     32          6           0       11.109611   -0.992813    1.946969
     33          6           0       10.473782   -0.536722    3.263243
     34          7           0        6.029801   -1.620395    0.340506
     35          6           0        7.064052   -2.514622    0.408527
     36          6           0        6.581564   -3.868455    0.391535
     37          6           0        5.172568   -3.746114    0.225137
     38          6           0        4.892024   -2.380125    0.194757
     39          6           0        7.378656   -5.087545    0.268397
     40          6           0        3.907816   -4.477415    0.112841
     41          8           0        3.706727   -5.685999    0.017060
     42          6           0        2.807707   -3.481989    0.073867
     43          6           0        1.935098   -3.751657   -1.161311
     44          8           0        2.097304   -3.287111   -2.274925
     45          8           0        0.828722   -4.539802   -0.782052
     46          6           0       -0.023927   -4.823750   -1.967354
     47          6           0       -4.416754   -0.976378    0.780213
     48          6           0       -5.431499   -1.289524   -0.384345
     49          6           0       -6.377352   -2.212160   -0.486873
     50          6           0       -6.619564   -3.375770    0.505381
     51          6           0       -7.480032   -2.118119   -1.542461
     52          6           0       -8.583304   -1.098770   -1.267462
     53          6           0       -8.564715    0.199151   -1.996150
     54          6           0       -9.797706    0.407570   -2.917877
     55          6           0       -9.502586    1.234854   -4.137393
     56          6           0      -10.911774    1.189507   -2.092533
     57          6           0      -12.024438    0.213480   -1.545368
     58          6           0      -13.430459    0.883499   -1.259352
     59          6           0      -14.021831    0.687204    0.202347
     60          6           0      -15.179626   -0.276175    0.217806
     61          6           0      -14.381280    1.992372    1.015906
     62          6           0      -13.850979    1.929890    2.499349
     63          6           0      -12.480045    2.671737    2.772546
     64          6           0      -11.314595    1.782149    3.338046
     65          6           0      -10.312277    2.740196    4.025815
     66          6           0      -10.673099    1.196884    2.089985
     67          1           0        2.837106    3.517955   -0.517710
     68          1           0        9.345782    3.388469   -0.075800
     69          1           0        9.259433   -2.828905    0.828476
     70          1           0        1.321415   -1.103608   -1.112875
     71          1           0        1.055237    1.653495    0.214646
     72          1           0        0.455273    2.379152   -1.971938
     73          1           0        0.271091    0.635742   -2.235696
     74          1           0        1.817924    1.419635   -2.636059
     75          1           0        0.208201   -0.089827    1.547087
     76          1           0        1.037405   -1.482271    1.823346
     77          1           0       -0.469812   -2.831729    0.872218
     78          1           0       -0.722488   -1.689846   -0.449149
     79          1           0        3.413632    5.581327   -0.773585
     80          1           0        4.551208    6.385262   -1.727031
     81          1           0        4.621579    6.479894    0.142973
     82          1           0        6.822851    7.125965   -2.040149
     83          1           0        8.190489    7.826156   -1.389259
     84          1           0        6.833239    7.627653   -0.295652
     85          1           0       10.640297    1.381621    1.449794
     86          1           0       10.961573   -0.956009   -0.207273
     87          1           0       10.901444    2.191295   -1.342382
     88          1           0       11.499925    0.601598   -1.470974
     89          1           0       12.335702    1.621751   -0.395622
     90          1           0       12.028959   -0.427682    1.791673
     91          1           0       11.294647   -2.066967    1.926562
     92          1           0       10.474292   -1.358764    3.979290
     93          1           0        9.450448   -0.166178    3.208709
     94          1           0       11.123677    0.191602    3.750217
     95          1           0        6.735118   -5.851587   -0.168131
     96          1           0        7.747339   -5.408669    1.241766
     97          1           0        8.190562   -4.873561   -0.427015
     98          1           0        2.267675   -3.640984    1.007256
     99          1           0        0.519191   -5.264427   -2.804007
    100          1           0       -0.582023   -3.954085   -2.315912
    101          1           0       -0.749486   -5.586344   -1.683700
    102          1           0       -4.421859    0.085573    1.027526
    103          1           0       -4.634946   -1.535641    1.689780
    104          1           0       -5.554945   -0.516837   -1.143517
    105          1           0       -6.593948   -4.359394    0.035540
    106          1           0       -7.597591   -3.173341    0.942983
    107          1           0       -5.847333   -3.371364    1.274758
    108          1           0       -8.003814   -3.058919   -1.712400
    109          1           0       -6.990904   -1.745676   -2.441762
    110          1           0       -8.557575   -0.915511   -0.193354
    111          1           0       -9.511712   -1.620865   -1.499577
    112          1           0       -7.680864    0.436536   -2.587180
    113          1           0       -8.624538    0.951217   -1.209424
    114          1           0      -10.133408   -0.588228   -3.204277
    115          1           0       -8.526127    1.717865   -4.146140
    116          1           0      -10.139263    2.084961   -4.384696
    117          1           0       -9.732205    0.627438   -5.013056
    118          1           0      -11.343735    2.063051   -2.581266
    119          1           0      -10.535239    1.623351   -1.166610
    120          1           0      -11.688341   -0.191645   -0.591569
    121          1           0      -12.210691   -0.577131   -2.272479
    122          1           0      -14.175556    0.539322   -1.975912
    123          1           0      -13.217226    1.948160   -1.350086
    124          1           0      -13.245726    0.044112    0.617971
    125          1           0      -15.521453   -0.507177    1.226289
    126          1           0      -14.979104   -1.214106   -0.301132
    127          1           0      -16.020781    0.202379   -0.284477
    128          1           0      -15.439981    2.246240    0.962310
    129          1           0      -13.786051    2.770119    0.538712
    130          1           0      -13.693794    0.864276    2.667145
    131          1           0      -14.642725    2.279828    3.160949
    132          1           0      -12.803257    3.412229    3.504158
    133          1           0      -12.187473    3.194028    1.861742
    134          1           0      -11.599945    0.955244    3.988782
    135          1           0      -10.782045    3.247167    4.867933
    136          1           0       -9.874688    3.440454    3.313679
    137          1           0       -9.579297    2.037874    4.421288
    138          1           0      -10.366917    0.161904    2.241549
    139          1           0       -9.801089    1.805301    1.848617
    140          1           0      -11.305963    1.243069    1.203991
 ---------------------------------------------------------------------

 SCF Done:  E(RZINDO/S) =  -473.978497567     A.U. after   20 cycles

 Excitation energies and oscillator strengths:

 Excited State   1:      Singlet-A      1.2971 eV  955.85 nm  f=0.5879  <S**2>=0.000
     175 ->178        -0.19984
     176 ->177         0.66080
 This state for optimization and/or second-order correction.
 Total Energy, E(CIS/TDA) =  -473.930829868
 Copying the excited state density for this state as the 1-particle RhoCI density.

 Excited State   2:      Singlet-A      1.9427 eV  638.22 nm  f=0.0108  <S**2>=0.000
     175 ->177         0.50698
     176 ->178         0.46996

 Excited State   3:      Singlet-A      2.7720 eV  447.28 nm  f=0.0006  <S**2>=0.000
     169 ->177         0.28044
     169 ->179        -0.39977
     169 ->180         0.27723
     169 ->182        -0.12780
     169 ->186        -0.21035
     169 ->187         0.13149
     170 ->179         0.11451

 Excited State   4:      Singlet-A      2.9797 eV  416.09 nm  f=0.4654  <S**2>=0.000
     175 ->177        -0.27220
     176 ->178         0.33647
     176 ->179         0.49197
     176 ->180         0.11763
     176 ->182        -0.11697

 Excited State   5:      Singlet-A      3.0131 eV  411.49 nm  f=0.0039  <S**2>=0.000
     170 ->177         0.28471
     170 ->178         0.18178
     170 ->179         0.31155
     170 ->180         0.29215
     170 ->182        -0.17988
     170 ->186         0.21019
     170 ->201        -0.11741
     176 ->179         0.11345

 The electronic state is 1-A.
 Alpha  occ. eigenvalues --   -1.84375  -1.80583  -1.78180  -1.71046  -1.70212
 Alpha  occ. eigenvalues --   -1.68856  -1.65435  -1.61853  -1.61251  -1.59269
 Alpha  occ. eigenvalues --   -1.54557  -1.51179  -1.48273  -1.47845  -1.46541
 Alpha  occ. eigenvalues --   -1.43824  -1.42094  -1.39238  -1.37766  -1.36880
 Alpha  occ. eigenvalues --   -1.35257  -1.34412  -1.32771  -1.31980  -1.28406
 Alpha  occ. eigenvalues --   -1.28128  -1.24525  -1.20832  -1.20119  -1.18228
 Alpha  occ. eigenvalues --   -1.16925  -1.15483  -1.14556  -1.14426  -1.12503
 Alpha  occ. eigenvalues --   -1.11252  -1.10716  -1.09888  -1.04875  -1.03959
 Alpha  occ. eigenvalues --   -1.03673  -1.00584  -0.98196  -0.97668  -0.97170
 Alpha  occ. eigenvalues --   -0.96375  -0.94617  -0.93608  -0.93336  -0.91504
 Alpha  occ. eigenvalues --   -0.90333  -0.89558  -0.89353  -0.88281  -0.87834
 Alpha  occ. eigenvalues --   -0.85810  -0.83504  -0.82183  -0.81059  -0.80439
 Alpha  occ. eigenvalues --   -0.80066  -0.78661  -0.77132  -0.76736  -0.76033
 Alpha  occ. eigenvalues --   -0.75900  -0.75328  -0.74956  -0.74363  -0.74261
 Alpha  occ. eigenvalues --   -0.72988  -0.72749  -0.72088  -0.71501  -0.71198
 Alpha  occ. eigenvalues --   -0.70701  -0.70170  -0.68737  -0.68372  -0.67906
 Alpha  occ. eigenvalues --   -0.67249  -0.67004  -0.66624  -0.66224  -0.65454
 Alpha  occ. eigenvalues --   -0.65327  -0.65164  -0.64673  -0.63726  -0.63430
 Alpha  occ. eigenvalues --   -0.63092  -0.62980  -0.62528  -0.62254  -0.62099
 Alpha  occ. eigenvalues --   -0.61502  -0.61308  -0.61145  -0.60660  -0.60331
 Alpha  occ. eigenvalues --   -0.60250  -0.59960  -0.59371  -0.58922  -0.58255
 Alpha  occ. eigenvalues --   -0.58034  -0.57608  -0.57316  -0.56503  -0.56272
 Alpha  occ. eigenvalues --   -0.55570  -0.55322  -0.55163  -0.54957  -0.54761
 Alpha  occ. eigenvalues --   -0.53549  -0.53149  -0.52990  -0.52789  -0.52493
 Alpha  occ. eigenvalues --   -0.52383  -0.52235  -0.52012  -0.51770  -0.51486
 Alpha  occ. eigenvalues --   -0.51231  -0.51117  -0.50757  -0.50590  -0.50292
 Alpha  occ. eigenvalues --   -0.50046  -0.49920  -0.49664  -0.49243  -0.49071
 Alpha  occ. eigenvalues --   -0.48669  -0.48658  -0.48455  -0.48000  -0.47925
 Alpha  occ. eigenvalues --   -0.47798  -0.47688  -0.47341  -0.46884  -0.46461
 Alpha  occ. eigenvalues --   -0.46271  -0.46173  -0.45991  -0.45799  -0.45440
 Alpha  occ. eigenvalues --   -0.45034  -0.44785  -0.44469  -0.44121  -0.43883
 Alpha  occ. eigenvalues --   -0.43257  -0.42873  -0.42738  -0.42406  -0.42338
 Alpha  occ. eigenvalues --   -0.42203  -0.42069  -0.41781  -0.39444  -0.39326
 Alpha  occ. eigenvalues --   -0.38963  -0.36791  -0.35169  -0.35032  -0.34782
 Alpha  occ. eigenvalues --   -0.34299  -0.33688  -0.32734  -0.32175  -0.26779
 Alpha  occ. eigenvalues --   -0.21740
 Alpha virt. eigenvalues --   -0.08209  -0.02467  -0.00681   0.01002   0.01174
 Alpha virt. eigenvalues --    0.02308   0.02614   0.02981   0.04493   0.04774
 Alpha virt. eigenvalues --    0.06156   0.06465   0.06792   0.07183   0.07806

 Mulliken charges:
               1
     1  Mg   0.424293
     2  C   -0.037979
     3  C   -0.086616
     4  C   -0.063286
     5  C   -0.079367
     6  N   -0.271749
     7  C    0.100622
     8  C   -0.006979
     9  C    0.009664
    10  C    0.144652
    11  C   -0.046120
    12  C   -0.031660
    13  C    0.007449
    14  C    0.464600
    15  O   -0.521049
    16  O   -0.269185
    17  N   -0.322274
    18  C    0.123985
    19  C    0.007056
    20  C   -0.034981
    21  C    0.140351
    22  C   -0.052043
    23  C    0.334284
    24  O   -0.515678
    25  C   -0.023493
    26  N   -0.254748
    27  C    0.144280
    28  C   -0.004961
    29  C   -0.007821
    30  C    0.104599
    31  C   -0.049726
    32  C   -0.031268
    33  C   -0.053316
    34  N   -0.324763
    35  C    0.098327
    36  C    0.015932
    37  C   -0.066067
    38  C    0.108412
    39  C   -0.035047
    40  C    0.341515
    41  O   -0.535294
    42  C    0.056326
    43  C    0.488018
    44  O   -0.507470
    45  O   -0.268206
    46  C    0.075587
    47  C    0.106648
    48  C   -0.097826
    49  C    0.011687
    50  C   -0.047362
    51  C   -0.023636
    52  C   -0.024771
    53  C   -0.029862
    54  C   -0.005717
    55  C   -0.059993
    56  C   -0.043564
    57  C   -0.046890
    58  C   -0.048571
    59  C   -0.021920
    60  C   -0.052411
    61  C   -0.034675
    62  C   -0.046888
    63  C   -0.035918
    64  C   -0.010810
    65  C   -0.056426
    66  C   -0.059072
    67  H    0.023486
    68  H    0.046657
    69  H    0.034913
    70  H    0.046605
    71  H    0.033966
    72  H    0.021290
    73  H    0.023583
    74  H    0.027181
    75  H    0.023064
    76  H    0.029232
    77  H    0.047614
    78  H    0.032984
    79  H    0.019233
    80  H    0.041354
    81  H    0.035612
    82  H    0.026202
    83  H    0.034751
    84  H    0.035924
    85  H    0.042795
    86  H    0.031234
    87  H    0.024455
    88  H    0.020868
    89  H    0.019746
    90  H    0.014816
    91  H    0.027303
    92  H    0.012826
    93  H    0.029689
    94  H    0.017252
    95  H    0.032824
    96  H    0.034286
    97  H    0.026924
    98  H    0.064240
    99  H    0.049600
   100  H    0.040599
   101  H    0.024967
   102  H    0.045984
   103  H    0.054767
   104  H    0.023329
   105  H    0.031116
   106  H    0.030402
   107  H    0.021359
   108  H    0.022303
   109  H    0.021787
   110  H    0.016111
   111  H    0.016144
   112  H    0.022656
   113  H    0.014621
   114  H    0.029737
   115  H    0.021520
   116  H    0.012576
   117  H    0.013158
   118  H    0.025656
   119  H    0.015315
   120  H    0.024458
   121  H    0.017934
   122  H    0.024424
   123  H    0.016661
   124  H    0.021493
   125  H    0.013554
   126  H    0.013761
   127  H    0.009963
   128  H    0.029752
   129  H    0.015010
   130  H    0.016974
   131  H    0.020275
   132  H    0.007941
   133  H    0.028208
   134  H    0.033907
   135  H    0.016623
   136  H    0.029078
   137  H    0.013291
   138  H    0.012294
   139  H    0.015222
   140  H    0.021728
 Sum of Mulliken charges =  -0.00000

 Dipole moment (field-independent basis, Debye):
    X=             -3.3248    Y=              5.6977    Z=             -0.1896  Tot=              6.5995
 N-N= 4.256152880865D+03 E-N= 0.000000000000D+00  KE=-9.186229052204D+03
 Leave Link  601 at Wed Apr 27 15:13:56 2022, MaxMem=  6710886400 cpu:               2.6 elap:               0.1
 (Enter /sw/apps/gaussian-16.0/g16/l9999.exe)
 1\1\GINC-BP1-COMPUTE146\SP\RZINDO CIS\STO-3G\C55H74Mg1N4O6\OF15641\27-
 Apr-2022\0\\#p ZINDO=(nstates=5)\\step_1201_chromophore_25 ZINDO\\0,1\
 Mg,0,-2.157,34.572,26.15\C,0,-3.323,32.932,29.007\C,0,-0.75,36.994,28.
 172\C,0,-1.466,36.404,23.364\C,0,-3.959,32.262,24.204\N,0,-1.967,34.88
 9,28.385\C,0,-2.489,34.027,29.336\C,0,-2.142,34.509,30.753\C,0,-1.43,3
 5.918,30.487\C,0,-1.431,35.994,28.904\C,0,-2.154,37.073,31.167\C,0,-1.
 302,33.389,31.642\C,0,-1.831,33.06,33.036\C,0,-0.841,33.002,34.247\O,0

 Normal termination of Gaussian 16 at Wed Apr 27 15:13:56 2022.
