 Gaussian 16, Revision A.03,
 Gaussian 16:  ES64L-G16RevA.03 25-Dec-2016

 ------------------------------
 #p blyp/Def2SVP td=(nstates=5)
 ------------------------------

 ---------------------------------------------------
 step_1101_chromophore_24 TDDFT with blyp functional
 ---------------------------------------------------
 Symbolic Z-matrix:
 Charge =  0 Multiplicity = 1

                         Standard orientation:
 ---------------------------------------------------------------------
 Center     Atomic      Atomic             Coordinates (Angstroms)
 Number     Number       Type             X           Y           Z
 ---------------------------------------------------------------------
      1         12           0        5.043247    1.029868    0.049046
      2          6           0        4.126890   -2.334597   -0.158523
      3          6           0        1.685000    1.862652   -0.275409
      4          6           0        6.022668    4.202393   -0.386466
      5          6           0        8.470591   -0.040474    0.208686
      6          7           0        3.120860   -0.078639   -0.353985
      7          6           0        3.007797   -1.458987   -0.131273
      8          6           0        1.543606   -1.936814    0.102509
      9          6           0        0.784550   -0.564815   -0.113285
     10          6           0        1.887181    0.475024   -0.312038
     11          6           0       -0.280552   -0.625436   -1.254795
     12          6           0        1.210706   -2.566727    1.459688
     13          6           0        0.149818   -3.675862    1.562735
     14          6           0       -0.727866   -4.012955    0.342564
     15          8           0       -0.572218   -4.839736   -0.569859
     16          8           0       -2.004636   -3.434433    0.441107
     17          7           0        4.033416    2.801706   -0.321212
     18          6           0        2.660195    2.987121   -0.313838
     19          6           0        2.350658    4.399268   -0.428928
     20          6           0        3.602494    5.088423   -0.463353
     21          6           0        4.655983    4.028116   -0.373555
     22          6           0        0.862681    4.923216   -0.382572
     23          6           0        3.830145    6.577675   -0.434873
     24          8           0        4.994275    6.947049   -0.398159
     25          6           0        2.762177    7.582763   -0.335403
     26          7           0        6.972794    1.912714   -0.037774
     27          6           0        7.114703    3.262955   -0.171584
     28          6           0        8.643329    3.709713   -0.074743
     29          6           0        9.286094    2.347869    0.314145
     30          6           0        8.191798    1.341758    0.106786
     31          6           0        9.031513    4.288866   -1.404408
     32          6           0        9.879707    2.353170    1.759420
     33          6           0       11.399421    2.449888    1.946918
     34          7           0        6.124028   -0.723130   -0.031345
     35          6           0        7.513552   -0.998971    0.116388
     36          6           0        7.693733   -2.417590    0.046796
     37          6           0        6.420911   -2.992334   -0.021533
     38          6           0        5.488863   -1.897022   -0.058590
     39          6           0        8.971205   -3.211236    0.221366
     40          6           0        5.729715   -4.258473   -0.135132
     41          8           0        6.148677   -5.386152   -0.279679
     42          6           0        4.185276   -3.897621    0.005230
     43          6           0        3.420845   -4.594562   -1.002985
     44          8           0        3.225996   -4.256675   -2.166899
     45          8           0        2.984593   -5.710872   -0.446621
     46          6           0        2.224144   -6.626534   -1.336737
     47          6           0       -2.919907   -3.801961   -0.559934
     48          6           0       -4.209784   -3.016547   -0.553359
     49          6           0       -5.452142   -3.363472   -0.988846
     50          6           0       -5.824718   -4.642310   -1.764160
     51          6           0       -6.526524   -2.266786   -0.846590
     52          6           0       -7.441861   -2.503525    0.320112
     53          6           0       -6.920258   -2.088290    1.698427
     54          6           0       -7.823930   -1.233860    2.579311
     55          6           0       -7.620469   -1.594697    4.079233
     56          6           0       -7.464826    0.307060    2.389298
     57          6           0       -8.735639    1.181203    2.516213
     58          6           0       -9.018043    2.016766    1.246499
     59          6           0      -10.478581    1.831280    0.746413
     60          6           0      -10.546258    0.628816   -0.159458
     61          6           0      -11.008566    3.105341   -0.010907
     62          6           0      -12.466048    3.250868    0.122423
     63          6           0      -13.316351    3.243388   -1.235250
     64          6           0      -14.442936    2.268343   -1.300826
     65          6           0      -14.614301    1.477194   -2.592468
     66          6           0      -15.878439    2.836800   -0.963077
     67          1           0        0.615889    2.079620   -0.320615
     68          1           0        6.400643    5.214171   -0.548821
     69          1           0        9.471119   -0.418201    0.425052
     70          1           0        1.266469   -2.667444   -0.657160
     71          1           0        0.228508   -0.302854    0.787854
     72          1           0        0.052918    0.104633   -1.992626
     73          1           0       -1.296389   -0.491849   -0.883834
     74          1           0       -0.272317   -1.593296   -1.757811
     75          1           0        1.036936   -1.824089    2.237911
     76          1           0        2.141885   -3.038232    1.771341
     77          1           0       -0.601688   -3.269160    2.239301
     78          1           0        0.589858   -4.583483    1.973187
     79          1           0        0.588622    5.338764    0.586754
     80          1           0        0.131727    4.116962   -0.424783
     81          1           0        0.598676    5.656441   -1.144903
     82          1           0        2.167022    7.328704   -1.212486
     83          1           0        3.080600    8.621956   -0.413224
     84          1           0        2.152644    7.480585    0.563339
     85          1           0        8.777803    4.505109    0.658269
     86          1           0       10.029720    2.114864   -0.447844
     87          1           0        9.200490    5.354106   -1.248193
     88          1           0        8.174086    4.108416   -2.052882
     89          1           0        9.942361    3.800711   -1.749818
     90          1           0        9.453703    1.480659    2.253923
     91          1           0        9.396873    3.166250    2.301687
     92          1           0       11.689979    3.215244    2.667255
     93          1           0       11.897414    2.569654    0.984431
     94          1           0       11.677991    1.521764    2.448342
     95          1           0        8.835597   -3.979113    0.983157
     96          1           0        9.824386   -2.556004    0.398044
     97          1           0        9.156334   -3.673960   -0.747825
     98          1           0        3.805513   -4.213249    0.976971
     99          1           0        2.861575   -7.494529   -1.503891
    100          1           0        2.049395   -6.358641   -2.378787
    101          1           0        1.351389   -6.885854   -0.738126
    102          1           0       -3.123158   -4.870842   -0.492114
    103          1           0       -2.572466   -3.473567   -1.539822
    104          1           0       -4.177774   -2.166670    0.128012
    105          1           0       -6.476287   -5.314228   -1.205564
    106          1           0       -4.954749   -5.260972   -1.983733
    107          1           0       -6.235284   -4.299304   -2.714559
    108          1           0       -7.080828   -2.289686   -1.784245
    109          1           0       -6.078809   -1.274537   -0.774076
    110          1           0       -7.861936   -3.499481    0.463411
    111          1           0       -8.327384   -1.922138    0.067257
    112          1           0       -5.883492   -1.765418    1.607122
    113          1           0       -6.814036   -3.064677    2.172164
    114          1           0       -8.838771   -1.495207    2.278810
    115          1           0       -6.618532   -2.006559    4.198972
    116          1           0       -8.451982   -2.199617    4.439888
    117          1           0       -7.731550   -0.620908    4.556942
    118          1           0       -6.831182    0.353758    1.504359
    119          1           0       -6.886939    0.663323    3.242671
    120          1           0       -8.630472    1.890537    3.336078
    121          1           0       -9.639253    0.621599    2.756940
    122          1           0       -8.208239    1.842077    0.537959
    123          1           0       -9.035223    3.056101    1.573701
    124          1           0      -11.062374    1.536890    1.618447
    125          1           0      -11.314046   -0.003479    0.287096
    126          1           0       -9.578972    0.145244   -0.295682
    127          1           0      -10.799732    0.849326   -1.195914
    128          1           0      -10.694269    2.914319   -1.036981
    129          1           0      -10.477353    3.987637    0.346069
    130          1           0      -12.748375    4.254218    0.442203
    131          1           0      -12.973431    2.561536    0.798413
    132          1           0      -12.693425    3.147650   -2.124465
    133          1           0      -13.794795    4.212324   -1.375563
    134          1           0      -14.327730    1.544051   -0.495367
    135          1           0      -15.388544    1.951019   -3.195221
    136          1           0      -14.903800    0.429093   -2.514473
    137          1           0      -13.736703    1.496707   -3.238059
    138          1           0      -16.575595    2.029148   -0.740815
    139          1           0      -16.199138    3.508301   -1.759715
    140          1           0      -15.780943    3.370534   -0.018349
 ---------------------------------------------------------------------

 SCF Done:  E(RB-LYP) =  -3007.36648316     A.U. after   21 cycles

 Excitation energies and oscillator strengths:

 Excited State   1:      Singlet-A      1.8066 eV  686.28 nm  f=0.2785  <S**2>=0.000
     245 -> 248        0.20744
     246 -> 247        0.67629
     246 <- 247       -0.13924
 This state for optimization and/or second-order correction.
 Total Energy, E(TD-HF/TD-DFT) =  -3007.30009174
 Copying the excited state density for this state as the 1-particle RhoCI density.

 Excited State   2:      Singlet-A      1.9019 eV  651.90 nm  f=0.0171  <S**2>=0.000
     244 -> 247        0.64683
     245 -> 247        0.25438

 Excited State   3:      Singlet-A      2.0261 eV  611.94 nm  f=0.0562  <S**2>=0.000
     243 -> 247        0.22675
     244 -> 247       -0.26085
     245 -> 247        0.55750
     246 -> 248       -0.24168

 Excited State   4:      Singlet-A      2.1016 eV  589.95 nm  f=0.0058  <S**2>=0.000
     243 -> 247        0.66810
     245 -> 247       -0.18837
     246 -> 248        0.10914

 Excited State   5:      Singlet-A      2.3323 eV  531.59 nm  f=0.0002  <S**2>=0.000
     242 -> 247        0.70709

 The electronic state is 1-A.
 Alpha  occ. eigenvalues --  -46.27109 -18.82485 -18.81419 -18.77861 -18.75834
 Alpha  occ. eigenvalues --  -18.74870 -18.74607 -14.03394 -14.03162 -14.01336
 Alpha  occ. eigenvalues --  -14.00744 -10.05403 -10.01958  -9.99609  -9.99486
 Alpha  occ. eigenvalues --   -9.97539  -9.96884  -9.96683  -9.96386  -9.96229
 Alpha  occ. eigenvalues --   -9.96154  -9.96094  -9.95796  -9.95057  -9.94982
 Alpha  occ. eigenvalues --   -9.94639  -9.94351  -9.94200  -9.94010  -9.93862
 Alpha  occ. eigenvalues --   -9.93718  -9.93562  -9.93304  -9.93254  -9.93250
 Alpha  occ. eigenvalues --   -9.93225  -9.93077  -9.93020  -9.92972  -9.92707
 Alpha  occ. eigenvalues --   -9.92640  -9.92553  -9.92325  -9.92192  -9.92171
 Alpha  occ. eigenvalues --   -9.92147  -9.92018  -9.92014  -9.91909  -9.91689
 Alpha  occ. eigenvalues --   -9.91523  -9.91486  -9.91453  -9.91319  -9.91232
 Alpha  occ. eigenvalues --   -9.91135  -9.91126  -9.90969  -9.90895  -9.90871
 Alpha  occ. eigenvalues --   -9.90837  -9.90653  -9.90653  -9.90529  -9.90449
 Alpha  occ. eigenvalues --   -9.90367  -2.91745  -1.72160  -1.71651  -1.71438
 Alpha  occ. eigenvalues --   -0.98608  -0.97750  -0.91789  -0.91533  -0.89839
 Alpha  occ. eigenvalues --   -0.88096  -0.86321  -0.85348  -0.84908  -0.84226
 Alpha  occ. eigenvalues --   -0.74438  -0.73776  -0.73479  -0.73164  -0.72326
 Alpha  occ. eigenvalues --   -0.71963  -0.71359  -0.71144  -0.70239  -0.70094
 Alpha  occ. eigenvalues --   -0.69490  -0.69258  -0.68312  -0.67859  -0.67369
 Alpha  occ. eigenvalues --   -0.66810  -0.65985  -0.65565  -0.65099  -0.64364
 Alpha  occ. eigenvalues --   -0.64043  -0.62402  -0.62323  -0.62038  -0.60644
 Alpha  occ. eigenvalues --   -0.60088  -0.59916  -0.59581  -0.59571  -0.59039
 Alpha  occ. eigenvalues --   -0.58649  -0.57411  -0.56427  -0.55975  -0.54161
 Alpha  occ. eigenvalues --   -0.53934  -0.53629  -0.52624  -0.52226  -0.51444
 Alpha  occ. eigenvalues --   -0.51114  -0.50736  -0.50449  -0.50084  -0.49876
 Alpha  occ. eigenvalues --   -0.49684  -0.49264  -0.48728  -0.47632  -0.46650
 Alpha  occ. eigenvalues --   -0.46554  -0.45869  -0.45599  -0.44936  -0.44295
 Alpha  occ. eigenvalues --   -0.43685  -0.43606  -0.43085  -0.42755  -0.42502
 Alpha  occ. eigenvalues --   -0.42182  -0.41522  -0.41323  -0.41146  -0.40871
 Alpha  occ. eigenvalues --   -0.40755  -0.40540  -0.40146  -0.40041  -0.40011
 Alpha  occ. eigenvalues --   -0.39876  -0.39663  -0.39492  -0.39285  -0.39167
 Alpha  occ. eigenvalues --   -0.39104  -0.38869  -0.38448  -0.38331  -0.38145
 Alpha  occ. eigenvalues --   -0.38063  -0.37904  -0.37457  -0.37408  -0.37238
 Alpha  occ. eigenvalues --   -0.37154  -0.37033  -0.36926  -0.36641  -0.36547
 Alpha  occ. eigenvalues --   -0.36380  -0.36123  -0.35839  -0.35642  -0.35473
 Alpha  occ. eigenvalues --   -0.35290  -0.35229  -0.34995  -0.34862  -0.34703
 Alpha  occ. eigenvalues --   -0.34591  -0.34156  -0.34051  -0.33999  -0.33857
 Alpha  occ. eigenvalues --   -0.33651  -0.33559  -0.33420  -0.33401  -0.33155
 Alpha  occ. eigenvalues --   -0.32900  -0.32795  -0.32590  -0.32218  -0.32062
 Alpha  occ. eigenvalues --   -0.32018  -0.31898  -0.31875  -0.31504  -0.31397
 Alpha  occ. eigenvalues --   -0.31241  -0.31032  -0.30871  -0.30795  -0.30461
 Alpha  occ. eigenvalues --   -0.30190  -0.30143  -0.30041  -0.29879  -0.29804
 Alpha  occ. eigenvalues --   -0.29750  -0.29589  -0.29417  -0.29241  -0.29104
 Alpha  occ. eigenvalues --   -0.28895  -0.28522  -0.28226  -0.27992  -0.27772
 Alpha  occ. eigenvalues --   -0.27444  -0.26981  -0.26692  -0.26440  -0.26279
 Alpha  occ. eigenvalues --   -0.26055  -0.25976  -0.25645  -0.25446  -0.25397
 Alpha  occ. eigenvalues --   -0.24835  -0.24006  -0.23751  -0.23690  -0.23378
 Alpha  occ. eigenvalues --   -0.23358  -0.22407  -0.21794  -0.20856  -0.20534
 Alpha  occ. eigenvalues --   -0.20223  -0.19850  -0.18868  -0.18221  -0.17025
 Alpha  occ. eigenvalues --   -0.15651
 Alpha virt. eigenvalues --   -0.11279  -0.07087  -0.05907  -0.04985  -0.04258
 Alpha virt. eigenvalues --   -0.02933  -0.01838  -0.01168  -0.00869   0.00227
 Alpha virt. eigenvalues --    0.01312   0.02066   0.02119   0.02443   0.02708

 Mulliken charges:
               1
     1  Mg   0.696297
     2  C    0.022926
     3  C   -0.047401
     4  C   -0.033095
     5  C   -0.107025
     6  N   -0.208284
     7  C   -0.066676
     8  C    0.013533
     9  C   -0.015555
    10  C    0.015449
    11  C    0.115256
    12  C    0.111276
    13  C    0.167429
    14  C    0.078017
    15  O   -0.201406
    16  O   -0.271971
    17  N   -0.300836
    18  C    0.127718
    19  C   -0.113301
    20  C    0.031340
    21  C    0.135436
    22  C    0.140913
    23  C   -0.084527
    24  O   -0.171608
    25  C    0.155739
    26  N   -0.198885
    27  C   -0.014146
    28  C   -0.047089
    29  C    0.080104
    30  C    0.001683
    31  C    0.150960
    32  C    0.089767
    33  C    0.091491
    34  N   -0.288565
    35  C    0.158606
    36  C   -0.196131
    37  C    0.076473
    38  C    0.085306
    39  C    0.189410
    40  C   -0.031134
    41  O   -0.116271
    42  C    0.028487
    43  C    0.080645
    44  O   -0.196291
    45  O   -0.244099
    46  C    0.213950
    47  C    0.317906
    48  C   -0.126456
    49  C   -0.163524
    50  C    0.139072
    51  C    0.146126
    52  C    0.080825
    53  C    0.097213
    54  C   -0.102375
    55  C    0.134302
    56  C    0.114646
    57  C    0.065779
    58  C    0.119802
    59  C   -0.148238
    60  C    0.113049
    61  C    0.163339
    62  C    0.098990
    63  C    0.109345
    64  C   -0.094506
    65  C    0.105582
    66  C    0.077285
    67  H   -0.070753
    68  H   -0.043479
    69  H   -0.059803
    70  H    0.017713
    71  H   -0.022947
    72  H   -0.003957
    73  H   -0.002736
    74  H   -0.000730
    75  H   -0.026421
    76  H   -0.033661
    77  H   -0.004535
    78  H    0.015679
    79  H   -0.001184
    80  H   -0.022061
    81  H    0.004477
    82  H   -0.001557
    83  H   -0.005715
    84  H    0.014054
    85  H   -0.016575
    86  H   -0.040732
    87  H   -0.002204
    88  H    0.004275
    89  H   -0.013713
    90  H   -0.029956
    91  H   -0.030207
    92  H   -0.007462
    93  H    0.000635
    94  H   -0.009301
    95  H    0.019827
    96  H   -0.027311
    97  H    0.006978
    98  H    0.008763
    99  H    0.001199
   100  H    0.027495
   101  H    0.025894
   102  H    0.000906
   103  H    0.004502
   104  H   -0.024721
   105  H    0.006211
   106  H   -0.016384
   107  H    0.004809
   108  H   -0.044022
   109  H   -0.027370
   110  H   -0.038154
   111  H   -0.040938
   112  H   -0.043476
   113  H   -0.051832
   114  H   -0.034298
   115  H   -0.004683
   116  H   -0.018632
   117  H   -0.028515
   118  H   -0.022708
   119  H   -0.037278
   120  H   -0.036327
   121  H   -0.027434
   122  H   -0.027570
   123  H   -0.051856
   124  H   -0.032185
   125  H   -0.011389
   126  H   -0.011481
   127  H   -0.023600
   128  H   -0.032114
   129  H   -0.039230
   130  H   -0.033678
   131  H   -0.024096
   132  H   -0.043484
   133  H   -0.048341
   134  H   -0.041570
   135  H   -0.029897
   136  H   -0.017036
   137  H   -0.030970
   138  H   -0.011047
   139  H   -0.003414
   140  H   -0.028766
 Sum of Mulliken charges =  -0.00000

 Dipole moment (field-independent basis, Debye):
    X=             -3.3422    Y=              2.4449    Z=              4.3636  Tot=              6.0157
 Quadrupole moment (field-independent basis, Debye-Ang):
   XX=           -380.8057   YY=           -426.9912   ZZ=           -407.8607
   XY=             18.2999   XZ=             17.1394   YZ=             -5.1366

 Normal termination of Gaussian 16 at Wed May  4 00:16:26 2022.
