 Gaussian 16, Revision A.03,
 Gaussian 16:  ES64L-G16RevA.03 25-Dec-2016

 -----------------------------------
 #p cam-b3lyp/Def2SVP td=(nstates=5)
 -----------------------------------

 --------------------------------------------------------
 step_1101_chromophore_24 TDDFT with cam-b3lyp functional
 --------------------------------------------------------
 Symbolic Z-matrix:
 Charge =  0 Multiplicity = 1

                         Standard orientation:
 ---------------------------------------------------------------------
 Center     Atomic      Atomic             Coordinates (Angstroms)
 Number     Number       Type             X           Y           Z
 ---------------------------------------------------------------------
      1         12           0        5.043247    1.029868    0.049046
      2          6           0        4.126890   -2.334597   -0.158523
      3          6           0        1.685000    1.862652   -0.275409
      4          6           0        6.022668    4.202393   -0.386466
      5          6           0        8.470591   -0.040474    0.208686
      6          7           0        3.120860   -0.078639   -0.353985
      7          6           0        3.007797   -1.458987   -0.131273
      8          6           0        1.543606   -1.936814    0.102509
      9          6           0        0.784550   -0.564815   -0.113285
     10          6           0        1.887181    0.475024   -0.312038
     11          6           0       -0.280552   -0.625436   -1.254795
     12          6           0        1.210706   -2.566727    1.459688
     13          6           0        0.149818   -3.675862    1.562735
     14          6           0       -0.727866   -4.012955    0.342564
     15          8           0       -0.572218   -4.839736   -0.569859
     16          8           0       -2.004636   -3.434433    0.441107
     17          7           0        4.033416    2.801706   -0.321212
     18          6           0        2.660195    2.987121   -0.313838
     19          6           0        2.350658    4.399268   -0.428928
     20          6           0        3.602494    5.088423   -0.463353
     21          6           0        4.655983    4.028116   -0.373555
     22          6           0        0.862681    4.923216   -0.382572
     23          6           0        3.830145    6.577675   -0.434873
     24          8           0        4.994275    6.947049   -0.398159
     25          6           0        2.762177    7.582763   -0.335403
     26          7           0        6.972794    1.912714   -0.037774
     27          6           0        7.114703    3.262955   -0.171584
     28          6           0        8.643329    3.709713   -0.074743
     29          6           0        9.286094    2.347869    0.314145
     30          6           0        8.191798    1.341758    0.106786
     31          6           0        9.031513    4.288866   -1.404408
     32          6           0        9.879707    2.353170    1.759420
     33          6           0       11.399421    2.449888    1.946918
     34          7           0        6.124028   -0.723130   -0.031345
     35          6           0        7.513552   -0.998971    0.116388
     36          6           0        7.693733   -2.417590    0.046796
     37          6           0        6.420911   -2.992334   -0.021533
     38          6           0        5.488863   -1.897022   -0.058590
     39          6           0        8.971205   -3.211236    0.221366
     40          6           0        5.729715   -4.258473   -0.135132
     41          8           0        6.148677   -5.386152   -0.279679
     42          6           0        4.185276   -3.897621    0.005230
     43          6           0        3.420845   -4.594562   -1.002985
     44          8           0        3.225996   -4.256675   -2.166899
     45          8           0        2.984593   -5.710872   -0.446621
     46          6           0        2.224144   -6.626534   -1.336737
     47          6           0       -2.919907   -3.801961   -0.559934
     48          6           0       -4.209784   -3.016547   -0.553359
     49          6           0       -5.452142   -3.363472   -0.988846
     50          6           0       -5.824718   -4.642310   -1.764160
     51          6           0       -6.526524   -2.266786   -0.846590
     52          6           0       -7.441861   -2.503525    0.320112
     53          6           0       -6.920258   -2.088290    1.698427
     54          6           0       -7.823930   -1.233860    2.579311
     55          6           0       -7.620469   -1.594697    4.079233
     56          6           0       -7.464826    0.307060    2.389298
     57          6           0       -8.735639    1.181203    2.516213
     58          6           0       -9.018043    2.016766    1.246499
     59          6           0      -10.478581    1.831280    0.746413
     60          6           0      -10.546258    0.628816   -0.159458
     61          6           0      -11.008566    3.105341   -0.010907
     62          6           0      -12.466048    3.250868    0.122423
     63          6           0      -13.316351    3.243388   -1.235250
     64          6           0      -14.442936    2.268343   -1.300826
     65          6           0      -14.614301    1.477194   -2.592468
     66          6           0      -15.878439    2.836800   -0.963077
     67          1           0        0.615889    2.079620   -0.320615
     68          1           0        6.400643    5.214171   -0.548821
     69          1           0        9.471119   -0.418201    0.425052
     70          1           0        1.266469   -2.667444   -0.657160
     71          1           0        0.228508   -0.302854    0.787854
     72          1           0        0.052918    0.104633   -1.992626
     73          1           0       -1.296389   -0.491849   -0.883834
     74          1           0       -0.272317   -1.593296   -1.757811
     75          1           0        1.036936   -1.824089    2.237911
     76          1           0        2.141885   -3.038232    1.771341
     77          1           0       -0.601688   -3.269160    2.239301
     78          1           0        0.589858   -4.583483    1.973187
     79          1           0        0.588622    5.338764    0.586754
     80          1           0        0.131727    4.116962   -0.424783
     81          1           0        0.598676    5.656441   -1.144903
     82          1           0        2.167022    7.328704   -1.212486
     83          1           0        3.080600    8.621956   -0.413224
     84          1           0        2.152644    7.480585    0.563339
     85          1           0        8.777803    4.505109    0.658269
     86          1           0       10.029720    2.114864   -0.447844
     87          1           0        9.200490    5.354106   -1.248193
     88          1           0        8.174086    4.108416   -2.052882
     89          1           0        9.942361    3.800711   -1.749818
     90          1           0        9.453703    1.480659    2.253923
     91          1           0        9.396873    3.166250    2.301687
     92          1           0       11.689979    3.215244    2.667255
     93          1           0       11.897414    2.569654    0.984431
     94          1           0       11.677991    1.521764    2.448342
     95          1           0        8.835597   -3.979113    0.983157
     96          1           0        9.824386   -2.556004    0.398044
     97          1           0        9.156334   -3.673960   -0.747825
     98          1           0        3.805513   -4.213249    0.976971
     99          1           0        2.861575   -7.494529   -1.503891
    100          1           0        2.049395   -6.358641   -2.378787
    101          1           0        1.351389   -6.885854   -0.738126
    102          1           0       -3.123158   -4.870842   -0.492114
    103          1           0       -2.572466   -3.473567   -1.539822
    104          1           0       -4.177774   -2.166670    0.128012
    105          1           0       -6.476287   -5.314228   -1.205564
    106          1           0       -4.954749   -5.260972   -1.983733
    107          1           0       -6.235284   -4.299304   -2.714559
    108          1           0       -7.080828   -2.289686   -1.784245
    109          1           0       -6.078809   -1.274537   -0.774076
    110          1           0       -7.861936   -3.499481    0.463411
    111          1           0       -8.327384   -1.922138    0.067257
    112          1           0       -5.883492   -1.765418    1.607122
    113          1           0       -6.814036   -3.064677    2.172164
    114          1           0       -8.838771   -1.495207    2.278810
    115          1           0       -6.618532   -2.006559    4.198972
    116          1           0       -8.451982   -2.199617    4.439888
    117          1           0       -7.731550   -0.620908    4.556942
    118          1           0       -6.831182    0.353758    1.504359
    119          1           0       -6.886939    0.663323    3.242671
    120          1           0       -8.630472    1.890537    3.336078
    121          1           0       -9.639253    0.621599    2.756940
    122          1           0       -8.208239    1.842077    0.537959
    123          1           0       -9.035223    3.056101    1.573701
    124          1           0      -11.062374    1.536890    1.618447
    125          1           0      -11.314046   -0.003479    0.287096
    126          1           0       -9.578972    0.145244   -0.295682
    127          1           0      -10.799732    0.849326   -1.195914
    128          1           0      -10.694269    2.914319   -1.036981
    129          1           0      -10.477353    3.987637    0.346069
    130          1           0      -12.748375    4.254218    0.442203
    131          1           0      -12.973431    2.561536    0.798413
    132          1           0      -12.693425    3.147650   -2.124465
    133          1           0      -13.794795    4.212324   -1.375563
    134          1           0      -14.327730    1.544051   -0.495367
    135          1           0      -15.388544    1.951019   -3.195221
    136          1           0      -14.903800    0.429093   -2.514473
    137          1           0      -13.736703    1.496707   -3.238059
    138          1           0      -16.575595    2.029148   -0.740815
    139          1           0      -16.199138    3.508301   -1.759715
    140          1           0      -15.780943    3.370534   -0.018349
 ---------------------------------------------------------------------

 SCF Done:  E(RCAM-B3LYP) =  -3007.16094581     A.U. after   17 cycles

 Excitation energies and oscillator strengths:

 Excited State   1:      Singlet-A      1.7048 eV  727.26 nm  f=0.3668  <S**2>=0.000
     245 -> 248        0.19019
     246 -> 247        0.68201
     245 <- 248        0.10920
 This state for optimization and/or second-order correction.
 Total Energy, E(TD-HF/TD-DFT) =  -3007.09829477
 Copying the excited state density for this state as the 1-particle RhoCI density.

 Excited State   2:      Singlet-A      2.2280 eV  556.47 nm  f=0.0912  <S**2>=0.000
     245 -> 247        0.62812
     246 -> 248       -0.31459

 Excited State   3:      Singlet-A      3.4437 eV  360.03 nm  f=0.5879  <S**2>=0.000
     242 -> 247        0.19787
     243 -> 247       -0.19668
     245 -> 247        0.27316
     246 -> 248        0.56771
     245 <- 247       -0.10316

 Excited State   4:      Singlet-A      3.5165 eV  352.58 nm  f=0.0908  <S**2>=0.000
     243 -> 247        0.63553
     246 -> 248        0.21291

 Excited State   5:      Singlet-A      3.5829 eV  346.04 nm  f=0.0172  <S**2>=0.000
     239 -> 247        0.12976
     240 -> 247        0.50484
     240 -> 248        0.17396
     240 -> 249        0.22621
     240 -> 251       -0.10881
     240 -> 252        0.17699
     241 -> 247       -0.13917
     243 -> 247        0.15331

 The electronic state is 1-A.
 Alpha  occ. eigenvalues --  -46.88629 -19.25267 -19.24340 -19.20933 -19.18965
 Alpha  occ. eigenvalues --  -19.18231 -19.17594 -14.42444 -14.41828 -14.39880
 Alpha  occ. eigenvalues --  -14.39127 -10.40854 -10.37268 -10.34935 -10.34729
 Alpha  occ. eigenvalues --  -10.31482 -10.31371 -10.31201 -10.30932 -10.30699
 Alpha  occ. eigenvalues --  -10.30372 -10.30186 -10.30075 -10.29120 -10.29050
 Alpha  occ. eigenvalues --  -10.29047 -10.29018 -10.28298 -10.27971 -10.27839
 Alpha  occ. eigenvalues --  -10.27829 -10.27732 -10.27595 -10.27544 -10.27539
 Alpha  occ. eigenvalues --  -10.27241 -10.27171 -10.27092 -10.27019 -10.26879
 Alpha  occ. eigenvalues --  -10.26471 -10.26358 -10.26303 -10.26218 -10.26058
 Alpha  occ. eigenvalues --  -10.25725 -10.25722 -10.25712 -10.25678 -10.25638
 Alpha  occ. eigenvalues --  -10.25229 -10.25159 -10.25057 -10.25015 -10.24881
 Alpha  occ. eigenvalues --  -10.24796 -10.24745 -10.24625 -10.24601 -10.24526
 Alpha  occ. eigenvalues --  -10.24510 -10.24449 -10.24308 -10.24158 -10.24013
 Alpha  occ. eigenvalues --  -10.23964  -3.17169  -1.92061  -1.91642  -1.91459
 Alpha  occ. eigenvalues --   -1.17010  -1.16286  -1.10163  -1.10089  -1.07674
 Alpha  occ. eigenvalues --   -1.06006  -1.04039  -1.02946  -1.02460  -1.01719
 Alpha  occ. eigenvalues --   -0.91484  -0.90649  -0.90312  -0.89975  -0.88966
 Alpha  occ. eigenvalues --   -0.88660  -0.88020  -0.87743  -0.86801  -0.86680
 Alpha  occ. eigenvalues --   -0.86027  -0.85710  -0.84588  -0.84049  -0.83548
 Alpha  occ. eigenvalues --   -0.82891  -0.82281  -0.81473  -0.80922  -0.80155
 Alpha  occ. eigenvalues --   -0.79836  -0.78003  -0.77958  -0.77675  -0.75993
 Alpha  occ. eigenvalues --   -0.75460  -0.75257  -0.74899  -0.74848  -0.74284
 Alpha  occ. eigenvalues --   -0.73707  -0.72424  -0.71294  -0.70802  -0.68688
 Alpha  occ. eigenvalues --   -0.68556  -0.68300  -0.67053  -0.66567  -0.65644
 Alpha  occ. eigenvalues --   -0.65175  -0.64827  -0.64519  -0.64091  -0.63743
 Alpha  occ. eigenvalues --   -0.63579  -0.63147  -0.62642  -0.61331  -0.60279
 Alpha  occ. eigenvalues --   -0.60171  -0.59399  -0.59024  -0.58284  -0.57688
 Alpha  occ. eigenvalues --   -0.57195  -0.56836  -0.56520  -0.55958  -0.55806
 Alpha  occ. eigenvalues --   -0.55344  -0.54668  -0.54135  -0.54024  -0.53724
 Alpha  occ. eigenvalues --   -0.53385  -0.53207  -0.52891  -0.52848  -0.52656
 Alpha  occ. eigenvalues --   -0.52646  -0.52401  -0.52258  -0.52139  -0.51727
 Alpha  occ. eigenvalues --   -0.51629  -0.51221  -0.51145  -0.50849  -0.50474
 Alpha  occ. eigenvalues --   -0.50405  -0.50326  -0.50160  -0.49754  -0.49620
 Alpha  occ. eigenvalues --   -0.49447  -0.49300  -0.49177  -0.49013  -0.48934
 Alpha  occ. eigenvalues --   -0.48620  -0.48483  -0.48151  -0.48023  -0.47577
 Alpha  occ. eigenvalues --   -0.47371  -0.47153  -0.46942  -0.46848  -0.46793
 Alpha  occ. eigenvalues --   -0.46334  -0.46186  -0.45903  -0.45747  -0.45642
 Alpha  occ. eigenvalues --   -0.45420  -0.45384  -0.45326  -0.45212  -0.44794
 Alpha  occ. eigenvalues --   -0.44757  -0.44433  -0.44247  -0.43820  -0.43779
 Alpha  occ. eigenvalues --   -0.43676  -0.43629  -0.43367  -0.43056  -0.42879
 Alpha  occ. eigenvalues --   -0.42833  -0.42696  -0.42368  -0.42119  -0.41940
 Alpha  occ. eigenvalues --   -0.41791  -0.41389  -0.41344  -0.41143  -0.41053
 Alpha  occ. eigenvalues --   -0.40981  -0.40973  -0.40802  -0.40561  -0.40423
 Alpha  occ. eigenvalues --   -0.40046  -0.39545  -0.39202  -0.39010  -0.38898
 Alpha  occ. eigenvalues --   -0.38286  -0.37894  -0.37529  -0.37445  -0.37369
 Alpha  occ. eigenvalues --   -0.37060  -0.36596  -0.36396  -0.36320  -0.36052
 Alpha  occ. eigenvalues --   -0.35420  -0.35211  -0.34644  -0.34462  -0.34268
 Alpha  occ. eigenvalues --   -0.33722  -0.33219  -0.32708  -0.31109  -0.30762
 Alpha  occ. eigenvalues --   -0.30649  -0.30194  -0.29719  -0.29421  -0.23726
 Alpha  occ. eigenvalues --   -0.20896
 Alpha virt. eigenvalues --   -0.08309  -0.01995   0.00582   0.02219   0.02608
 Alpha virt. eigenvalues --    0.02789   0.05488   0.05959   0.06721   0.07131
 Alpha virt. eigenvalues --    0.08040   0.08413   0.08718   0.08962   0.09186

 Mulliken charges:
               1
     1  Mg   0.827762
     2  C    0.002933
     3  C   -0.066361
     4  C   -0.047505
     5  C   -0.102894
     6  N   -0.280146
     7  C   -0.019233
     8  C   -0.042688
     9  C   -0.065948
    10  C    0.036654
    11  C    0.059549
    12  C    0.062029
    13  C    0.096871
    14  C    0.155029
    15  O   -0.240131
    16  O   -0.336128
    17  N   -0.386650
    18  C    0.139874
    19  C   -0.126410
    20  C   -0.029413
    21  C    0.152557
    22  C    0.092333
    23  C   -0.008344
    24  O   -0.213081
    25  C    0.075115
    26  N   -0.266900
    27  C   -0.000873
    28  C   -0.090177
    29  C    0.018466
    30  C    0.014309
    31  C    0.088918
    32  C    0.032846
    33  C    0.028102
    34  N   -0.376779
    35  C    0.153376
    36  C   -0.185762
    37  C   -0.009163
    38  C    0.120632
    39  C    0.137432
    40  C    0.070663
    41  O   -0.155330
    42  C   -0.055281
    43  C    0.171440
    44  O   -0.235233
    45  O   -0.306431
    46  C    0.175384
    47  C    0.283643
    48  C   -0.141962
    49  C   -0.186029
    50  C    0.082320
    51  C    0.082812
    52  C    0.030101
    53  C    0.040425
    54  C   -0.153710
    55  C    0.076179
    56  C    0.055863
    57  C    0.016888
    58  C    0.065060
    59  C   -0.199646
    60  C    0.059385
    61  C    0.104879
    62  C    0.039880
    63  C    0.054001
    64  C   -0.154944
    65  C    0.046112
    66  C    0.021688
    67  H   -0.039086
    68  H   -0.000766
    69  H   -0.022894
    70  H    0.047913
    71  H    0.012115
    72  H    0.022748
    73  H    0.020477
    74  H    0.021761
    75  H    0.006345
    76  H   -0.003335
    77  H    0.031841
    78  H    0.047862
    79  H    0.024895
    80  H    0.006711
    81  H    0.029343
    82  H    0.023426
    83  H    0.030299
    84  H    0.042011
    85  H    0.017631
    86  H   -0.005191
    87  H    0.021808
    88  H    0.030806
    89  H    0.010930
    90  H    0.000792
    91  H   -0.001162
    92  H    0.016952
    93  H    0.022489
    94  H    0.013640
    95  H    0.045271
    96  H   -0.002670
    97  H    0.034555
    98  H    0.049359
    99  H    0.024300
   100  H    0.055105
   101  H    0.048216
   102  H    0.026538
   103  H    0.030556
   104  H    0.005253
   105  H    0.029672
   106  H    0.008375
   107  H    0.027323
   108  H   -0.012206
   109  H    0.002932
   110  H   -0.008523
   111  H   -0.014309
   112  H   -0.017522
   113  H   -0.018995
   114  H   -0.003867
   115  H    0.019214
   116  H    0.006606
   117  H   -0.005670
   118  H    0.002718
   119  H   -0.006371
   120  H   -0.006597
   121  H   -0.001573
   122  H   -0.000600
   123  H   -0.020744
   124  H   -0.001309
   125  H    0.011082
   126  H    0.007461
   127  H   -0.000254
   128  H   -0.004062
   129  H   -0.008268
   130  H   -0.002758
   131  H    0.002916
   132  H   -0.014277
   133  H   -0.017916
   134  H   -0.010515
   135  H   -0.006072
   136  H    0.008586
   137  H   -0.006235
   138  H    0.013431
   139  H    0.018007
   140  H   -0.004883
 Sum of Mulliken charges =  -0.00000

 Dipole moment (field-independent basis, Debye):
    X=             -3.6060    Y=              2.9774    Z=              4.5671  Tot=              6.5366
 Quadrupole moment (field-independent basis, Debye-Ang):
   XX=           -379.8193   YY=           -422.2462   ZZ=           -408.0270
   XY=             19.2271   XZ=             18.6148   YZ=             -5.7484

 Normal termination of Gaussian 16 at Tue May  3 23:15:17 2022.
