 Gaussian 16, Revision A.03,
 Gaussian 16:  ES64L-G16RevA.03 25-Dec-2016

 ---------------------------------
 #p PBE1PBE/Def2SVP td=(nstates=5)
 ---------------------------------

 ------------------------------------------------------
 step_1101_chromophore_24 TDDFT with PBE1PBE functional
 ------------------------------------------------------
 Symbolic Z-matrix:
 Charge =  0 Multiplicity = 1

                         Standard orientation:
 ---------------------------------------------------------------------
 Center     Atomic      Atomic             Coordinates (Angstroms)
 Number     Number       Type             X           Y           Z
 ---------------------------------------------------------------------
      1         12           0        5.043247    1.029868    0.049046
      2          6           0        4.126890   -2.334597   -0.158523
      3          6           0        1.685000    1.862652   -0.275409
      4          6           0        6.022668    4.202393   -0.386466
      5          6           0        8.470591   -0.040474    0.208686
      6          7           0        3.120860   -0.078639   -0.353985
      7          6           0        3.007797   -1.458987   -0.131273
      8          6           0        1.543606   -1.936814    0.102509
      9          6           0        0.784550   -0.564815   -0.113285
     10          6           0        1.887181    0.475024   -0.312038
     11          6           0       -0.280552   -0.625436   -1.254795
     12          6           0        1.210706   -2.566727    1.459688
     13          6           0        0.149818   -3.675862    1.562735
     14          6           0       -0.727866   -4.012955    0.342564
     15          8           0       -0.572218   -4.839736   -0.569859
     16          8           0       -2.004636   -3.434433    0.441107
     17          7           0        4.033416    2.801706   -0.321212
     18          6           0        2.660195    2.987121   -0.313838
     19          6           0        2.350658    4.399268   -0.428928
     20          6           0        3.602494    5.088423   -0.463353
     21          6           0        4.655983    4.028116   -0.373555
     22          6           0        0.862681    4.923216   -0.382572
     23          6           0        3.830145    6.577675   -0.434873
     24          8           0        4.994275    6.947049   -0.398159
     25          6           0        2.762177    7.582763   -0.335403
     26          7           0        6.972794    1.912714   -0.037774
     27          6           0        7.114703    3.262955   -0.171584
     28          6           0        8.643329    3.709713   -0.074743
     29          6           0        9.286094    2.347869    0.314145
     30          6           0        8.191798    1.341758    0.106786
     31          6           0        9.031513    4.288866   -1.404408
     32          6           0        9.879707    2.353170    1.759420
     33          6           0       11.399421    2.449888    1.946918
     34          7           0        6.124028   -0.723130   -0.031345
     35          6           0        7.513552   -0.998971    0.116388
     36          6           0        7.693733   -2.417590    0.046796
     37          6           0        6.420911   -2.992334   -0.021533
     38          6           0        5.488863   -1.897022   -0.058590
     39          6           0        8.971205   -3.211236    0.221366
     40          6           0        5.729715   -4.258473   -0.135132
     41          8           0        6.148677   -5.386152   -0.279679
     42          6           0        4.185276   -3.897621    0.005230
     43          6           0        3.420845   -4.594562   -1.002985
     44          8           0        3.225996   -4.256675   -2.166899
     45          8           0        2.984593   -5.710872   -0.446621
     46          6           0        2.224144   -6.626534   -1.336737
     47          6           0       -2.919907   -3.801961   -0.559934
     48          6           0       -4.209784   -3.016547   -0.553359
     49          6           0       -5.452142   -3.363472   -0.988846
     50          6           0       -5.824718   -4.642310   -1.764160
     51          6           0       -6.526524   -2.266786   -0.846590
     52          6           0       -7.441861   -2.503525    0.320112
     53          6           0       -6.920258   -2.088290    1.698427
     54          6           0       -7.823930   -1.233860    2.579311
     55          6           0       -7.620469   -1.594697    4.079233
     56          6           0       -7.464826    0.307060    2.389298
     57          6           0       -8.735639    1.181203    2.516213
     58          6           0       -9.018043    2.016766    1.246499
     59          6           0      -10.478581    1.831280    0.746413
     60          6           0      -10.546258    0.628816   -0.159458
     61          6           0      -11.008566    3.105341   -0.010907
     62          6           0      -12.466048    3.250868    0.122423
     63          6           0      -13.316351    3.243388   -1.235250
     64          6           0      -14.442936    2.268343   -1.300826
     65          6           0      -14.614301    1.477194   -2.592468
     66          6           0      -15.878439    2.836800   -0.963077
     67          1           0        0.615889    2.079620   -0.320615
     68          1           0        6.400643    5.214171   -0.548821
     69          1           0        9.471119   -0.418201    0.425052
     70          1           0        1.266469   -2.667444   -0.657160
     71          1           0        0.228508   -0.302854    0.787854
     72          1           0        0.052918    0.104633   -1.992626
     73          1           0       -1.296389   -0.491849   -0.883834
     74          1           0       -0.272317   -1.593296   -1.757811
     75          1           0        1.036936   -1.824089    2.237911
     76          1           0        2.141885   -3.038232    1.771341
     77          1           0       -0.601688   -3.269160    2.239301
     78          1           0        0.589858   -4.583483    1.973187
     79          1           0        0.588622    5.338764    0.586754
     80          1           0        0.131727    4.116962   -0.424783
     81          1           0        0.598676    5.656441   -1.144903
     82          1           0        2.167022    7.328704   -1.212486
     83          1           0        3.080600    8.621956   -0.413224
     84          1           0        2.152644    7.480585    0.563339
     85          1           0        8.777803    4.505109    0.658269
     86          1           0       10.029720    2.114864   -0.447844
     87          1           0        9.200490    5.354106   -1.248193
     88          1           0        8.174086    4.108416   -2.052882
     89          1           0        9.942361    3.800711   -1.749818
     90          1           0        9.453703    1.480659    2.253923
     91          1           0        9.396873    3.166250    2.301687
     92          1           0       11.689979    3.215244    2.667255
     93          1           0       11.897414    2.569654    0.984431
     94          1           0       11.677991    1.521764    2.448342
     95          1           0        8.835597   -3.979113    0.983157
     96          1           0        9.824386   -2.556004    0.398044
     97          1           0        9.156334   -3.673960   -0.747825
     98          1           0        3.805513   -4.213249    0.976971
     99          1           0        2.861575   -7.494529   -1.503891
    100          1           0        2.049395   -6.358641   -2.378787
    101          1           0        1.351389   -6.885854   -0.738126
    102          1           0       -3.123158   -4.870842   -0.492114
    103          1           0       -2.572466   -3.473567   -1.539822
    104          1           0       -4.177774   -2.166670    0.128012
    105          1           0       -6.476287   -5.314228   -1.205564
    106          1           0       -4.954749   -5.260972   -1.983733
    107          1           0       -6.235284   -4.299304   -2.714559
    108          1           0       -7.080828   -2.289686   -1.784245
    109          1           0       -6.078809   -1.274537   -0.774076
    110          1           0       -7.861936   -3.499481    0.463411
    111          1           0       -8.327384   -1.922138    0.067257
    112          1           0       -5.883492   -1.765418    1.607122
    113          1           0       -6.814036   -3.064677    2.172164
    114          1           0       -8.838771   -1.495207    2.278810
    115          1           0       -6.618532   -2.006559    4.198972
    116          1           0       -8.451982   -2.199617    4.439888
    117          1           0       -7.731550   -0.620908    4.556942
    118          1           0       -6.831182    0.353758    1.504359
    119          1           0       -6.886939    0.663323    3.242671
    120          1           0       -8.630472    1.890537    3.336078
    121          1           0       -9.639253    0.621599    2.756940
    122          1           0       -8.208239    1.842077    0.537959
    123          1           0       -9.035223    3.056101    1.573701
    124          1           0      -11.062374    1.536890    1.618447
    125          1           0      -11.314046   -0.003479    0.287096
    126          1           0       -9.578972    0.145244   -0.295682
    127          1           0      -10.799732    0.849326   -1.195914
    128          1           0      -10.694269    2.914319   -1.036981
    129          1           0      -10.477353    3.987637    0.346069
    130          1           0      -12.748375    4.254218    0.442203
    131          1           0      -12.973431    2.561536    0.798413
    132          1           0      -12.693425    3.147650   -2.124465
    133          1           0      -13.794795    4.212324   -1.375563
    134          1           0      -14.327730    1.544051   -0.495367
    135          1           0      -15.388544    1.951019   -3.195221
    136          1           0      -14.903800    0.429093   -2.514473
    137          1           0      -13.736703    1.496707   -3.238059
    138          1           0      -16.575595    2.029148   -0.740815
    139          1           0      -16.199138    3.508301   -1.759715
    140          1           0      -15.780943    3.370534   -0.018349
 ---------------------------------------------------------------------

 SCF Done:  E(RPBE1PBE) =  -3005.35018993     A.U. after   15 cycles

 Excitation energies and oscillator strengths:

 Excited State   1:      Singlet-A      1.8625 eV  665.70 nm  f=0.3553  <S**2>=0.000
     245 -> 248        0.18504
     246 -> 247        0.68837
 This state for optimization and/or second-order correction.
 Total Energy, E(TD-HF/TD-DFT) =  -3005.28174523
 Copying the excited state density for this state as the 1-particle RhoCI density.

 Excited State   2:      Singlet-A      2.2331 eV  555.21 nm  f=0.0931  <S**2>=0.000
     245 -> 247        0.64115
     246 -> 248       -0.28724

 Excited State   3:      Singlet-A      3.0408 eV  407.73 nm  f=0.0016  <S**2>=0.000
     242 -> 247        0.35043
     243 -> 247        0.56519

 Excited State   4:      Singlet-A      3.1329 eV  395.75 nm  f=0.0049  <S**2>=0.000
     241 -> 247        0.56349
     241 -> 249       -0.14524
     242 -> 247        0.29397
     243 -> 247       -0.19984

 Excited State   5:      Singlet-A      3.1870 eV  389.04 nm  f=0.0013  <S**2>=0.000
     240 -> 247       -0.11333
     241 -> 247       -0.33822
     242 -> 247        0.50013
     243 -> 247       -0.32762

 The electronic state is 1-A.
 Alpha  occ. eigenvalues --  -46.92051 -19.25966 -19.25011 -19.21197 -19.19242
 Alpha  occ. eigenvalues --  -19.18361 -19.17865 -14.41857 -14.41491 -14.39508
 Alpha  occ. eigenvalues --  -14.38832 -10.37930 -10.34246 -10.32118 -10.31764
 Alpha  occ. eigenvalues --  -10.29261 -10.29027 -10.28799 -10.28571 -10.28374
 Alpha  occ. eigenvalues --  -10.28235 -10.27873 -10.27335 -10.26863 -10.26711
 Alpha  occ. eigenvalues --  -10.26708 -10.26605 -10.26118 -10.25828 -10.25650
 Alpha  occ. eigenvalues --  -10.25588 -10.25395 -10.25233 -10.25170 -10.25057
 Alpha  occ. eigenvalues --  -10.24998 -10.24963 -10.24887 -10.24842 -10.24389
 Alpha  occ. eigenvalues --  -10.24016 -10.23884 -10.23757 -10.23497 -10.23486
 Alpha  occ. eigenvalues --  -10.23364 -10.23293 -10.23258 -10.23175 -10.23160
 Alpha  occ. eigenvalues --  -10.22949 -10.22805 -10.22626 -10.22538 -10.22462
 Alpha  occ. eigenvalues --  -10.22414 -10.22358 -10.22297 -10.22153 -10.22058
 Alpha  occ. eigenvalues --  -10.21927 -10.21894 -10.21858 -10.21737 -10.21381
 Alpha  occ. eigenvalues --  -10.21342  -3.14171  -1.87003  -1.86563  -1.86383
 Alpha  occ. eigenvalues --   -1.11840  -1.11098  -1.04968  -1.04734  -1.02535
 Alpha  occ. eigenvalues --   -1.00831  -0.98647  -0.97594  -0.97127  -0.96380
 Alpha  occ. eigenvalues --   -0.85848  -0.84789  -0.84485  -0.84108  -0.83279
 Alpha  occ. eigenvalues --   -0.82785  -0.82351  -0.81882  -0.81132  -0.80970
 Alpha  occ. eigenvalues --   -0.80276  -0.79979  -0.78784  -0.78337  -0.77824
 Alpha  occ. eigenvalues --   -0.77106  -0.76398  -0.75756  -0.75194  -0.74402
 Alpha  occ. eigenvalues --   -0.74134  -0.72319  -0.72241  -0.71946  -0.70186
 Alpha  occ. eigenvalues --   -0.69794  -0.69387  -0.69215  -0.68979  -0.68457
 Alpha  occ. eigenvalues --   -0.68037  -0.66886  -0.65700  -0.65166  -0.63042
 Alpha  occ. eigenvalues --   -0.62856  -0.62626  -0.61517  -0.60896  -0.60080
 Alpha  occ. eigenvalues --   -0.59601  -0.59131  -0.59082  -0.58347  -0.58234
 Alpha  occ. eigenvalues --   -0.57913  -0.57405  -0.56831  -0.55921  -0.54774
 Alpha  occ. eigenvalues --   -0.54579  -0.53991  -0.53564  -0.52973  -0.52294
 Alpha  occ. eigenvalues --   -0.51624  -0.51225  -0.51038  -0.50477  -0.50364
 Alpha  occ. eigenvalues --   -0.49875  -0.49269  -0.48662  -0.48403  -0.48321
 Alpha  occ. eigenvalues --   -0.47846  -0.47744  -0.47438  -0.47357  -0.47224
 Alpha  occ. eigenvalues --   -0.47166  -0.46922  -0.46750  -0.46698  -0.46241
 Alpha  occ. eigenvalues --   -0.46193  -0.45743  -0.45721  -0.45435  -0.45041
 Alpha  occ. eigenvalues --   -0.44981  -0.44845  -0.44680  -0.44365  -0.44191
 Alpha  occ. eigenvalues --   -0.44035  -0.43856  -0.43803  -0.43677  -0.43596
 Alpha  occ. eigenvalues --   -0.43207  -0.43131  -0.42821  -0.42608  -0.42220
 Alpha  occ. eigenvalues --   -0.42037  -0.41786  -0.41624  -0.41467  -0.41432
 Alpha  occ. eigenvalues --   -0.41000  -0.40884  -0.40657  -0.40476  -0.40327
 Alpha  occ. eigenvalues --   -0.40155  -0.40083  -0.40031  -0.39946  -0.39447
 Alpha  occ. eigenvalues --   -0.39362  -0.39239  -0.39039  -0.38593  -0.38536
 Alpha  occ. eigenvalues --   -0.38439  -0.38389  -0.38088  -0.37907  -0.37692
 Alpha  occ. eigenvalues --   -0.37649  -0.37499  -0.37211  -0.36890  -0.36828
 Alpha  occ. eigenvalues --   -0.36569  -0.36234  -0.36113  -0.36014  -0.35885
 Alpha  occ. eigenvalues --   -0.35800  -0.35679  -0.35481  -0.35460  -0.35364
 Alpha  occ. eigenvalues --   -0.34978  -0.34291  -0.33990  -0.33954  -0.33680
 Alpha  occ. eigenvalues --   -0.33084  -0.32878  -0.32467  -0.32457  -0.32255
 Alpha  occ. eigenvalues --   -0.31990  -0.31702  -0.31400  -0.31307  -0.30884
 Alpha  occ. eigenvalues --   -0.30266  -0.30150  -0.29497  -0.29439  -0.29347
 Alpha  occ. eigenvalues --   -0.28789  -0.28693  -0.27494  -0.26725  -0.25851
 Alpha  occ. eigenvalues --   -0.25635  -0.25478  -0.25276  -0.24736  -0.20688
 Alpha  occ. eigenvalues --   -0.18558
 Alpha virt. eigenvalues --   -0.10826  -0.05475  -0.03593  -0.01908  -0.01666
 Alpha virt. eigenvalues --   -0.00645   0.01161   0.01595   0.02178   0.03256
 Alpha virt. eigenvalues --    0.04441   0.04621   0.05035   0.05407   0.05650

 Mulliken charges:
               1
     1  Mg   0.975748
     2  C    0.019306
     3  C   -0.061321
     4  C   -0.042055
     5  C   -0.091092
     6  N   -0.377487
     7  C    0.042605
     8  C   -0.114432
     9  C   -0.136737
    10  C    0.071078
    11  C    0.002415
    12  C    0.011113
    13  C    0.024269
    14  C    0.215798
    15  O   -0.272404
    16  O   -0.369550
    17  N   -0.500581
    18  C    0.163342
    19  C   -0.147937
    20  C   -0.083121
    21  C    0.180295
    22  C    0.037281
    23  C    0.038961
    24  O   -0.249879
    25  C    0.004593
    26  N   -0.373763
    27  C    0.032418
    28  C   -0.162809
    29  C   -0.059059
    30  C    0.054752
    31  C    0.032396
    32  C   -0.023320
    33  C   -0.045698
    34  N   -0.503382
    35  C    0.165476
    36  C   -0.196438
    37  C   -0.054802
    38  C    0.159971
    39  C    0.082197
    40  C    0.163010
    41  O   -0.201515
    42  C   -0.175452
    43  C    0.271146
    44  O   -0.272203
    45  O   -0.340872
    46  C    0.120971
    47  C    0.247941
    48  C   -0.157518
    49  C   -0.222686
    50  C    0.021084
    51  C    0.009221
    52  C   -0.032097
    53  C   -0.013737
    54  C   -0.238932
    55  C    0.013896
    56  C   -0.003666
    57  C   -0.037572
    58  C    0.007059
    59  C   -0.287075
    60  C    0.006568
    61  C    0.045193
    62  C   -0.024058
    63  C    0.003492
    64  C   -0.246963
    65  C   -0.012304
    66  C   -0.044478
    67  H   -0.004588
    68  H    0.030731
    69  H    0.007909
    70  H    0.087565
    71  H    0.048671
    72  H    0.050365
    73  H    0.047103
    74  H    0.049348
    75  H    0.037256
    76  H    0.033522
    77  H    0.064342
    78  H    0.077403
    79  H    0.051993
    80  H    0.033739
    81  H    0.055488
    82  H    0.050733
    83  H    0.057079
    84  H    0.067815
    85  H    0.052830
    86  H    0.032548
    87  H    0.049244
    88  H    0.059919
    89  H    0.038674
    90  H    0.034647
    91  H    0.031900
    92  H    0.044784
    93  H    0.049381
    94  H    0.041454
    95  H    0.071591
    96  H    0.025135
    97  H    0.062947
    98  H    0.086638
    99  H    0.046715
   100  H    0.075333
   101  H    0.070023
   102  H    0.053033
   103  H    0.059479
   104  H    0.034583
   105  H    0.056437
   106  H    0.035714
   107  H    0.054096
   108  H    0.021209
   109  H    0.035546
   110  H    0.024231
   111  H    0.023504
   112  H    0.016662
   113  H    0.016191
   114  H    0.032969
   115  H    0.046247
   116  H    0.034879
   117  H    0.023406
   118  H    0.034307
   119  H    0.027060
   120  H    0.025937
   121  H    0.028747
   122  H    0.030441
   123  H    0.014496
   124  H    0.035751
   125  H    0.037009
   126  H    0.037665
   127  H    0.026582
   128  H    0.028118
   129  H    0.023460
   130  H    0.030896
   131  H    0.033279
   132  H    0.017010
   133  H    0.015481
   134  H    0.028743
   135  H    0.021466
   136  H    0.035801
   137  H    0.021066
   138  H    0.041585
   139  H    0.045121
   140  H    0.024955
 Sum of Mulliken charges =  -0.00000

 Dipole moment (field-independent basis, Debye):
    X=             -3.5921    Y=              2.8306    Z=              4.6324  Tot=              6.5096
 Quadrupole moment (field-independent basis, Debye-Ang):
   XX=           -373.6078   YY=           -419.8175   ZZ=           -405.6413
   XY=             19.3738   XZ=             19.0591   YZ=             -5.4586

 Normal termination of Gaussian 16 at Tue May  3 23:34:28 2022.
