 Gaussian 16, Revision A.03,
 Gaussian 16:  ES64L-G16RevA.03 25-Dec-2016

 --------------------------------
 #p wB97XD/Def2SVP td=(nstates=5)
 --------------------------------

 -----------------------------------------------------
 step_1101_chromophore_24 TDDFT with wB97XD functional
 -----------------------------------------------------
 Symbolic Z-matrix:
 Charge =  0 Multiplicity = 1

                         Standard orientation:
 ---------------------------------------------------------------------
 Center     Atomic      Atomic             Coordinates (Angstroms)
 Number     Number       Type             X           Y           Z
 ---------------------------------------------------------------------
      1         12           0        5.043247    1.029868    0.049046
      2          6           0        4.126890   -2.334597   -0.158523
      3          6           0        1.685000    1.862652   -0.275409
      4          6           0        6.022668    4.202393   -0.386466
      5          6           0        8.470591   -0.040474    0.208686
      6          7           0        3.120860   -0.078639   -0.353985
      7          6           0        3.007797   -1.458987   -0.131273
      8          6           0        1.543606   -1.936814    0.102509
      9          6           0        0.784550   -0.564815   -0.113285
     10          6           0        1.887181    0.475024   -0.312038
     11          6           0       -0.280552   -0.625436   -1.254795
     12          6           0        1.210706   -2.566727    1.459688
     13          6           0        0.149818   -3.675862    1.562735
     14          6           0       -0.727866   -4.012955    0.342564
     15          8           0       -0.572218   -4.839736   -0.569859
     16          8           0       -2.004636   -3.434433    0.441107
     17          7           0        4.033416    2.801706   -0.321212
     18          6           0        2.660195    2.987121   -0.313838
     19          6           0        2.350658    4.399268   -0.428928
     20          6           0        3.602494    5.088423   -0.463353
     21          6           0        4.655983    4.028116   -0.373555
     22          6           0        0.862681    4.923216   -0.382572
     23          6           0        3.830145    6.577675   -0.434873
     24          8           0        4.994275    6.947049   -0.398159
     25          6           0        2.762177    7.582763   -0.335403
     26          7           0        6.972794    1.912714   -0.037774
     27          6           0        7.114703    3.262955   -0.171584
     28          6           0        8.643329    3.709713   -0.074743
     29          6           0        9.286094    2.347869    0.314145
     30          6           0        8.191798    1.341758    0.106786
     31          6           0        9.031513    4.288866   -1.404408
     32          6           0        9.879707    2.353170    1.759420
     33          6           0       11.399421    2.449888    1.946918
     34          7           0        6.124028   -0.723130   -0.031345
     35          6           0        7.513552   -0.998971    0.116388
     36          6           0        7.693733   -2.417590    0.046796
     37          6           0        6.420911   -2.992334   -0.021533
     38          6           0        5.488863   -1.897022   -0.058590
     39          6           0        8.971205   -3.211236    0.221366
     40          6           0        5.729715   -4.258473   -0.135132
     41          8           0        6.148677   -5.386152   -0.279679
     42          6           0        4.185276   -3.897621    0.005230
     43          6           0        3.420845   -4.594562   -1.002985
     44          8           0        3.225996   -4.256675   -2.166899
     45          8           0        2.984593   -5.710872   -0.446621
     46          6           0        2.224144   -6.626534   -1.336737
     47          6           0       -2.919907   -3.801961   -0.559934
     48          6           0       -4.209784   -3.016547   -0.553359
     49          6           0       -5.452142   -3.363472   -0.988846
     50          6           0       -5.824718   -4.642310   -1.764160
     51          6           0       -6.526524   -2.266786   -0.846590
     52          6           0       -7.441861   -2.503525    0.320112
     53          6           0       -6.920258   -2.088290    1.698427
     54          6           0       -7.823930   -1.233860    2.579311
     55          6           0       -7.620469   -1.594697    4.079233
     56          6           0       -7.464826    0.307060    2.389298
     57          6           0       -8.735639    1.181203    2.516213
     58          6           0       -9.018043    2.016766    1.246499
     59          6           0      -10.478581    1.831280    0.746413
     60          6           0      -10.546258    0.628816   -0.159458
     61          6           0      -11.008566    3.105341   -0.010907
     62          6           0      -12.466048    3.250868    0.122423
     63          6           0      -13.316351    3.243388   -1.235250
     64          6           0      -14.442936    2.268343   -1.300826
     65          6           0      -14.614301    1.477194   -2.592468
     66          6           0      -15.878439    2.836800   -0.963077
     67          1           0        0.615889    2.079620   -0.320615
     68          1           0        6.400643    5.214171   -0.548821
     69          1           0        9.471119   -0.418201    0.425052
     70          1           0        1.266469   -2.667444   -0.657160
     71          1           0        0.228508   -0.302854    0.787854
     72          1           0        0.052918    0.104633   -1.992626
     73          1           0       -1.296389   -0.491849   -0.883834
     74          1           0       -0.272317   -1.593296   -1.757811
     75          1           0        1.036936   -1.824089    2.237911
     76          1           0        2.141885   -3.038232    1.771341
     77          1           0       -0.601688   -3.269160    2.239301
     78          1           0        0.589858   -4.583483    1.973187
     79          1           0        0.588622    5.338764    0.586754
     80          1           0        0.131727    4.116962   -0.424783
     81          1           0        0.598676    5.656441   -1.144903
     82          1           0        2.167022    7.328704   -1.212486
     83          1           0        3.080600    8.621956   -0.413224
     84          1           0        2.152644    7.480585    0.563339
     85          1           0        8.777803    4.505109    0.658269
     86          1           0       10.029720    2.114864   -0.447844
     87          1           0        9.200490    5.354106   -1.248193
     88          1           0        8.174086    4.108416   -2.052882
     89          1           0        9.942361    3.800711   -1.749818
     90          1           0        9.453703    1.480659    2.253923
     91          1           0        9.396873    3.166250    2.301687
     92          1           0       11.689979    3.215244    2.667255
     93          1           0       11.897414    2.569654    0.984431
     94          1           0       11.677991    1.521764    2.448342
     95          1           0        8.835597   -3.979113    0.983157
     96          1           0        9.824386   -2.556004    0.398044
     97          1           0        9.156334   -3.673960   -0.747825
     98          1           0        3.805513   -4.213249    0.976971
     99          1           0        2.861575   -7.494529   -1.503891
    100          1           0        2.049395   -6.358641   -2.378787
    101          1           0        1.351389   -6.885854   -0.738126
    102          1           0       -3.123158   -4.870842   -0.492114
    103          1           0       -2.572466   -3.473567   -1.539822
    104          1           0       -4.177774   -2.166670    0.128012
    105          1           0       -6.476287   -5.314228   -1.205564
    106          1           0       -4.954749   -5.260972   -1.983733
    107          1           0       -6.235284   -4.299304   -2.714559
    108          1           0       -7.080828   -2.289686   -1.784245
    109          1           0       -6.078809   -1.274537   -0.774076
    110          1           0       -7.861936   -3.499481    0.463411
    111          1           0       -8.327384   -1.922138    0.067257
    112          1           0       -5.883492   -1.765418    1.607122
    113          1           0       -6.814036   -3.064677    2.172164
    114          1           0       -8.838771   -1.495207    2.278810
    115          1           0       -6.618532   -2.006559    4.198972
    116          1           0       -8.451982   -2.199617    4.439888
    117          1           0       -7.731550   -0.620908    4.556942
    118          1           0       -6.831182    0.353758    1.504359
    119          1           0       -6.886939    0.663323    3.242671
    120          1           0       -8.630472    1.890537    3.336078
    121          1           0       -9.639253    0.621599    2.756940
    122          1           0       -8.208239    1.842077    0.537959
    123          1           0       -9.035223    3.056101    1.573701
    124          1           0      -11.062374    1.536890    1.618447
    125          1           0      -11.314046   -0.003479    0.287096
    126          1           0       -9.578972    0.145244   -0.295682
    127          1           0      -10.799732    0.849326   -1.195914
    128          1           0      -10.694269    2.914319   -1.036981
    129          1           0      -10.477353    3.987637    0.346069
    130          1           0      -12.748375    4.254218    0.442203
    131          1           0      -12.973431    2.561536    0.798413
    132          1           0      -12.693425    3.147650   -2.124465
    133          1           0      -13.794795    4.212324   -1.375563
    134          1           0      -14.327730    1.544051   -0.495367
    135          1           0      -15.388544    1.951019   -3.195221
    136          1           0      -14.903800    0.429093   -2.514473
    137          1           0      -13.736703    1.496707   -3.238059
    138          1           0      -16.575595    2.029148   -0.740815
    139          1           0      -16.199138    3.508301   -1.759715
    140          1           0      -15.780943    3.370534   -0.018349
 ---------------------------------------------------------------------

 SCF Done:  E(RwB97XD) =  -3007.85910424     A.U. after   18 cycles

 Excitation energies and oscillator strengths:

 Excited State   1:      Singlet-A      1.6468 eV  752.86 nm  f=0.3649  <S**2>=0.000
     245 -> 248       -0.19596
     246 -> 247        0.67992
     245 <- 248       -0.11887
 This state for optimization and/or second-order correction.
 Total Energy, E(TD-HF/TD-DFT) =  -3007.79858413
 Copying the excited state density for this state as the 1-particle RhoCI density.

 Excited State   2:      Singlet-A      2.1742 eV  570.25 nm  f=0.0890  <S**2>=0.000
     245 -> 247        0.62669
     246 -> 248        0.31595

 Excited State   3:      Singlet-A      3.4553 eV  358.82 nm  f=0.5896  <S**2>=0.000
     242 -> 247       -0.22192
     243 -> 247        0.17914
     245 -> 247       -0.27002
     246 -> 248        0.56445
     245 <- 247        0.10792

 Excited State   4:      Singlet-A      3.5347 eV  350.76 nm  f=0.0905  <S**2>=0.000
     243 -> 247        0.62458
     246 -> 248       -0.21213

 Excited State   5:      Singlet-A      3.5914 eV  345.22 nm  f=0.0152  <S**2>=0.000
     240 -> 247        0.51579
     240 -> 248       -0.18173
     240 -> 249       -0.25477
     240 -> 250       -0.19336
     240 -> 251       -0.10258
     243 -> 247        0.17487

 The electronic state is 1-A.
 Alpha  occ. eigenvalues --  -46.94991 -19.30480 -19.29545 -19.25841 -19.24006
 Alpha  occ. eigenvalues --  -19.23268 -19.22536 -14.47056 -14.46402 -14.44509
 Alpha  occ. eigenvalues --  -14.43725 -10.44683 -10.41069 -10.38944 -10.38687
 Alpha  occ. eigenvalues --  -10.35540 -10.35255 -10.35242 -10.35033 -10.34733
 Alpha  occ. eigenvalues --  -10.34347 -10.34249 -10.33819 -10.33237 -10.33037
 Alpha  occ. eigenvalues --  -10.33024 -10.33018 -10.32366 -10.31954 -10.31944
 Alpha  occ. eigenvalues --  -10.31875 -10.31852 -10.31677 -10.31578 -10.31560
 Alpha  occ. eigenvalues --  -10.31265 -10.31203 -10.31124 -10.31080 -10.30911
 Alpha  occ. eigenvalues --  -10.30575 -10.30195 -10.30158 -10.30144 -10.29931
 Alpha  occ. eigenvalues --  -10.29666 -10.29634 -10.29632 -10.29551 -10.29525
 Alpha  occ. eigenvalues --  -10.29209 -10.29087 -10.28969 -10.28896 -10.28788
 Alpha  occ. eigenvalues --  -10.28719 -10.28671 -10.28666 -10.28521 -10.28421
 Alpha  occ. eigenvalues --  -10.28356 -10.28283 -10.28241 -10.28101 -10.27825
 Alpha  occ. eigenvalues --  -10.27772  -3.20968  -1.94548  -1.94109  -1.93929
 Alpha  occ. eigenvalues --   -1.19172  -1.18460  -1.12399  -1.12309  -1.09856
 Alpha  occ. eigenvalues --   -1.08174  -1.06029  -1.04943  -1.04497  -1.03768
 Alpha  occ. eigenvalues --   -0.93431  -0.92446  -0.92128  -0.91763  -0.90822
 Alpha  occ. eigenvalues --   -0.90443  -0.89953  -0.89529  -0.88734  -0.88617
 Alpha  occ. eigenvalues --   -0.87970  -0.87611  -0.86431  -0.85932  -0.85453
 Alpha  occ. eigenvalues --   -0.84744  -0.84207  -0.83381  -0.82815  -0.82032
 Alpha  occ. eigenvalues --   -0.81757  -0.79948  -0.79864  -0.79600  -0.77843
 Alpha  occ. eigenvalues --   -0.77401  -0.77065  -0.76786  -0.76685  -0.76121
 Alpha  occ. eigenvalues --   -0.75624  -0.74418  -0.73243  -0.72744  -0.70585
 Alpha  occ. eigenvalues --   -0.70466  -0.70236  -0.69053  -0.68481  -0.67593
 Alpha  occ. eigenvalues --   -0.67092  -0.66713  -0.66531  -0.65899  -0.65743
 Alpha  occ. eigenvalues --   -0.65460  -0.65013  -0.64466  -0.63305  -0.62269
 Alpha  occ. eigenvalues --   -0.62080  -0.61381  -0.60986  -0.60296  -0.59673
 Alpha  occ. eigenvalues --   -0.59133  -0.58691  -0.58460  -0.57902  -0.57767
 Alpha  occ. eigenvalues --   -0.57279  -0.56648  -0.56051  -0.55860  -0.55659
 Alpha  occ. eigenvalues --   -0.55251  -0.55118  -0.54827  -0.54779  -0.54560
 Alpha  occ. eigenvalues --   -0.54540  -0.54363  -0.54133  -0.54058  -0.53615
 Alpha  occ. eigenvalues --   -0.53518  -0.53099  -0.53063  -0.52764  -0.52371
 Alpha  occ. eigenvalues --   -0.52345  -0.52245  -0.52059  -0.51662  -0.51498
 Alpha  occ. eigenvalues --   -0.51382  -0.51243  -0.51101  -0.50942  -0.50882
 Alpha  occ. eigenvalues --   -0.50487  -0.50393  -0.50063  -0.49939  -0.49479
 Alpha  occ. eigenvalues --   -0.49272  -0.49046  -0.48867  -0.48805  -0.48672
 Alpha  occ. eigenvalues --   -0.48224  -0.48125  -0.47839  -0.47640  -0.47509
 Alpha  occ. eigenvalues --   -0.47337  -0.47260  -0.47240  -0.47120  -0.46716
 Alpha  occ. eigenvalues --   -0.46626  -0.46368  -0.46156  -0.45706  -0.45700
 Alpha  occ. eigenvalues --   -0.45613  -0.45530  -0.45239  -0.44983  -0.44820
 Alpha  occ. eigenvalues --   -0.44776  -0.44580  -0.44267  -0.43994  -0.43888
 Alpha  occ. eigenvalues --   -0.43786  -0.43275  -0.43234  -0.43074  -0.42906
 Alpha  occ. eigenvalues --   -0.42877  -0.42825  -0.42632  -0.42461  -0.42354
 Alpha  occ. eigenvalues --   -0.41919  -0.41393  -0.41039  -0.40911  -0.40745
 Alpha  occ. eigenvalues --   -0.40118  -0.39812  -0.39496  -0.39382  -0.39264
 Alpha  occ. eigenvalues --   -0.38918  -0.38752  -0.38266  -0.38228  -0.37896
 Alpha  occ. eigenvalues --   -0.37265  -0.37216  -0.36531  -0.36309  -0.36258
 Alpha  occ. eigenvalues --   -0.35564  -0.35476  -0.34633  -0.33304  -0.32722
 Alpha  occ. eigenvalues --   -0.32656  -0.32373  -0.31897  -0.31460  -0.25650
 Alpha  occ. eigenvalues --   -0.22705
 Alpha virt. eigenvalues --   -0.06660  -0.00089   0.02687   0.04808   0.04956
 Alpha virt. eigenvalues --    0.05272   0.07844   0.08302   0.08966   0.09850
 Alpha virt. eigenvalues --    0.10861   0.11358   0.11666   0.12201   0.12384

 Mulliken charges:
               1
     1  Mg   0.965703
     2  C    0.001810
     3  C   -0.080247
     4  C   -0.056431
     5  C   -0.108009
     6  N   -0.349049
     7  C    0.020342
     8  C   -0.085212
     9  C   -0.115135
    10  C    0.062174
    11  C    0.013658
    12  C    0.021457
    13  C    0.040566
    14  C    0.200933
    15  O   -0.267996
    16  O   -0.366845
    17  N   -0.468546
    18  C    0.158450
    19  C   -0.144005
    20  C   -0.071968
    21  C    0.171356
    22  C    0.049418
    23  C    0.036445
    24  O   -0.244565
    25  C    0.014824
    26  N   -0.338328
    27  C    0.019943
    28  C   -0.138788
    29  C   -0.032498
    30  C    0.038200
    31  C    0.041716
    32  C   -0.010561
    33  C   -0.029300
    34  N   -0.465683
    35  C    0.161393
    36  C   -0.193637
    37  C   -0.055095
    38  C    0.150298
    39  C    0.093659
    40  C    0.146217
    41  O   -0.192349
    42  C   -0.129972
    43  C    0.243212
    44  O   -0.265525
    45  O   -0.338286
    46  C    0.135248
    47  C    0.260067
    48  C   -0.160104
    49  C   -0.216040
    50  C    0.034732
    51  C    0.034813
    52  C   -0.015033
    53  C    0.002807
    54  C   -0.209541
    55  C    0.027166
    56  C    0.015455
    57  C   -0.024478
    58  C    0.024137
    59  C   -0.253366
    60  C    0.017500
    61  C    0.063971
    62  C   -0.007670
    63  C    0.015184
    64  C   -0.217081
    65  C   -0.000260
    66  C   -0.028795
    67  H   -0.014442
    68  H    0.027312
    69  H    0.003015
    70  H    0.069680
    71  H    0.038335
    72  H    0.044423
    73  H    0.043060
    74  H    0.042720
    75  H    0.031834
    76  H    0.020623
    77  H    0.058857
    78  H    0.074434
    79  H    0.047140
    80  H    0.029932
    81  H    0.050900
    82  H    0.042944
    83  H    0.056993
    84  H    0.063918
    85  H    0.043534
    86  H    0.019392
    87  H    0.044415
    88  H    0.052211
    89  H    0.033015
    90  H    0.024931
    91  H    0.023160
    92  H    0.039444
    93  H    0.043241
    94  H    0.035116
    95  H    0.067738
    96  H    0.019348
    97  H    0.058152
    98  H    0.077900
    99  H    0.042774
   100  H    0.072492
   101  H    0.067073
   102  H    0.046723
   103  H    0.052668
   104  H    0.028743
   105  H    0.051523
   106  H    0.030216
   107  H    0.048242
   108  H    0.014022
   109  H    0.026816
   110  H    0.017402
   111  H    0.008971
   112  H    0.002134
   113  H    0.006522
   114  H    0.019358
   115  H    0.040737
   116  H    0.030387
   117  H    0.014707
   118  H    0.023282
   119  H    0.017933
   120  H    0.019580
   121  H    0.017401
   122  H    0.021723
   123  H    0.004088
   124  H    0.021598
   125  H    0.032309
   126  H    0.024747
   127  H    0.019694
   128  H    0.016857
   129  H    0.016412
   130  H    0.023925
   131  H    0.022826
   132  H    0.007219
   133  H    0.006916
   134  H    0.015151
   135  H    0.013809
   136  H    0.031133
   137  H    0.014801
   138  H    0.035962
   139  H    0.037909
   140  H    0.017489
 Sum of Mulliken charges =  -0.00000

 Dipole moment (field-independent basis, Debye):
    X=             -3.6976    Y=              3.0493    Z=              4.6558  Tot=              6.6819
 Quadrupole moment (field-independent basis, Debye-Ang):
   XX=           -374.5741   YY=           -417.5624   ZZ=           -405.2849
   XY=             19.4994   XZ=             19.1858   YZ=             -5.7427

 Normal termination of Gaussian 16 at Wed May  4 00:03:52 2022.
