 Gaussian 16, Revision A.03,
 Gaussian 16:  ES64L-G16RevA.03 25-Dec-2016

 --------------------
 #p ZINDO=(nstates=5)
 --------------------

 ------------------------------
 step_1101_chromophore_24 ZINDO
 ------------------------------
 Symbolic Z-matrix:
 Charge =  0 Multiplicity = 1

                         Standard orientation:
 ---------------------------------------------------------------------
 Center     Atomic      Atomic             Coordinates (Angstroms)
 Number     Number       Type             X           Y           Z
 ---------------------------------------------------------------------
      1         12           0        5.043247    1.029868    0.049046
      2          6           0        4.126890   -2.334597   -0.158523
      3          6           0        1.685000    1.862652   -0.275409
      4          6           0        6.022668    4.202393   -0.386466
      5          6           0        8.470591   -0.040474    0.208686
      6          7           0        3.120860   -0.078639   -0.353985
      7          6           0        3.007797   -1.458987   -0.131273
      8          6           0        1.543606   -1.936814    0.102509
      9          6           0        0.784550   -0.564815   -0.113285
     10          6           0        1.887181    0.475024   -0.312038
     11          6           0       -0.280552   -0.625436   -1.254795
     12          6           0        1.210706   -2.566727    1.459688
     13          6           0        0.149818   -3.675862    1.562735
     14          6           0       -0.727866   -4.012955    0.342564
     15          8           0       -0.572218   -4.839736   -0.569859
     16          8           0       -2.004636   -3.434433    0.441107
     17          7           0        4.033416    2.801706   -0.321212
     18          6           0        2.660195    2.987121   -0.313838
     19          6           0        2.350658    4.399268   -0.428928
     20          6           0        3.602494    5.088423   -0.463353
     21          6           0        4.655983    4.028116   -0.373555
     22          6           0        0.862681    4.923216   -0.382572
     23          6           0        3.830145    6.577675   -0.434873
     24          8           0        4.994275    6.947049   -0.398159
     25          6           0        2.762177    7.582763   -0.335403
     26          7           0        6.972794    1.912714   -0.037774
     27          6           0        7.114703    3.262955   -0.171584
     28          6           0        8.643329    3.709713   -0.074743
     29          6           0        9.286094    2.347869    0.314145
     30          6           0        8.191798    1.341758    0.106786
     31          6           0        9.031513    4.288866   -1.404408
     32          6           0        9.879707    2.353170    1.759420
     33          6           0       11.399421    2.449888    1.946918
     34          7           0        6.124028   -0.723130   -0.031345
     35          6           0        7.513552   -0.998971    0.116388
     36          6           0        7.693733   -2.417590    0.046796
     37          6           0        6.420911   -2.992334   -0.021533
     38          6           0        5.488863   -1.897022   -0.058590
     39          6           0        8.971205   -3.211236    0.221366
     40          6           0        5.729715   -4.258473   -0.135132
     41          8           0        6.148677   -5.386152   -0.279679
     42          6           0        4.185276   -3.897621    0.005230
     43          6           0        3.420845   -4.594562   -1.002985
     44          8           0        3.225996   -4.256675   -2.166899
     45          8           0        2.984593   -5.710872   -0.446621
     46          6           0        2.224144   -6.626534   -1.336737
     47          6           0       -2.919907   -3.801961   -0.559934
     48          6           0       -4.209784   -3.016547   -0.553359
     49          6           0       -5.452142   -3.363472   -0.988846
     50          6           0       -5.824718   -4.642310   -1.764160
     51          6           0       -6.526524   -2.266786   -0.846590
     52          6           0       -7.441861   -2.503525    0.320112
     53          6           0       -6.920258   -2.088290    1.698427
     54          6           0       -7.823930   -1.233860    2.579311
     55          6           0       -7.620469   -1.594697    4.079233
     56          6           0       -7.464826    0.307060    2.389298
     57          6           0       -8.735639    1.181203    2.516213
     58          6           0       -9.018043    2.016766    1.246499
     59          6           0      -10.478581    1.831280    0.746413
     60          6           0      -10.546258    0.628816   -0.159458
     61          6           0      -11.008566    3.105341   -0.010907
     62          6           0      -12.466048    3.250868    0.122423
     63          6           0      -13.316351    3.243388   -1.235250
     64          6           0      -14.442936    2.268343   -1.300826
     65          6           0      -14.614301    1.477194   -2.592468
     66          6           0      -15.878439    2.836800   -0.963077
     67          1           0        0.615889    2.079620   -0.320615
     68          1           0        6.400643    5.214171   -0.548821
     69          1           0        9.471119   -0.418201    0.425052
     70          1           0        1.266469   -2.667444   -0.657160
     71          1           0        0.228508   -0.302854    0.787854
     72          1           0        0.052918    0.104633   -1.992626
     73          1           0       -1.296389   -0.491849   -0.883834
     74          1           0       -0.272317   -1.593296   -1.757811
     75          1           0        1.036936   -1.824089    2.237911
     76          1           0        2.141885   -3.038232    1.771341
     77          1           0       -0.601688   -3.269160    2.239301
     78          1           0        0.589858   -4.583483    1.973187
     79          1           0        0.588622    5.338764    0.586754
     80          1           0        0.131727    4.116962   -0.424783
     81          1           0        0.598676    5.656441   -1.144903
     82          1           0        2.167022    7.328704   -1.212486
     83          1           0        3.080600    8.621956   -0.413224
     84          1           0        2.152644    7.480585    0.563339
     85          1           0        8.777803    4.505109    0.658269
     86          1           0       10.029720    2.114864   -0.447844
     87          1           0        9.200490    5.354106   -1.248193
     88          1           0        8.174086    4.108416   -2.052882
     89          1           0        9.942361    3.800711   -1.749818
     90          1           0        9.453703    1.480659    2.253923
     91          1           0        9.396873    3.166250    2.301687
     92          1           0       11.689979    3.215244    2.667255
     93          1           0       11.897414    2.569654    0.984431
     94          1           0       11.677991    1.521764    2.448342
     95          1           0        8.835597   -3.979113    0.983157
     96          1           0        9.824386   -2.556004    0.398044
     97          1           0        9.156334   -3.673960   -0.747825
     98          1           0        3.805513   -4.213249    0.976971
     99          1           0        2.861575   -7.494529   -1.503891
    100          1           0        2.049395   -6.358641   -2.378787
    101          1           0        1.351389   -6.885854   -0.738126
    102          1           0       -3.123158   -4.870842   -0.492114
    103          1           0       -2.572466   -3.473567   -1.539822
    104          1           0       -4.177774   -2.166670    0.128012
    105          1           0       -6.476287   -5.314228   -1.205564
    106          1           0       -4.954749   -5.260972   -1.983733
    107          1           0       -6.235284   -4.299304   -2.714559
    108          1           0       -7.080828   -2.289686   -1.784245
    109          1           0       -6.078809   -1.274537   -0.774076
    110          1           0       -7.861936   -3.499481    0.463411
    111          1           0       -8.327384   -1.922138    0.067257
    112          1           0       -5.883492   -1.765418    1.607122
    113          1           0       -6.814036   -3.064677    2.172164
    114          1           0       -8.838771   -1.495207    2.278810
    115          1           0       -6.618532   -2.006559    4.198972
    116          1           0       -8.451982   -2.199617    4.439888
    117          1           0       -7.731550   -0.620908    4.556942
    118          1           0       -6.831182    0.353758    1.504359
    119          1           0       -6.886939    0.663323    3.242671
    120          1           0       -8.630472    1.890537    3.336078
    121          1           0       -9.639253    0.621599    2.756940
    122          1           0       -8.208239    1.842077    0.537959
    123          1           0       -9.035223    3.056101    1.573701
    124          1           0      -11.062374    1.536890    1.618447
    125          1           0      -11.314046   -0.003479    0.287096
    126          1           0       -9.578972    0.145244   -0.295682
    127          1           0      -10.799732    0.849326   -1.195914
    128          1           0      -10.694269    2.914319   -1.036981
    129          1           0      -10.477353    3.987637    0.346069
    130          1           0      -12.748375    4.254218    0.442203
    131          1           0      -12.973431    2.561536    0.798413
    132          1           0      -12.693425    3.147650   -2.124465
    133          1           0      -13.794795    4.212324   -1.375563
    134          1           0      -14.327730    1.544051   -0.495367
    135          1           0      -15.388544    1.951019   -3.195221
    136          1           0      -14.903800    0.429093   -2.514473
    137          1           0      -13.736703    1.496707   -3.238059
    138          1           0      -16.575595    2.029148   -0.740815
    139          1           0      -16.199138    3.508301   -1.759715
    140          1           0      -15.780943    3.370534   -0.018349
 ---------------------------------------------------------------------

 SCF Done:  E(RZINDO/S) =  -474.324821690     A.U. after   20 cycles

 Excitation energies and oscillator strengths:

 Excited State   1:      Singlet-A      1.2299 eV 1008.07 nm  f=0.5877  <S**2>=0.000
     175 ->178        -0.19686
     176 ->177         0.66061
 This state for optimization and/or second-order correction.
 Total Energy, E(CIS/TDA) =  -474.279623276
 Copying the excited state density for this state as the 1-particle RhoCI density.

 Excited State   2:      Singlet-A      1.9274 eV  643.27 nm  f=0.0224  <S**2>=0.000
     175 ->177         0.52895
     176 ->178         0.44829

 Excited State   3:      Singlet-A      2.8464 eV  435.59 nm  f=0.0496  <S**2>=0.000
     168 ->177         0.21286
     168 ->178        -0.11868
     168 ->179        -0.20479
     168 ->181        -0.22736
     168 ->186        -0.14892
     170 ->177         0.22032
     170 ->178        -0.12168
     170 ->179        -0.21098
     170 ->181        -0.24454
     170 ->186        -0.15038
     176 ->178        -0.12220

 Excited State   4:      Singlet-A      2.9721 eV  417.16 nm  f=0.9146  <S**2>=0.000
     175 ->177        -0.35600
     176 ->178         0.44591
     176 ->179         0.30506

 Excited State   5:      Singlet-A      3.0386 eV  408.04 nm  f=0.3282  <S**2>=0.000
     175 ->177         0.22054
     176 ->178        -0.23732
     176 ->179         0.58365
     176 ->183         0.10499

 The electronic state is 1-A.
 Alpha  occ. eigenvalues --   -1.83161  -1.79924  -1.78075  -1.74229  -1.73834
 Alpha  occ. eigenvalues --   -1.69585  -1.66438  -1.61869  -1.60081  -1.57477
 Alpha  occ. eigenvalues --   -1.56194  -1.51336  -1.48672  -1.47746  -1.45815
 Alpha  occ. eigenvalues --   -1.43463  -1.42802  -1.40314  -1.39444  -1.37014
 Alpha  occ. eigenvalues --   -1.35581  -1.33854  -1.33452  -1.30670  -1.29106
 Alpha  occ. eigenvalues --   -1.27263  -1.25144  -1.22586  -1.21020  -1.18735
 Alpha  occ. eigenvalues --   -1.16949  -1.15527  -1.14966  -1.14490  -1.13825
 Alpha  occ. eigenvalues --   -1.13591  -1.10700  -1.10598  -1.04604  -1.03548
 Alpha  occ. eigenvalues --   -1.02567  -1.00072  -0.99410  -0.98217  -0.97444
 Alpha  occ. eigenvalues --   -0.95781  -0.94344  -0.93398  -0.92874  -0.92066
 Alpha  occ. eigenvalues --   -0.90752  -0.90685  -0.88728  -0.88034  -0.86815
 Alpha  occ. eigenvalues --   -0.86594  -0.83653  -0.83468  -0.81835  -0.80505
 Alpha  occ. eigenvalues --   -0.79813  -0.78910  -0.77011  -0.76294  -0.75527
 Alpha  occ. eigenvalues --   -0.75055  -0.74522  -0.74435  -0.74075  -0.72824
 Alpha  occ. eigenvalues --   -0.72775  -0.72309  -0.71200  -0.71017  -0.70016
 Alpha  occ. eigenvalues --   -0.69793  -0.69155  -0.68565  -0.68478  -0.68126
 Alpha  occ. eigenvalues --   -0.67863  -0.67523  -0.67140  -0.66373  -0.66131
 Alpha  occ. eigenvalues --   -0.65513  -0.64873  -0.64446  -0.63884  -0.63411
 Alpha  occ. eigenvalues --   -0.63135  -0.62949  -0.62464  -0.62104  -0.61417
 Alpha  occ. eigenvalues --   -0.61085  -0.60883  -0.60732  -0.60562  -0.60202
 Alpha  occ. eigenvalues --   -0.60011  -0.59102  -0.59088  -0.58932  -0.58735
 Alpha  occ. eigenvalues --   -0.57961  -0.57691  -0.57439  -0.57036  -0.56768
 Alpha  occ. eigenvalues --   -0.56138  -0.55792  -0.55131  -0.54981  -0.54659
 Alpha  occ. eigenvalues --   -0.54074  -0.53998  -0.53456  -0.52575  -0.52222
 Alpha  occ. eigenvalues --   -0.52013  -0.51804  -0.51801  -0.51557  -0.51226
 Alpha  occ. eigenvalues --   -0.50646  -0.50442  -0.50329  -0.50191  -0.49962
 Alpha  occ. eigenvalues --   -0.49561  -0.49527  -0.49119  -0.48941  -0.48731
 Alpha  occ. eigenvalues --   -0.48490  -0.48249  -0.47915  -0.47874  -0.47751
 Alpha  occ. eigenvalues --   -0.47666  -0.47340  -0.46852  -0.46656  -0.46526
 Alpha  occ. eigenvalues --   -0.45951  -0.45794  -0.45345  -0.45290  -0.45138
 Alpha  occ. eigenvalues --   -0.45077  -0.44551  -0.44387  -0.43993  -0.43760
 Alpha  occ. eigenvalues --   -0.43210  -0.42973  -0.42418  -0.42165  -0.41835
 Alpha  occ. eigenvalues --   -0.41664  -0.41166  -0.40288  -0.38903  -0.38516
 Alpha  occ. eigenvalues --   -0.37360  -0.36917  -0.35124  -0.34868  -0.34618
 Alpha  occ. eigenvalues --   -0.33351  -0.32675  -0.32036  -0.31477  -0.26382
 Alpha  occ. eigenvalues --   -0.21458
 Alpha virt. eigenvalues --   -0.08169  -0.02197  -0.00282   0.00937   0.01624
 Alpha virt. eigenvalues --    0.02196   0.03106   0.03788   0.04794   0.04984
 Alpha virt. eigenvalues --    0.06209   0.07148   0.07365   0.07868   0.08405

 Mulliken charges:
               1
     1  Mg   0.433476
     2  C   -0.069103
     3  C   -0.111228
     4  C   -0.043436
     5  C   -0.044636
     6  N   -0.298835
     7  C    0.129816
     8  C    0.004498
     9  C    0.002956
    10  C    0.148997
    11  C   -0.055265
    12  C   -0.016364
    13  C    0.014790
    14  C    0.457850
    15  O   -0.509854
    16  O   -0.275803
    17  N   -0.317272
    18  C    0.118249
    19  C   -0.008655
    20  C   -0.035336
    21  C    0.128369
    22  C   -0.048006
    23  C    0.334231
    24  O   -0.533813
    25  C   -0.021919
    26  N   -0.241903
    27  C    0.113031
    28  C   -0.000097
    29  C    0.005387
    30  C    0.109394
    31  C   -0.051154
    32  C   -0.029770
    33  C   -0.054933
    34  N   -0.329343
    35  C    0.077113
    36  C    0.040769
    37  C   -0.069801
    38  C    0.136677
    39  C   -0.040800
    40  C    0.340520
    41  O   -0.511408
    42  C    0.051058
    43  C    0.499517
    44  O   -0.543237
    45  O   -0.256406
    46  C    0.067309
    47  C    0.110622
    48  C   -0.096377
    49  C   -0.022653
    50  C   -0.041861
    51  C   -0.011060
    52  C   -0.027436
    53  C   -0.037229
    54  C   -0.016880
    55  C   -0.064224
    56  C   -0.038505
    57  C   -0.038547
    58  C   -0.043776
    59  C   -0.017334
    60  C   -0.059561
    61  C   -0.022846
    62  C   -0.032696
    63  C   -0.033581
    64  C   -0.006799
    65  C   -0.056606
    66  C   -0.059774
    67  H    0.020218
    68  H    0.048551
    69  H    0.035788
    70  H    0.052852
    71  H    0.024901
    72  H    0.027065
    73  H    0.024617
    74  H    0.025976
    75  H    0.025913
    76  H    0.013209
    77  H    0.031717
    78  H    0.051632
    79  H    0.025348
    80  H    0.022819
    81  H    0.029870
    82  H    0.032854
    83  H    0.040137
    84  H    0.040149
    85  H    0.035110
    86  H    0.027448
    87  H    0.023658
    88  H    0.033395
    89  H    0.021687
    90  H    0.018646
    91  H    0.016964
    92  H    0.023327
    93  H    0.027788
    94  H    0.017376
    95  H    0.041266
    96  H    0.019583
    97  H    0.036720
    98  H    0.054213
    99  H    0.029309
   100  H    0.063621
   101  H    0.042827
   102  H    0.051806
   103  H    0.051731
   104  H    0.026479
   105  H    0.034129
   106  H    0.019811
   107  H    0.029326
   108  H    0.013781
   109  H    0.024758
   110  H    0.021715
   111  H    0.003901
   112  H    0.022353
   113  H    0.002167
   114  H    0.027430
   115  H    0.031072
   116  H    0.021243
   117  H    0.015782
   118  H    0.029451
   119  H    0.016890
   120  H    0.013194
   121  H    0.023044
   122  H    0.030103
   123  H    0.007312
   124  H    0.025778
   125  H    0.017657
   126  H    0.018402
   127  H    0.015062
   128  H    0.023486
   129  H    0.018513
   130  H    0.012926
   131  H    0.027449
   132  H    0.018289
   133  H    0.012260
   134  H    0.010930
   135  H    0.012100
   136  H    0.019898
   137  H    0.010181
   138  H    0.020838
   139  H    0.026291
   140  H    0.007396
 Sum of Mulliken charges =  -0.00000

 Dipole moment (field-independent basis, Debye):
    X=             -4.9391    Y=              4.2690    Z=              6.8483  Tot=              9.4614
 N-N= 4.336342305335D+03 E-N= 0.000000000000D+00  KE=-9.347550841670D+03
 Leave Link  601 at Wed May  4 00:16:34 2022, MaxMem=  6710886400 cpu:               0.8 elap:               0.0
 (Enter /sw/apps/gaussian-16.0/g16/l9999.exe)
 1\1\GINC-BP1-COMPUTE092\SP\RZINDO CIS\STO-3G\C55H74Mg1N4O6\OF15641\04-
 May-2022\0\\#p ZINDO=(nstates=5)\\step_1101_chromophore_24 ZINDO\\0,1\
 Mg,0,0.103,43.939,24.786\C,0,2.319,43.254,27.398\C,0,-2.515,43.156,26.
 933\C,0,-1.911,43.984,22.111\C,0,2.957,44.548,22.688\N,0,-0.1,43.121,2
 6.878\C,0,0.957,43.185,27.798\C,0,0.496,43.129,29.285\C,0,-1.059,42.92
 9,29.068\C,0,-1.266,43.016,27.556\C,0,-1.61,41.629,29.737\C,0,0.798,44
 .345,30.168\C,0,1.087,44.164,31.668\C,0,0.871,42.79,32.33\O,0,1.648,41

 Normal termination of Gaussian 16 at Wed May  4 00:16:34 2022.
