 Gaussian 16, Revision A.03,
 Gaussian 16:  ES64L-G16RevA.03 25-Dec-2016

 ------------------------------
 #p blyp/Def2SVP td=(nstates=5)
 ------------------------------

 --------------------------------------------------
 step_501_chromophore_23 TDDFT with blyp functional
 --------------------------------------------------
 Symbolic Z-matrix:
 Charge =  0 Multiplicity = 1

                         Standard orientation:
 ---------------------------------------------------------------------
 Center     Atomic      Atomic             Coordinates (Angstroms)
 Number     Number       Type             X           Y           Z
 ---------------------------------------------------------------------
      1         12           0        4.957874    0.409203   -0.298916
      2          6           0        3.087096   -2.528751   -0.164113
      3          6           0        2.741553    1.665308   -2.621565
      4          6           0        6.803873    3.120094   -0.190947
      5          6           0        6.523621   -0.580345    2.839837
      6          7           0        3.092452   -0.453499   -1.334567
      7          6           0        2.490843   -1.658944   -1.105232
      8          6           0        1.319007   -1.847768   -2.001829
      9          6           0        1.187983   -0.468564   -2.762995
     10          6           0        2.426699    0.352810   -2.231259
     11          6           0        1.021864   -0.589093   -4.298809
     12          6           0        0.022051   -2.207209   -1.236885
     13          6           0       -0.626222   -3.457981   -1.827790
     14          6           0       -2.128073   -3.366096   -2.233998
     15          8           0       -2.450212   -3.096951   -3.397105
     16          8           0       -2.933462   -3.654400   -1.153199
     17          7           0        4.808437    2.151191   -1.304691
     18          6           0        3.857657    2.494634   -2.264686
     19          6           0        4.258159    3.807213   -2.754759
     20          6           0        5.485681    4.252492   -2.075759
     21          6           0        5.817654    3.114432   -1.161491
     22          6           0        3.432331    4.595331   -3.642857
     23          6           0        6.030647    5.610140   -2.243241
     24          8           0        5.567929    6.443927   -2.993322
     25          6           0        7.157073    6.157661   -1.438102
     26          7           0        6.359632    1.131073    1.107476
     27          6           0        7.186344    2.164570    0.746242
     28          6           0        8.200808    2.426896    1.839250
     29          6           0        7.756993    1.566207    2.962400
     30          6           0        6.789533    0.693482    2.331567
     31          6           0        9.715272    2.282507    1.399512
     32          6           0        6.989073    2.354484    4.078340
     33          6           0        7.091028    1.832947    5.436796
     34          7           0        4.886584   -1.229992    1.087633
     35          6           0        5.605489   -1.527947    2.252665
     36          6           0        5.380874   -2.895681    2.601558
     37          6           0        4.385330   -3.324723    1.731762
     38          6           0        4.075900   -2.244746    0.830065
     39          6           0        6.070287   -3.590414    3.717286
     40          6           0        3.534390   -4.402363    1.416820
     41          8           0        3.442891   -5.497737    1.924575
     42          6           0        2.719646   -3.971511    0.176835
     43          6           0        2.940469   -4.944667   -0.904675
     44          8           0        3.875186   -4.918063   -1.722965
     45          8           0        2.046374   -5.983037   -0.778757
     46          6           0        1.991028   -7.029682   -1.786348
     47          6           0       -4.288932   -4.002714   -1.463354
     48          6           0       -5.230998   -3.503412   -0.332073
     49          6           0       -6.079249   -2.518731   -0.448466
     50          6           0       -5.852291   -1.297486   -1.353699
     51          6           0       -7.117749   -2.264568    0.660801
     52          6           0       -8.613926   -2.508369    0.200817
     53          6           0       -9.715308   -2.172719    1.137670
     54          6           0      -10.791308   -1.273398    0.519953
     55          6           0      -12.160468   -2.000644    0.313901
     56          6           0      -11.056181    0.044373    1.246484
     57          6           0       -9.960956    1.127690    0.861592
     58          6           0       -9.339260    1.698744    2.144453
     59          6           0       -7.843470    1.779083    2.107573
     60          6           0       -7.168006    1.097719    3.343666
     61          6           0       -7.398800    3.308264    2.100973
     62          6           0       -7.305809    3.846084    0.563451
     63          6           0       -7.861716    5.283449    0.534356
     64          6           0       -9.324606    5.311591    0.095470
     65          6           0       -9.633115    5.935001   -1.239950
     66          6           0      -10.262677    5.927426    1.191172
     67          1           0        2.037655    1.972527   -3.397127
     68          1           0        7.455002    3.978179   -0.006332
     69          1           0        7.037331   -0.846603    3.765962
     70          1           0        1.690721   -2.502195   -2.790783
     71          1           0        0.297880    0.097031   -2.489179
     72          1           0        0.699178   -1.624366   -4.415643
     73          1           0        1.879661   -0.302692   -4.907389
     74          1           0        0.209571    0.055121   -4.634480
     75          1           0       -0.770222   -1.464942   -1.332309
     76          1           0        0.311932   -2.340063   -0.194729
     77          1           0       -0.610878   -4.095085   -0.943626
     78          1           0        0.038219   -3.828204   -2.607135
     79          1           0        2.554674    4.002170   -3.900608
     80          1           0        3.868137    4.836480   -4.612868
     81          1           0        3.091568    5.489388   -3.119522
     82          1           0        7.852394    5.322915   -1.526759
     83          1           0        6.819998    6.284206   -0.408945
     84          1           0        7.559122    7.066543   -1.886277
     85          1           0        8.061484    3.486408    2.050840
     86          1           0        8.481849    0.875264    3.392966
     87          1           0        9.791344    2.193199    0.315683
     88          1           0       10.284152    1.531269    1.948456
     89          1           0       10.285300    3.203599    1.517781
     90          1           0        5.939219    2.439379    3.797538
     91          1           0        7.346678    3.382338    4.137410
     92          1           0        7.983980    2.250359    5.903363
     93          1           0        7.090094    0.742763    5.463089
     94          1           0        6.326341    2.292636    6.063759
     95          1           0        7.115178   -3.287698    3.784250
     96          1           0        5.993437   -4.677081    3.677206
     97          1           0        5.603694   -3.167262    4.606907
     98          1           0        1.643778   -4.072218    0.320514
     99          1           0        2.798959   -7.759625   -1.837706
    100          1           0        1.841863   -6.580981   -2.768238
    101          1           0        1.130771   -7.629851   -1.492273
    102          1           0       -4.394173   -5.084676   -1.542789
    103          1           0       -4.591022   -3.644024   -2.447219
    104          1           0       -5.435368   -4.424410    0.214582
    105          1           0       -4.976701   -1.410743   -1.994177
    106          1           0       -5.857288   -0.312094   -0.889089
    107          1           0       -6.672414   -1.266130   -2.069219
    108          1           0       -7.109993   -1.235522    1.018189
    109          1           0       -6.929305   -2.906796    1.520631
    110          1           0       -8.600692   -3.583626    0.024543
    111          1           0       -8.709584   -1.828643   -0.646103
    112          1           0       -9.353428   -1.665986    2.032724
    113          1           0      -10.133616   -3.160578    1.332333
    114          1           0      -10.466570   -1.030177   -0.492362
    115          1           0      -12.891208   -1.388988   -0.214568
    116          1           0      -12.636091   -2.021568    1.294190
    117          1           0      -12.215561   -2.996545   -0.125715
    118          1           0      -11.329966    0.162507    2.294154
    119          1           0      -11.943096    0.426406    0.741182
    120          1           0      -10.434942    1.882342    0.233190
    121          1           0       -9.186554    0.575713    0.330450
    122          1           0       -9.722457    1.229718    3.050820
    123          1           0       -9.728729    2.708946    2.264794
    124          1           0       -7.331655    1.322452    1.260427
    125          1           0       -6.354461    0.404648    3.131541
    126          1           0       -7.919707    0.595671    3.953244
    127          1           0       -6.880565    1.835095    4.093361
    128          1           0       -6.391815    3.305030    2.517141
    129          1           0       -7.981479    4.021689    2.682993
    130          1           0       -7.882392    3.169551   -0.066582
    131          1           0       -6.350743    3.769064    0.042552
    132          1           0       -7.314082    5.936410   -0.146658
    133          1           0       -7.753723    5.802942    1.485621
    134          1           0       -9.670251    4.283004   -0.013734
    135          1           0       -8.833685    5.944988   -1.981024
    136          1           0       -9.767430    6.997406   -1.035745
    137          1           0      -10.570065    5.580840   -1.668511
    138          1           0      -10.726361    5.049481    1.640807
    139          1           0      -10.932173    6.697974    0.809590
    140          1           0       -9.697382    6.451323    1.962544
 ---------------------------------------------------------------------

 SCF Done:  E(RB-LYP) =  -3007.31526985     A.U. after   23 cycles

 Excitation energies and oscillator strengths:

 Excited State   1:      Singlet-A      1.4695 eV  843.70 nm  f=0.0003  <S**2>=0.000
     245 -> 247        0.70052
 This state for optimization and/or second-order correction.
 Total Energy, E(TD-HF/TD-DFT) =  -3007.26126568
 Copying the excited state density for this state as the 1-particle RhoCI density.

 Excited State   2:      Singlet-A      1.7951 eV  690.67 nm  f=0.2781  <S**2>=0.000
     244 -> 248        0.20450
     246 -> 247        0.68385
     246 <- 247       -0.14455

 Excited State   3:      Singlet-A      1.8353 eV  675.56 nm  f=0.0115  <S**2>=0.000
     243 -> 247        0.59835
     244 -> 247        0.36152

 Excited State   4:      Singlet-A      2.0236 eV  612.69 nm  f=0.0607  <S**2>=0.000
     243 -> 247       -0.36679
     244 -> 247        0.52892
     246 -> 248       -0.25655

 Excited State   5:      Singlet-A      2.3690 eV  523.36 nm  f=0.0033  <S**2>=0.000
     242 -> 247        0.69457

 The electronic state is 1-A.
 Alpha  occ. eigenvalues --  -46.27289 -18.82942 -18.81889 -18.77671 -18.76178
 Alpha  occ. eigenvalues --  -18.75216 -18.74160 -14.03336 -14.02965 -14.01635
 Alpha  occ. eigenvalues --  -14.00720 -10.04882 -10.03530  -9.98951  -9.98574
 Alpha  occ. eigenvalues --   -9.97869  -9.97693  -9.97015  -9.96967  -9.96870
 Alpha  occ. eigenvalues --   -9.96532  -9.96398  -9.96125  -9.95638  -9.94759
 Alpha  occ. eigenvalues --   -9.94315  -9.94217  -9.94208  -9.94175  -9.93873
 Alpha  occ. eigenvalues --   -9.93838  -9.93764  -9.93731  -9.93553  -9.93469
 Alpha  occ. eigenvalues --   -9.93455  -9.93211  -9.93140  -9.92994  -9.92944
 Alpha  occ. eigenvalues --   -9.92784  -9.92738  -9.92608  -9.92535  -9.92371
 Alpha  occ. eigenvalues --   -9.92327  -9.92315  -9.92170  -9.91988  -9.91925
 Alpha  occ. eigenvalues --   -9.91614  -9.91612  -9.91472  -9.91461  -9.91424
 Alpha  occ. eigenvalues --   -9.91129  -9.91120  -9.91076  -9.91016  -9.90866
 Alpha  occ. eigenvalues --   -9.90837  -9.90804  -9.90719  -9.90714  -9.90713
 Alpha  occ. eigenvalues --   -9.90543  -2.91876  -1.72303  -1.71774  -1.71572
 Alpha  occ. eigenvalues --   -0.98157  -0.96899  -0.91659  -0.91373  -0.90553
 Alpha  occ. eigenvalues --   -0.88695  -0.87157  -0.86089  -0.85317  -0.83951
 Alpha  occ. eigenvalues --   -0.75477  -0.74200  -0.73989  -0.73493  -0.73124
 Alpha  occ. eigenvalues --   -0.72388  -0.72280  -0.71332  -0.71026  -0.70661
 Alpha  occ. eigenvalues --   -0.69603  -0.69273  -0.68680  -0.68327  -0.67834
 Alpha  occ. eigenvalues --   -0.66744  -0.66240  -0.65435  -0.65409  -0.64846
 Alpha  occ. eigenvalues --   -0.64286  -0.63056  -0.62750  -0.61730  -0.61081
 Alpha  occ. eigenvalues --   -0.60875  -0.60089  -0.59945  -0.59523  -0.58920
 Alpha  occ. eigenvalues --   -0.58608  -0.58292  -0.57028  -0.55565  -0.54687
 Alpha  occ. eigenvalues --   -0.54434  -0.53705  -0.53043  -0.52560  -0.52305
 Alpha  occ. eigenvalues --   -0.51753  -0.51497  -0.51141  -0.50749  -0.50702
 Alpha  occ. eigenvalues --   -0.50228  -0.49617  -0.49186  -0.48330  -0.47113
 Alpha  occ. eigenvalues --   -0.47053  -0.46003  -0.45864  -0.45575  -0.44460
 Alpha  occ. eigenvalues --   -0.43901  -0.43746  -0.43336  -0.43137  -0.42761
 Alpha  occ. eigenvalues --   -0.42689  -0.42493  -0.41999  -0.41919  -0.41142
 Alpha  occ. eigenvalues --   -0.41045  -0.40832  -0.40708  -0.40373  -0.40139
 Alpha  occ. eigenvalues --   -0.39997  -0.39757  -0.39528  -0.39364  -0.39253
 Alpha  occ. eigenvalues --   -0.39139  -0.38962  -0.38740  -0.38662  -0.38595
 Alpha  occ. eigenvalues --   -0.38423  -0.38229  -0.37741  -0.37651  -0.37453
 Alpha  occ. eigenvalues --   -0.37147  -0.37057  -0.36973  -0.36669  -0.36361
 Alpha  occ. eigenvalues --   -0.36244  -0.36132  -0.36002  -0.35681  -0.35594
 Alpha  occ. eigenvalues --   -0.35481  -0.35202  -0.35089  -0.34957  -0.34831
 Alpha  occ. eigenvalues --   -0.34626  -0.34589  -0.34357  -0.34177  -0.33984
 Alpha  occ. eigenvalues --   -0.33823  -0.33731  -0.33635  -0.33305  -0.33096
 Alpha  occ. eigenvalues --   -0.32861  -0.32798  -0.32600  -0.32556  -0.32412
 Alpha  occ. eigenvalues --   -0.32278  -0.31938  -0.31872  -0.31780  -0.31496
 Alpha  occ. eigenvalues --   -0.31470  -0.31331  -0.31288  -0.30760  -0.30644
 Alpha  occ. eigenvalues --   -0.30460  -0.30318  -0.30113  -0.30077  -0.29754
 Alpha  occ. eigenvalues --   -0.29686  -0.29492  -0.29407  -0.29332  -0.29263
 Alpha  occ. eigenvalues --   -0.29065  -0.29052  -0.28287  -0.28143  -0.27681
 Alpha  occ. eigenvalues --   -0.27500  -0.27094  -0.27001  -0.26831  -0.26532
 Alpha  occ. eigenvalues --   -0.26520  -0.26236  -0.25757  -0.25548  -0.25331
 Alpha  occ. eigenvalues --   -0.25034  -0.24782  -0.24235  -0.23726  -0.23405
 Alpha  occ. eigenvalues --   -0.23350  -0.22792  -0.22169  -0.21535  -0.21026
 Alpha  occ. eigenvalues --   -0.20606  -0.20069  -0.18684  -0.17478  -0.17246
 Alpha  occ. eigenvalues --   -0.16207
 Alpha virt. eigenvalues --   -0.11913  -0.07496  -0.06149  -0.04519  -0.04011
 Alpha virt. eigenvalues --   -0.03444  -0.02679  -0.02257  -0.01630  -0.00206
 Alpha virt. eigenvalues --    0.00958   0.01354   0.01614   0.01662   0.02802

 Mulliken charges:
               1
     1  Mg   0.683785
     2  C    0.086505
     3  C   -0.025190
     4  C   -0.091634
     5  C   -0.087774
     6  N   -0.202971
     7  C   -0.120725
     8  C    0.096898
     9  C   -0.067787
    10  C   -0.003720
    11  C    0.122222
    12  C    0.126515
    13  C    0.128849
    14  C    0.078090
    15  O   -0.200182
    16  O   -0.254479
    17  N   -0.366629
    18  C    0.178641
    19  C   -0.157603
    20  C    0.053843
    21  C    0.217224
    22  C    0.210651
    23  C   -0.138280
    24  O   -0.168093
    25  C    0.150509
    26  N   -0.232708
    27  C    0.016779
    28  C    0.039432
    29  C    0.049093
    30  C    0.007991
    31  C    0.131996
    32  C    0.099030
    33  C    0.098610
    34  N   -0.235027
    35  C    0.099624
    36  C   -0.188065
    37  C    0.126244
    38  C    0.038747
    39  C    0.190225
    40  C   -0.068766
    41  O   -0.109940
    42  C    0.010481
    43  C    0.094398
    44  O   -0.203856
    45  O   -0.266175
    46  C    0.225959
    47  C    0.242625
    48  C   -0.050883
    49  C   -0.075571
    50  C    0.125669
    51  C    0.085527
    52  C    0.014109
    53  C    0.201747
    54  C   -0.071688
    55  C    0.086450
    56  C    0.093225
    57  C    0.045325
    58  C    0.169305
    59  C   -0.121506
    60  C    0.103215
    61  C    0.090356
    62  C    0.053522
    63  C    0.128102
    64  C   -0.106397
    65  C    0.108505
    66  C    0.087677
    67  H   -0.058390
    68  H   -0.061795
    69  H   -0.060286
    70  H   -0.008801
    71  H   -0.016070
    72  H    0.000567
    73  H    0.001922
    74  H   -0.012658
    75  H   -0.006434
    76  H   -0.000622
    77  H   -0.007274
    78  H    0.002737
    79  H   -0.049351
    80  H    0.003629
    81  H    0.013002
    82  H   -0.002904
    83  H    0.013012
    84  H   -0.004750
    85  H   -0.029453
    86  H   -0.037417
    87  H   -0.013434
    88  H   -0.000940
    89  H   -0.019399
    90  H   -0.014563
    91  H   -0.032926
    92  H   -0.019886
    93  H   -0.010064
    94  H   -0.015412
    95  H   -0.010332
    96  H    0.014955
    97  H    0.001348
    98  H   -0.015775
    99  H    0.017715
   100  H    0.009793
   101  H    0.008010
   102  H   -0.012910
   103  H   -0.005282
   104  H   -0.034010
   105  H   -0.003177
   106  H    0.007761
   107  H   -0.008889
   108  H   -0.024323
   109  H   -0.030180
   110  H   -0.023336
   111  H   -0.022739
   112  H   -0.030088
   113  H   -0.038722
   114  H   -0.032548
   115  H   -0.026489
   116  H   -0.026278
   117  H   -0.013944
   118  H   -0.025638
   119  H   -0.059017
   120  H   -0.009046
   121  H   -0.026347
   122  H   -0.038003
   123  H   -0.047797
   124  H   -0.019519
   125  H    0.001204
   126  H   -0.038233
   127  H   -0.029306
   128  H   -0.034814
   129  H   -0.015567
   130  H   -0.027822
   131  H   -0.035526
   132  H   -0.054272
   133  H   -0.033254
   134  H   -0.028340
   135  H   -0.022265
   136  H   -0.030841
   137  H   -0.013027
   138  H   -0.005478
   139  H   -0.017440
   140  H   -0.024308
 Sum of Mulliken charges =  -0.00000

 Dipole moment (field-independent basis, Debye):
    X=             -1.2710    Y=              0.7443    Z=              3.0676  Tot=              3.4029
 Quadrupole moment (field-independent basis, Debye-Ang):
   XX=           -362.2001   YY=           -436.4896   ZZ=           -409.6206
   XY=             13.6390   XZ=             24.8714   YZ=             26.0671

 Normal termination of Gaussian 16 at Fri Apr 29 23:14:45 2022.
