 Gaussian 16, Revision A.03,
 Gaussian 16:  ES64L-G16RevA.03 25-Dec-2016

 -----------------------------------
 #p cam-b3lyp/Def2SVP td=(nstates=5)
 -----------------------------------

 -------------------------------------------------------
 step_501_chromophore_23 TDDFT with cam-b3lyp functional
 -------------------------------------------------------
 Symbolic Z-matrix:
 Charge =  0 Multiplicity = 1

                         Standard orientation:
 ---------------------------------------------------------------------
 Center     Atomic      Atomic             Coordinates (Angstroms)
 Number     Number       Type             X           Y           Z
 ---------------------------------------------------------------------
      1         12           0        4.957874    0.409203   -0.298916
      2          6           0        3.087096   -2.528751   -0.164113
      3          6           0        2.741553    1.665308   -2.621565
      4          6           0        6.803873    3.120094   -0.190947
      5          6           0        6.523621   -0.580345    2.839837
      6          7           0        3.092452   -0.453499   -1.334567
      7          6           0        2.490843   -1.658944   -1.105232
      8          6           0        1.319007   -1.847768   -2.001829
      9          6           0        1.187983   -0.468564   -2.762995
     10          6           0        2.426699    0.352810   -2.231259
     11          6           0        1.021864   -0.589093   -4.298809
     12          6           0        0.022051   -2.207209   -1.236885
     13          6           0       -0.626222   -3.457981   -1.827790
     14          6           0       -2.128073   -3.366096   -2.233998
     15          8           0       -2.450212   -3.096951   -3.397105
     16          8           0       -2.933462   -3.654400   -1.153199
     17          7           0        4.808437    2.151191   -1.304691
     18          6           0        3.857657    2.494634   -2.264686
     19          6           0        4.258159    3.807213   -2.754759
     20          6           0        5.485681    4.252492   -2.075759
     21          6           0        5.817654    3.114432   -1.161491
     22          6           0        3.432331    4.595331   -3.642857
     23          6           0        6.030647    5.610140   -2.243241
     24          8           0        5.567929    6.443927   -2.993322
     25          6           0        7.157073    6.157661   -1.438102
     26          7           0        6.359632    1.131073    1.107476
     27          6           0        7.186344    2.164570    0.746242
     28          6           0        8.200808    2.426896    1.839250
     29          6           0        7.756993    1.566207    2.962400
     30          6           0        6.789533    0.693482    2.331567
     31          6           0        9.715272    2.282507    1.399512
     32          6           0        6.989073    2.354484    4.078340
     33          6           0        7.091028    1.832947    5.436796
     34          7           0        4.886584   -1.229992    1.087633
     35          6           0        5.605489   -1.527947    2.252665
     36          6           0        5.380874   -2.895681    2.601558
     37          6           0        4.385330   -3.324723    1.731762
     38          6           0        4.075900   -2.244746    0.830065
     39          6           0        6.070287   -3.590414    3.717286
     40          6           0        3.534390   -4.402363    1.416820
     41          8           0        3.442891   -5.497737    1.924575
     42          6           0        2.719646   -3.971511    0.176835
     43          6           0        2.940469   -4.944667   -0.904675
     44          8           0        3.875186   -4.918063   -1.722965
     45          8           0        2.046374   -5.983037   -0.778757
     46          6           0        1.991028   -7.029682   -1.786348
     47          6           0       -4.288932   -4.002714   -1.463354
     48          6           0       -5.230998   -3.503412   -0.332073
     49          6           0       -6.079249   -2.518731   -0.448466
     50          6           0       -5.852291   -1.297486   -1.353699
     51          6           0       -7.117749   -2.264568    0.660801
     52          6           0       -8.613926   -2.508369    0.200817
     53          6           0       -9.715308   -2.172719    1.137670
     54          6           0      -10.791308   -1.273398    0.519953
     55          6           0      -12.160468   -2.000644    0.313901
     56          6           0      -11.056181    0.044373    1.246484
     57          6           0       -9.960956    1.127690    0.861592
     58          6           0       -9.339260    1.698744    2.144453
     59          6           0       -7.843470    1.779083    2.107573
     60          6           0       -7.168006    1.097719    3.343666
     61          6           0       -7.398800    3.308264    2.100973
     62          6           0       -7.305809    3.846084    0.563451
     63          6           0       -7.861716    5.283449    0.534356
     64          6           0       -9.324606    5.311591    0.095470
     65          6           0       -9.633115    5.935001   -1.239950
     66          6           0      -10.262677    5.927426    1.191172
     67          1           0        2.037655    1.972527   -3.397127
     68          1           0        7.455002    3.978179   -0.006332
     69          1           0        7.037331   -0.846603    3.765962
     70          1           0        1.690721   -2.502195   -2.790783
     71          1           0        0.297880    0.097031   -2.489179
     72          1           0        0.699178   -1.624366   -4.415643
     73          1           0        1.879661   -0.302692   -4.907389
     74          1           0        0.209571    0.055121   -4.634480
     75          1           0       -0.770222   -1.464942   -1.332309
     76          1           0        0.311932   -2.340063   -0.194729
     77          1           0       -0.610878   -4.095085   -0.943626
     78          1           0        0.038219   -3.828204   -2.607135
     79          1           0        2.554674    4.002170   -3.900608
     80          1           0        3.868137    4.836480   -4.612868
     81          1           0        3.091568    5.489388   -3.119522
     82          1           0        7.852394    5.322915   -1.526759
     83          1           0        6.819998    6.284206   -0.408945
     84          1           0        7.559122    7.066543   -1.886277
     85          1           0        8.061484    3.486408    2.050840
     86          1           0        8.481849    0.875264    3.392966
     87          1           0        9.791344    2.193199    0.315683
     88          1           0       10.284152    1.531269    1.948456
     89          1           0       10.285300    3.203599    1.517781
     90          1           0        5.939219    2.439379    3.797538
     91          1           0        7.346678    3.382338    4.137410
     92          1           0        7.983980    2.250359    5.903363
     93          1           0        7.090094    0.742763    5.463089
     94          1           0        6.326341    2.292636    6.063759
     95          1           0        7.115178   -3.287698    3.784250
     96          1           0        5.993437   -4.677081    3.677206
     97          1           0        5.603694   -3.167262    4.606907
     98          1           0        1.643778   -4.072218    0.320514
     99          1           0        2.798959   -7.759625   -1.837706
    100          1           0        1.841863   -6.580981   -2.768238
    101          1           0        1.130771   -7.629851   -1.492273
    102          1           0       -4.394173   -5.084676   -1.542789
    103          1           0       -4.591022   -3.644024   -2.447219
    104          1           0       -5.435368   -4.424410    0.214582
    105          1           0       -4.976701   -1.410743   -1.994177
    106          1           0       -5.857288   -0.312094   -0.889089
    107          1           0       -6.672414   -1.266130   -2.069219
    108          1           0       -7.109993   -1.235522    1.018189
    109          1           0       -6.929305   -2.906796    1.520631
    110          1           0       -8.600692   -3.583626    0.024543
    111          1           0       -8.709584   -1.828643   -0.646103
    112          1           0       -9.353428   -1.665986    2.032724
    113          1           0      -10.133616   -3.160578    1.332333
    114          1           0      -10.466570   -1.030177   -0.492362
    115          1           0      -12.891208   -1.388988   -0.214568
    116          1           0      -12.636091   -2.021568    1.294190
    117          1           0      -12.215561   -2.996545   -0.125715
    118          1           0      -11.329966    0.162507    2.294154
    119          1           0      -11.943096    0.426406    0.741182
    120          1           0      -10.434942    1.882342    0.233190
    121          1           0       -9.186554    0.575713    0.330450
    122          1           0       -9.722457    1.229718    3.050820
    123          1           0       -9.728729    2.708946    2.264794
    124          1           0       -7.331655    1.322452    1.260427
    125          1           0       -6.354461    0.404648    3.131541
    126          1           0       -7.919707    0.595671    3.953244
    127          1           0       -6.880565    1.835095    4.093361
    128          1           0       -6.391815    3.305030    2.517141
    129          1           0       -7.981479    4.021689    2.682993
    130          1           0       -7.882392    3.169551   -0.066582
    131          1           0       -6.350743    3.769064    0.042552
    132          1           0       -7.314082    5.936410   -0.146658
    133          1           0       -7.753723    5.802942    1.485621
    134          1           0       -9.670251    4.283004   -0.013734
    135          1           0       -8.833685    5.944988   -1.981024
    136          1           0       -9.767430    6.997406   -1.035745
    137          1           0      -10.570065    5.580840   -1.668511
    138          1           0      -10.726361    5.049481    1.640807
    139          1           0      -10.932173    6.697974    0.809590
    140          1           0       -9.697382    6.451323    1.962544
 ---------------------------------------------------------------------

 SCF Done:  E(RCAM-B3LYP) =  -3007.11116382     A.U. after   18 cycles

 Excitation energies and oscillator strengths:

 Excited State   1:      Singlet-A      1.6752 eV  740.11 nm  f=0.3585  <S**2>=0.000
     245 -> 248       -0.18837
     246 -> 247        0.68338
     245 <- 248       -0.11083
 This state for optimization and/or second-order correction.
 Total Energy, E(TD-HF/TD-DFT) =  -3007.04960070
 Copying the excited state density for this state as the 1-particle RhoCI density.

 Excited State   2:      Singlet-A      2.1858 eV  567.24 nm  f=0.1048  <S**2>=0.000
     245 -> 247        0.63553
     246 -> 248        0.29763

 Excited State   3:      Singlet-A      3.2392 eV  382.77 nm  f=0.0027  <S**2>=0.000
     242 -> 247        0.19470
     244 -> 247        0.65479

 Excited State   4:      Singlet-A      3.3063 eV  375.00 nm  f=0.0025  <S**2>=0.000
     242 -> 247       -0.11671
     243 -> 247        0.55666
     243 -> 248        0.15736
     243 -> 249        0.25634
     243 -> 250        0.20240

 Excited State   5:      Singlet-A      3.3350 eV  371.77 nm  f=0.0545  <S**2>=0.000
     241 -> 247        0.17893
     242 -> 247        0.51905
     243 -> 247        0.14975
     244 -> 247       -0.17159
     246 -> 248       -0.31970

 The electronic state is 1-A.
 Alpha  occ. eigenvalues --  -46.88892 -19.25843 -19.24884 -19.20682 -19.19353
 Alpha  occ. eigenvalues --  -19.18315 -19.17339 -14.42273 -14.41883 -14.40217
 Alpha  occ. eigenvalues --  -14.39121 -10.40302 -10.39080 -10.34172 -10.33663
 Alpha  occ. eigenvalues --  -10.31983 -10.31696 -10.31549 -10.31531 -10.31519
 Alpha  occ. eigenvalues --  -10.31018 -10.31013 -10.30421 -10.29808 -10.29040
 Alpha  occ. eigenvalues --  -10.28517 -10.28507 -10.28343 -10.28231 -10.28182
 Alpha  occ. eigenvalues --  -10.28054 -10.28000 -10.27913 -10.27789 -10.27687
 Alpha  occ. eigenvalues --  -10.27310 -10.27256 -10.27175 -10.27166 -10.27095
 Alpha  occ. eigenvalues --  -10.26762 -10.26406 -10.26267 -10.26181 -10.26073
 Alpha  occ. eigenvalues --  -10.26057 -10.26052 -10.25887 -10.25847 -10.25522
 Alpha  occ. eigenvalues --  -10.25352 -10.25247 -10.25163 -10.25149 -10.25145
 Alpha  occ. eigenvalues --  -10.25090 -10.24801 -10.24798 -10.24671 -10.24636
 Alpha  occ. eigenvalues --  -10.24467 -10.24449 -10.24427 -10.24321 -10.24309
 Alpha  occ. eigenvalues --  -10.24105  -3.17381  -1.92284  -1.91845  -1.91671
 Alpha  occ. eigenvalues --   -1.16605  -1.15453  -1.10018  -1.09801  -1.08496
 Alpha  occ. eigenvalues --   -1.06703  -1.04939  -1.03751  -1.02935  -1.01526
 Alpha  occ. eigenvalues --   -0.92623  -0.91075  -0.90725  -0.90325  -0.89920
 Alpha  occ. eigenvalues --   -0.89100  -0.89008  -0.87910  -0.87636  -0.87189
 Alpha  occ. eigenvalues --   -0.86245  -0.85696  -0.84916  -0.84545  -0.84059
 Alpha  occ. eigenvalues --   -0.82868  -0.82296  -0.81456  -0.81268  -0.80755
 Alpha  occ. eigenvalues --   -0.80082  -0.78635  -0.78395  -0.77403  -0.76465
 Alpha  occ. eigenvalues --   -0.76300  -0.75441  -0.75283  -0.74784  -0.73991
 Alpha  occ. eigenvalues --   -0.73791  -0.73334  -0.71958  -0.70427  -0.69263
 Alpha  occ. eigenvalues --   -0.69040  -0.68235  -0.67620  -0.66921  -0.66427
 Alpha  occ. eigenvalues --   -0.65922  -0.65687  -0.65256  -0.64782  -0.64651
 Alpha  occ. eigenvalues --   -0.64129  -0.63567  -0.63113  -0.62016  -0.60707
 Alpha  occ. eigenvalues --   -0.60694  -0.59523  -0.59415  -0.58930  -0.57927
 Alpha  occ. eigenvalues --   -0.57402  -0.57191  -0.56599  -0.56337  -0.55847
 Alpha  occ. eigenvalues --   -0.55612  -0.55443  -0.55189  -0.54816  -0.54334
 Alpha  occ. eigenvalues --   -0.53983  -0.53412  -0.53405  -0.53048  -0.52777
 Alpha  occ. eigenvalues --   -0.52685  -0.52499  -0.52249  -0.52155  -0.51944
 Alpha  occ. eigenvalues --   -0.51652  -0.51512  -0.51406  -0.51187  -0.51054
 Alpha  occ. eigenvalues --   -0.50955  -0.50619  -0.50081  -0.50005  -0.49685
 Alpha  occ. eigenvalues --   -0.49448  -0.49357  -0.49163  -0.49046  -0.48776
 Alpha  occ. eigenvalues --   -0.48545  -0.48503  -0.48202  -0.48051  -0.47625
 Alpha  occ. eigenvalues --   -0.47482  -0.47205  -0.47044  -0.46952  -0.46873
 Alpha  occ. eigenvalues --   -0.46679  -0.46405  -0.46379  -0.46216  -0.46147
 Alpha  occ. eigenvalues --   -0.45557  -0.45459  -0.45277  -0.45023  -0.44819
 Alpha  occ. eigenvalues --   -0.44648  -0.44488  -0.44289  -0.44224  -0.43981
 Alpha  occ. eigenvalues --   -0.43903  -0.43656  -0.43582  -0.43290  -0.43259
 Alpha  occ. eigenvalues --   -0.43015  -0.42937  -0.42705  -0.42239  -0.41989
 Alpha  occ. eigenvalues --   -0.41875  -0.41595  -0.41498  -0.41350  -0.41267
 Alpha  occ. eigenvalues --   -0.41222  -0.41051  -0.40723  -0.40527  -0.40509
 Alpha  occ. eigenvalues --   -0.40215  -0.40037  -0.39224  -0.39123  -0.38542
 Alpha  occ. eigenvalues --   -0.38360  -0.37965  -0.37822  -0.37736  -0.37634
 Alpha  occ. eigenvalues --   -0.37311  -0.37079  -0.36496  -0.36425  -0.36349
 Alpha  occ. eigenvalues --   -0.36280  -0.36078  -0.34702  -0.34566  -0.34131
 Alpha  occ. eigenvalues --   -0.33700  -0.33669  -0.32984  -0.31770  -0.31330
 Alpha  occ. eigenvalues --   -0.30639  -0.29831  -0.29614  -0.29393  -0.24260
 Alpha  occ. eigenvalues --   -0.21526
 Alpha virt. eigenvalues --   -0.09112  -0.02475   0.00275   0.02398   0.02717
 Alpha virt. eigenvalues --    0.03707   0.03936   0.04851   0.05256   0.06508
 Alpha virt. eigenvalues --    0.07535   0.07713   0.07938   0.08384   0.09126

 Mulliken charges:
               1
     1  Mg   0.816228
     2  C    0.059031
     3  C   -0.041281
     4  C   -0.115401
     5  C   -0.090512
     6  N   -0.273462
     7  C   -0.067359
     8  C    0.026717
     9  C   -0.105866
    10  C    0.019592
    11  C    0.062580
    12  C    0.074810
    13  C    0.058013
    14  C    0.160728
    15  O   -0.241621
    16  O   -0.317690
    17  N   -0.454408
    18  C    0.183659
    19  C   -0.154976
    20  C   -0.020323
    21  C    0.249426
    22  C    0.147812
    23  C   -0.059454
    24  O   -0.208353
    25  C    0.069700
    26  N   -0.300511
    27  C    0.044480
    28  C   -0.028508
    29  C   -0.022805
    30  C    0.032337
    31  C    0.076727
    32  C    0.046953
    33  C    0.037723
    34  N   -0.321327
    35  C    0.100508
    36  C   -0.177794
    37  C    0.039038
    38  C    0.076961
    39  C    0.134590
    40  C    0.030604
    41  O   -0.149921
    42  C   -0.066574
    43  C    0.186108
    44  O   -0.239209
    45  O   -0.330237
    46  C    0.187899
    47  C    0.205128
    48  C   -0.070798
    49  C   -0.096949
    50  C    0.065613
    51  C    0.037916
    52  C   -0.031826
    53  C    0.138386
    54  C   -0.129607
    55  C    0.029341
    56  C    0.035409
    57  C    0.001913
    58  C    0.113628
    59  C   -0.180347
    60  C    0.046000
    61  C    0.042709
    62  C    0.004429
    63  C    0.066018
    64  C   -0.160604
    65  C    0.048696
    66  C    0.030306
    67  H   -0.023233
    68  H   -0.026550
    69  H   -0.026110
    70  H    0.026450
    71  H    0.017958
    72  H    0.023519
    73  H    0.027609
    74  H    0.012537
    75  H    0.024392
    76  H    0.030448
    77  H    0.026577
    78  H    0.031212
    79  H   -0.021759
    80  H    0.032956
    81  H    0.041276
    82  H    0.021196
    83  H    0.039971
    84  H    0.031004
    85  H    0.007485
    86  H    0.000938
    87  H    0.012688
    88  H    0.023807
    89  H    0.005849
    90  H    0.014814
    91  H   -0.004952
    92  H    0.004360
    93  H    0.009397
    94  H    0.010758
    95  H    0.014591
    96  H    0.042956
    97  H    0.027710
    98  H    0.025458
    99  H    0.040696
   100  H    0.030944
   101  H    0.031732
   102  H    0.014921
   103  H    0.028177
   104  H   -0.002028
   105  H    0.021088
   106  H    0.030971
   107  H    0.015018
   108  H   -0.003658
   109  H    0.000419
   110  H    0.003869
   111  H   -0.000054
   112  H   -0.002564
   113  H   -0.006574
   114  H    0.000636
   115  H   -0.001294
   116  H   -0.002584
   117  H    0.011284
   118  H    0.003502
   119  H   -0.026221
   120  H    0.017173
   121  H   -0.005123
   122  H   -0.008672
   123  H   -0.020419
   124  H    0.007783
   125  H    0.024137
   126  H   -0.013455
   127  H   -0.003225
   128  H   -0.004171
   129  H    0.009861
   130  H   -0.002850
   131  H   -0.005966
   132  H   -0.021959
   133  H   -0.004562
   134  H   -0.001930
   135  H    0.003072
   136  H   -0.007532
   137  H    0.011649
   138  H    0.015155
   139  H    0.008023
   140  H   -0.000575
 Sum of Mulliken charges =  -0.00000

 Dipole moment (field-independent basis, Debye):
    X=             -1.1600    Y=              1.0364    Z=              2.9309  Tot=              3.3181
 Quadrupole moment (field-independent basis, Debye-Ang):
   XX=           -358.3121   YY=           -433.7450   ZZ=           -408.8873
   XY=             16.8314   XZ=             25.5056   YZ=             26.6938

 Normal termination of Gaussian 16 at Fri Apr 29 22:19:25 2022.
