 Gaussian 16, Revision A.03,
 Gaussian 16:  ES64L-G16RevA.03 25-Dec-2016

 ---------------------------------
 #p PBE1PBE/Def2SVP td=(nstates=5)
 ---------------------------------

 -----------------------------------------------------
 step_501_chromophore_23 TDDFT with PBE1PBE functional
 -----------------------------------------------------
 Symbolic Z-matrix:
 Charge =  0 Multiplicity = 1

                         Standard orientation:
 ---------------------------------------------------------------------
 Center     Atomic      Atomic             Coordinates (Angstroms)
 Number     Number       Type             X           Y           Z
 ---------------------------------------------------------------------
      1         12           0        4.957874    0.409203   -0.298916
      2          6           0        3.087096   -2.528751   -0.164113
      3          6           0        2.741553    1.665308   -2.621565
      4          6           0        6.803873    3.120094   -0.190947
      5          6           0        6.523621   -0.580345    2.839837
      6          7           0        3.092452   -0.453499   -1.334567
      7          6           0        2.490843   -1.658944   -1.105232
      8          6           0        1.319007   -1.847768   -2.001829
      9          6           0        1.187983   -0.468564   -2.762995
     10          6           0        2.426699    0.352810   -2.231259
     11          6           0        1.021864   -0.589093   -4.298809
     12          6           0        0.022051   -2.207209   -1.236885
     13          6           0       -0.626222   -3.457981   -1.827790
     14          6           0       -2.128073   -3.366096   -2.233998
     15          8           0       -2.450212   -3.096951   -3.397105
     16          8           0       -2.933462   -3.654400   -1.153199
     17          7           0        4.808437    2.151191   -1.304691
     18          6           0        3.857657    2.494634   -2.264686
     19          6           0        4.258159    3.807213   -2.754759
     20          6           0        5.485681    4.252492   -2.075759
     21          6           0        5.817654    3.114432   -1.161491
     22          6           0        3.432331    4.595331   -3.642857
     23          6           0        6.030647    5.610140   -2.243241
     24          8           0        5.567929    6.443927   -2.993322
     25          6           0        7.157073    6.157661   -1.438102
     26          7           0        6.359632    1.131073    1.107476
     27          6           0        7.186344    2.164570    0.746242
     28          6           0        8.200808    2.426896    1.839250
     29          6           0        7.756993    1.566207    2.962400
     30          6           0        6.789533    0.693482    2.331567
     31          6           0        9.715272    2.282507    1.399512
     32          6           0        6.989073    2.354484    4.078340
     33          6           0        7.091028    1.832947    5.436796
     34          7           0        4.886584   -1.229992    1.087633
     35          6           0        5.605489   -1.527947    2.252665
     36          6           0        5.380874   -2.895681    2.601558
     37          6           0        4.385330   -3.324723    1.731762
     38          6           0        4.075900   -2.244746    0.830065
     39          6           0        6.070287   -3.590414    3.717286
     40          6           0        3.534390   -4.402363    1.416820
     41          8           0        3.442891   -5.497737    1.924575
     42          6           0        2.719646   -3.971511    0.176835
     43          6           0        2.940469   -4.944667   -0.904675
     44          8           0        3.875186   -4.918063   -1.722965
     45          8           0        2.046374   -5.983037   -0.778757
     46          6           0        1.991028   -7.029682   -1.786348
     47          6           0       -4.288932   -4.002714   -1.463354
     48          6           0       -5.230998   -3.503412   -0.332073
     49          6           0       -6.079249   -2.518731   -0.448466
     50          6           0       -5.852291   -1.297486   -1.353699
     51          6           0       -7.117749   -2.264568    0.660801
     52          6           0       -8.613926   -2.508369    0.200817
     53          6           0       -9.715308   -2.172719    1.137670
     54          6           0      -10.791308   -1.273398    0.519953
     55          6           0      -12.160468   -2.000644    0.313901
     56          6           0      -11.056181    0.044373    1.246484
     57          6           0       -9.960956    1.127690    0.861592
     58          6           0       -9.339260    1.698744    2.144453
     59          6           0       -7.843470    1.779083    2.107573
     60          6           0       -7.168006    1.097719    3.343666
     61          6           0       -7.398800    3.308264    2.100973
     62          6           0       -7.305809    3.846084    0.563451
     63          6           0       -7.861716    5.283449    0.534356
     64          6           0       -9.324606    5.311591    0.095470
     65          6           0       -9.633115    5.935001   -1.239950
     66          6           0      -10.262677    5.927426    1.191172
     67          1           0        2.037655    1.972527   -3.397127
     68          1           0        7.455002    3.978179   -0.006332
     69          1           0        7.037331   -0.846603    3.765962
     70          1           0        1.690721   -2.502195   -2.790783
     71          1           0        0.297880    0.097031   -2.489179
     72          1           0        0.699178   -1.624366   -4.415643
     73          1           0        1.879661   -0.302692   -4.907389
     74          1           0        0.209571    0.055121   -4.634480
     75          1           0       -0.770222   -1.464942   -1.332309
     76          1           0        0.311932   -2.340063   -0.194729
     77          1           0       -0.610878   -4.095085   -0.943626
     78          1           0        0.038219   -3.828204   -2.607135
     79          1           0        2.554674    4.002170   -3.900608
     80          1           0        3.868137    4.836480   -4.612868
     81          1           0        3.091568    5.489388   -3.119522
     82          1           0        7.852394    5.322915   -1.526759
     83          1           0        6.819998    6.284206   -0.408945
     84          1           0        7.559122    7.066543   -1.886277
     85          1           0        8.061484    3.486408    2.050840
     86          1           0        8.481849    0.875264    3.392966
     87          1           0        9.791344    2.193199    0.315683
     88          1           0       10.284152    1.531269    1.948456
     89          1           0       10.285300    3.203599    1.517781
     90          1           0        5.939219    2.439379    3.797538
     91          1           0        7.346678    3.382338    4.137410
     92          1           0        7.983980    2.250359    5.903363
     93          1           0        7.090094    0.742763    5.463089
     94          1           0        6.326341    2.292636    6.063759
     95          1           0        7.115178   -3.287698    3.784250
     96          1           0        5.993437   -4.677081    3.677206
     97          1           0        5.603694   -3.167262    4.606907
     98          1           0        1.643778   -4.072218    0.320514
     99          1           0        2.798959   -7.759625   -1.837706
    100          1           0        1.841863   -6.580981   -2.768238
    101          1           0        1.130771   -7.629851   -1.492273
    102          1           0       -4.394173   -5.084676   -1.542789
    103          1           0       -4.591022   -3.644024   -2.447219
    104          1           0       -5.435368   -4.424410    0.214582
    105          1           0       -4.976701   -1.410743   -1.994177
    106          1           0       -5.857288   -0.312094   -0.889089
    107          1           0       -6.672414   -1.266130   -2.069219
    108          1           0       -7.109993   -1.235522    1.018189
    109          1           0       -6.929305   -2.906796    1.520631
    110          1           0       -8.600692   -3.583626    0.024543
    111          1           0       -8.709584   -1.828643   -0.646103
    112          1           0       -9.353428   -1.665986    2.032724
    113          1           0      -10.133616   -3.160578    1.332333
    114          1           0      -10.466570   -1.030177   -0.492362
    115          1           0      -12.891208   -1.388988   -0.214568
    116          1           0      -12.636091   -2.021568    1.294190
    117          1           0      -12.215561   -2.996545   -0.125715
    118          1           0      -11.329966    0.162507    2.294154
    119          1           0      -11.943096    0.426406    0.741182
    120          1           0      -10.434942    1.882342    0.233190
    121          1           0       -9.186554    0.575713    0.330450
    122          1           0       -9.722457    1.229718    3.050820
    123          1           0       -9.728729    2.708946    2.264794
    124          1           0       -7.331655    1.322452    1.260427
    125          1           0       -6.354461    0.404648    3.131541
    126          1           0       -7.919707    0.595671    3.953244
    127          1           0       -6.880565    1.835095    4.093361
    128          1           0       -6.391815    3.305030    2.517141
    129          1           0       -7.981479    4.021689    2.682993
    130          1           0       -7.882392    3.169551   -0.066582
    131          1           0       -6.350743    3.769064    0.042552
    132          1           0       -7.314082    5.936410   -0.146658
    133          1           0       -7.753723    5.802942    1.485621
    134          1           0       -9.670251    4.283004   -0.013734
    135          1           0       -8.833685    5.944988   -1.981024
    136          1           0       -9.767430    6.997406   -1.035745
    137          1           0      -10.570065    5.580840   -1.668511
    138          1           0      -10.726361    5.049481    1.640807
    139          1           0      -10.932173    6.697974    0.809590
    140          1           0       -9.697382    6.451323    1.962544
 ---------------------------------------------------------------------

 SCF Done:  E(RPBE1PBE) =  -3005.30198246     A.U. after   15 cycles

 Excitation energies and oscillator strengths:

 Excited State   1:      Singlet-A      1.8372 eV  674.85 nm  f=0.3451  <S**2>=0.000
     245 -> 248        0.18272
     246 -> 247        0.68985
     246 <- 247       -0.10404
 This state for optimization and/or second-order correction.
 Total Energy, E(TD-HF/TD-DFT) =  -3005.23446604
 Copying the excited state density for this state as the 1-particle RhoCI density.

 Excited State   2:      Singlet-A      2.1963 eV  564.52 nm  f=0.1008  <S**2>=0.000
     245 -> 247        0.64596
     246 -> 248       -0.27303

 Excited State   3:      Singlet-A      2.6621 eV  465.73 nm  f=0.0002  <S**2>=0.000
     244 -> 247        0.68044
     244 -> 249        0.12927

 Excited State   4:      Singlet-A      2.8702 eV  431.96 nm  f=0.0010  <S**2>=0.000
     241 -> 247        0.20367
     242 -> 247        0.46445
     243 -> 247        0.46673

 Excited State   5:      Singlet-A      2.9077 eV  426.40 nm  f=0.0026  <S**2>=0.000
     241 -> 247       -0.26727
     242 -> 247       -0.36302
     243 -> 247        0.51687

 The electronic state is 1-A.
 Alpha  occ. eigenvalues --  -46.92252 -19.26543 -19.25515 -19.20985 -19.19552
 Alpha  occ. eigenvalues --  -19.18574 -19.17528 -14.41760 -14.41387 -14.39851
 Alpha  occ. eigenvalues --  -14.38792 -10.37360 -10.36061 -10.31301 -10.30743
 Alpha  occ. eigenvalues --  -10.29375 -10.29253 -10.29233 -10.29121 -10.28885
 Alpha  occ. eigenvalues --  -10.28652 -10.28649 -10.28183 -10.27629 -10.26770
 Alpha  occ. eigenvalues --  -10.26346 -10.26163 -10.26076 -10.26038 -10.25973
 Alpha  occ. eigenvalues --  -10.25660 -10.25655 -10.25615 -10.25413 -10.25293
 Alpha  occ. eigenvalues --  -10.25083 -10.24985 -10.24865 -10.24698 -10.24667
 Alpha  occ. eigenvalues --  -10.24239 -10.24052 -10.23794 -10.23661 -10.23641
 Alpha  occ. eigenvalues --  -10.23613 -10.23611 -10.23512 -10.23389 -10.22973
 Alpha  occ. eigenvalues --  -10.22942 -10.22790 -10.22754 -10.22740 -10.22712
 Alpha  occ. eigenvalues --  -10.22451 -10.22419 -10.22410 -10.22171 -10.22153
 Alpha  occ. eigenvalues --  -10.22005 -10.21990 -10.21888 -10.21736 -10.21734
 Alpha  occ. eigenvalues --  -10.21475  -3.14324  -1.87168  -1.86707  -1.86537
 Alpha  occ. eigenvalues --   -1.11433  -1.10191  -1.04796  -1.04510  -1.03366
 Alpha  occ. eigenvalues --   -1.01473  -0.99532  -0.98406  -0.97562  -0.96103
 Alpha  occ. eigenvalues --   -0.86977  -0.85196  -0.85056  -0.84523  -0.84062
 Alpha  occ. eigenvalues --   -0.83322  -0.83215  -0.82048  -0.81967  -0.81536
 Alpha  occ. eigenvalues --   -0.80484  -0.79929  -0.79156  -0.78800  -0.78322
 Alpha  occ. eigenvalues --   -0.77123  -0.76453  -0.75698  -0.75546  -0.75029
 Alpha  occ. eigenvalues --   -0.74236  -0.72966  -0.72675  -0.71668  -0.70671
 Alpha  occ. eigenvalues --   -0.70564  -0.69783  -0.69373  -0.68928  -0.68313
 Alpha  occ. eigenvalues --   -0.67979  -0.67766  -0.66399  -0.64704  -0.63711
 Alpha  occ. eigenvalues --   -0.63406  -0.62471  -0.62042  -0.61140  -0.60880
 Alpha  occ. eigenvalues --   -0.60385  -0.59938  -0.59744  -0.59229  -0.58982
 Alpha  occ. eigenvalues --   -0.58552  -0.57726  -0.57289  -0.56585  -0.55245
 Alpha  occ. eigenvalues --   -0.55071  -0.54020  -0.54001  -0.53587  -0.52514
 Alpha  occ. eigenvalues --   -0.51844  -0.51681  -0.51001  -0.50866  -0.50322
 Alpha  occ. eigenvalues --   -0.50066  -0.49973  -0.49723  -0.49397  -0.48876
 Alpha  occ. eigenvalues --   -0.48563  -0.47880  -0.47872  -0.47675  -0.47362
 Alpha  occ. eigenvalues --   -0.47233  -0.47039  -0.46727  -0.46582  -0.46405
 Alpha  occ. eigenvalues --   -0.46254  -0.46053  -0.45972  -0.45836  -0.45642
 Alpha  occ. eigenvalues --   -0.45432  -0.45146  -0.44662  -0.44653  -0.44218
 Alpha  occ. eigenvalues --   -0.44100  -0.43933  -0.43789  -0.43613  -0.43407
 Alpha  occ. eigenvalues --   -0.43170  -0.43100  -0.42795  -0.42690  -0.42276
 Alpha  occ. eigenvalues --   -0.42152  -0.41840  -0.41730  -0.41623  -0.41575
 Alpha  occ. eigenvalues --   -0.41391  -0.41088  -0.40965  -0.40917  -0.40794
 Alpha  occ. eigenvalues --   -0.40288  -0.40098  -0.39891  -0.39785  -0.39581
 Alpha  occ. eigenvalues --   -0.39340  -0.39220  -0.39006  -0.38984  -0.38698
 Alpha  occ. eigenvalues --   -0.38678  -0.38479  -0.38363  -0.38066  -0.37956
 Alpha  occ. eigenvalues --   -0.37835  -0.37752  -0.37522  -0.37092  -0.36720
 Alpha  occ. eigenvalues --   -0.36687  -0.36524  -0.36303  -0.36083  -0.36071
 Alpha  occ. eigenvalues --   -0.35962  -0.35923  -0.35500  -0.35418  -0.35279
 Alpha  occ. eigenvalues --   -0.35087  -0.34797  -0.34002  -0.33970  -0.33332
 Alpha  occ. eigenvalues --   -0.33198  -0.32936  -0.32651  -0.32600  -0.32586
 Alpha  occ. eigenvalues --   -0.32144  -0.32101  -0.31505  -0.31340  -0.31255
 Alpha  occ. eigenvalues --   -0.31146  -0.30976  -0.29650  -0.29605  -0.29096
 Alpha  occ. eigenvalues --   -0.28858  -0.28651  -0.28188  -0.27038  -0.26958
 Alpha  occ. eigenvalues --   -0.25639  -0.25430  -0.24986  -0.24266  -0.21196
 Alpha  occ. eigenvalues --   -0.19159
 Alpha virt. eigenvalues --   -0.11548  -0.05917  -0.03911  -0.01985  -0.00892
 Alpha virt. eigenvalues --   -0.00481   0.00069   0.00310   0.01149   0.02633
 Alpha virt. eigenvalues --    0.03852   0.04157   0.04450   0.04567   0.05671

 Mulliken charges:
               1
     1  Mg   0.963458
     2  C    0.050713
     3  C   -0.043030
     4  C   -0.110444
     5  C   -0.078562
     6  N   -0.376254
     7  C    0.011741
     8  C   -0.062254
     9  C   -0.168151
    10  C    0.063075
    11  C    0.001781
    12  C    0.026651
    13  C   -0.022007
    14  C    0.227723
    15  O   -0.274335
    16  O   -0.347574
    17  N   -0.568659
    18  C    0.211213
    19  C   -0.184939
    20  C   -0.064740
    21  C    0.271134
    22  C    0.087123
    23  C   -0.010241
    24  O   -0.243744
    25  C   -0.008751
    26  N   -0.398754
    27  C    0.089835
    28  C   -0.113051
    29  C   -0.114831
    30  C    0.076126
    31  C    0.023781
    32  C   -0.006495
    33  C   -0.035884
    34  N   -0.444330
    35  C    0.121421
    36  C   -0.190752
    37  C   -0.020488
    38  C    0.130108
    39  C    0.081340
    40  C    0.126961
    41  O   -0.197991
    42  C   -0.172998
    43  C    0.280593
    44  O   -0.274607
    45  O   -0.364178
    46  C    0.134441
    47  C    0.165059
    48  C   -0.084174
    49  C   -0.138052
    50  C    0.002261
    51  C   -0.033313
    52  C   -0.096267
    53  C    0.086072
    54  C   -0.220320
    55  C   -0.032886
    56  C   -0.020562
    57  C   -0.063354
    58  C    0.063781
    59  C   -0.279168
    60  C   -0.009499
    61  C   -0.010898
    62  C   -0.056333
    63  C    0.009282
    64  C   -0.257275
    65  C   -0.013008
    66  C   -0.030702
    67  H    0.009039
    68  H    0.005733
    69  H    0.003811
    70  H    0.063977
    71  H    0.054699
    72  H    0.052263
    73  H    0.054660
    74  H    0.039600
    75  H    0.056641
    76  H    0.063013
    77  H    0.060405
    78  H    0.062766
    79  H    0.008290
    80  H    0.060351
    81  H    0.068477
    82  H    0.047728
    83  H    0.066996
    84  H    0.058751
    85  H    0.043980
    86  H    0.036847
    87  H    0.040175
    88  H    0.049885
    89  H    0.033192
    90  H    0.047608
    91  H    0.028244
    92  H    0.033438
    93  H    0.038144
    94  H    0.039705
    95  H    0.041929
    96  H    0.070098
    97  H    0.056723
    98  H    0.066423
    99  H    0.061970
   100  H    0.052314
   101  H    0.053351
   102  H    0.042056
   103  H    0.053735
   104  H    0.027364
   105  H    0.049099
   106  H    0.057885
   107  H    0.043110
   108  H    0.038108
   109  H    0.032567
   110  H    0.037131
   111  H    0.033313
   112  H    0.031337
   113  H    0.026986
   114  H    0.039322
   115  H    0.026913
   116  H    0.026884
   117  H    0.038927
   118  H    0.033884
   119  H    0.009486
   120  H    0.049460
   121  H    0.030101
   122  H    0.021016
   123  H    0.017924
   124  H    0.047474
   125  H    0.050386
   126  H    0.013888
   127  H    0.024461
   128  H    0.030157
   129  H    0.040542
   130  H    0.030542
   131  H    0.025540
   132  H    0.011729
   133  H    0.027134
   134  H    0.043270
   135  H    0.030875
   136  H    0.021132
   137  H    0.039152
   138  H    0.043131
   139  H    0.034581
   140  H    0.026352
 Sum of Mulliken charges =  -0.00000

 Dipole moment (field-independent basis, Debye):
    X=             -1.2028    Y=              1.0343    Z=              3.1025  Tot=              3.4846
 Quadrupole moment (field-independent basis, Debye-Ang):
   XX=           -353.6494   YY=           -430.8914   ZZ=           -404.9884
   XY=             16.6557   XZ=             27.3817   YZ=             26.7166

 Normal termination of Gaussian 16 at Fri Apr 29 22:35:26 2022.
