 Gaussian 16, Revision A.03,
 Gaussian 16:  ES64L-G16RevA.03 25-Dec-2016

 --------------------------------
 #p wB97XD/Def2SVP td=(nstates=5)
 --------------------------------

 ----------------------------------------------------
 step_501_chromophore_23 TDDFT with wB97XD functional
 ----------------------------------------------------
 Symbolic Z-matrix:
 Charge =  0 Multiplicity = 1

                         Standard orientation:
 ---------------------------------------------------------------------
 Center     Atomic      Atomic             Coordinates (Angstroms)
 Number     Number       Type             X           Y           Z
 ---------------------------------------------------------------------
      1         12           0        4.957874    0.409203   -0.298916
      2          6           0        3.087096   -2.528751   -0.164113
      3          6           0        2.741553    1.665308   -2.621565
      4          6           0        6.803873    3.120094   -0.190947
      5          6           0        6.523621   -0.580345    2.839837
      6          7           0        3.092452   -0.453499   -1.334567
      7          6           0        2.490843   -1.658944   -1.105232
      8          6           0        1.319007   -1.847768   -2.001829
      9          6           0        1.187983   -0.468564   -2.762995
     10          6           0        2.426699    0.352810   -2.231259
     11          6           0        1.021864   -0.589093   -4.298809
     12          6           0        0.022051   -2.207209   -1.236885
     13          6           0       -0.626222   -3.457981   -1.827790
     14          6           0       -2.128073   -3.366096   -2.233998
     15          8           0       -2.450212   -3.096951   -3.397105
     16          8           0       -2.933462   -3.654400   -1.153199
     17          7           0        4.808437    2.151191   -1.304691
     18          6           0        3.857657    2.494634   -2.264686
     19          6           0        4.258159    3.807213   -2.754759
     20          6           0        5.485681    4.252492   -2.075759
     21          6           0        5.817654    3.114432   -1.161491
     22          6           0        3.432331    4.595331   -3.642857
     23          6           0        6.030647    5.610140   -2.243241
     24          8           0        5.567929    6.443927   -2.993322
     25          6           0        7.157073    6.157661   -1.438102
     26          7           0        6.359632    1.131073    1.107476
     27          6           0        7.186344    2.164570    0.746242
     28          6           0        8.200808    2.426896    1.839250
     29          6           0        7.756993    1.566207    2.962400
     30          6           0        6.789533    0.693482    2.331567
     31          6           0        9.715272    2.282507    1.399512
     32          6           0        6.989073    2.354484    4.078340
     33          6           0        7.091028    1.832947    5.436796
     34          7           0        4.886584   -1.229992    1.087633
     35          6           0        5.605489   -1.527947    2.252665
     36          6           0        5.380874   -2.895681    2.601558
     37          6           0        4.385330   -3.324723    1.731762
     38          6           0        4.075900   -2.244746    0.830065
     39          6           0        6.070287   -3.590414    3.717286
     40          6           0        3.534390   -4.402363    1.416820
     41          8           0        3.442891   -5.497737    1.924575
     42          6           0        2.719646   -3.971511    0.176835
     43          6           0        2.940469   -4.944667   -0.904675
     44          8           0        3.875186   -4.918063   -1.722965
     45          8           0        2.046374   -5.983037   -0.778757
     46          6           0        1.991028   -7.029682   -1.786348
     47          6           0       -4.288932   -4.002714   -1.463354
     48          6           0       -5.230998   -3.503412   -0.332073
     49          6           0       -6.079249   -2.518731   -0.448466
     50          6           0       -5.852291   -1.297486   -1.353699
     51          6           0       -7.117749   -2.264568    0.660801
     52          6           0       -8.613926   -2.508369    0.200817
     53          6           0       -9.715308   -2.172719    1.137670
     54          6           0      -10.791308   -1.273398    0.519953
     55          6           0      -12.160468   -2.000644    0.313901
     56          6           0      -11.056181    0.044373    1.246484
     57          6           0       -9.960956    1.127690    0.861592
     58          6           0       -9.339260    1.698744    2.144453
     59          6           0       -7.843470    1.779083    2.107573
     60          6           0       -7.168006    1.097719    3.343666
     61          6           0       -7.398800    3.308264    2.100973
     62          6           0       -7.305809    3.846084    0.563451
     63          6           0       -7.861716    5.283449    0.534356
     64          6           0       -9.324606    5.311591    0.095470
     65          6           0       -9.633115    5.935001   -1.239950
     66          6           0      -10.262677    5.927426    1.191172
     67          1           0        2.037655    1.972527   -3.397127
     68          1           0        7.455002    3.978179   -0.006332
     69          1           0        7.037331   -0.846603    3.765962
     70          1           0        1.690721   -2.502195   -2.790783
     71          1           0        0.297880    0.097031   -2.489179
     72          1           0        0.699178   -1.624366   -4.415643
     73          1           0        1.879661   -0.302692   -4.907389
     74          1           0        0.209571    0.055121   -4.634480
     75          1           0       -0.770222   -1.464942   -1.332309
     76          1           0        0.311932   -2.340063   -0.194729
     77          1           0       -0.610878   -4.095085   -0.943626
     78          1           0        0.038219   -3.828204   -2.607135
     79          1           0        2.554674    4.002170   -3.900608
     80          1           0        3.868137    4.836480   -4.612868
     81          1           0        3.091568    5.489388   -3.119522
     82          1           0        7.852394    5.322915   -1.526759
     83          1           0        6.819998    6.284206   -0.408945
     84          1           0        7.559122    7.066543   -1.886277
     85          1           0        8.061484    3.486408    2.050840
     86          1           0        8.481849    0.875264    3.392966
     87          1           0        9.791344    2.193199    0.315683
     88          1           0       10.284152    1.531269    1.948456
     89          1           0       10.285300    3.203599    1.517781
     90          1           0        5.939219    2.439379    3.797538
     91          1           0        7.346678    3.382338    4.137410
     92          1           0        7.983980    2.250359    5.903363
     93          1           0        7.090094    0.742763    5.463089
     94          1           0        6.326341    2.292636    6.063759
     95          1           0        7.115178   -3.287698    3.784250
     96          1           0        5.993437   -4.677081    3.677206
     97          1           0        5.603694   -3.167262    4.606907
     98          1           0        1.643778   -4.072218    0.320514
     99          1           0        2.798959   -7.759625   -1.837706
    100          1           0        1.841863   -6.580981   -2.768238
    101          1           0        1.130771   -7.629851   -1.492273
    102          1           0       -4.394173   -5.084676   -1.542789
    103          1           0       -4.591022   -3.644024   -2.447219
    104          1           0       -5.435368   -4.424410    0.214582
    105          1           0       -4.976701   -1.410743   -1.994177
    106          1           0       -5.857288   -0.312094   -0.889089
    107          1           0       -6.672414   -1.266130   -2.069219
    108          1           0       -7.109993   -1.235522    1.018189
    109          1           0       -6.929305   -2.906796    1.520631
    110          1           0       -8.600692   -3.583626    0.024543
    111          1           0       -8.709584   -1.828643   -0.646103
    112          1           0       -9.353428   -1.665986    2.032724
    113          1           0      -10.133616   -3.160578    1.332333
    114          1           0      -10.466570   -1.030177   -0.492362
    115          1           0      -12.891208   -1.388988   -0.214568
    116          1           0      -12.636091   -2.021568    1.294190
    117          1           0      -12.215561   -2.996545   -0.125715
    118          1           0      -11.329966    0.162507    2.294154
    119          1           0      -11.943096    0.426406    0.741182
    120          1           0      -10.434942    1.882342    0.233190
    121          1           0       -9.186554    0.575713    0.330450
    122          1           0       -9.722457    1.229718    3.050820
    123          1           0       -9.728729    2.708946    2.264794
    124          1           0       -7.331655    1.322452    1.260427
    125          1           0       -6.354461    0.404648    3.131541
    126          1           0       -7.919707    0.595671    3.953244
    127          1           0       -6.880565    1.835095    4.093361
    128          1           0       -6.391815    3.305030    2.517141
    129          1           0       -7.981479    4.021689    2.682993
    130          1           0       -7.882392    3.169551   -0.066582
    131          1           0       -6.350743    3.769064    0.042552
    132          1           0       -7.314082    5.936410   -0.146658
    133          1           0       -7.753723    5.802942    1.485621
    134          1           0       -9.670251    4.283004   -0.013734
    135          1           0       -8.833685    5.944988   -1.981024
    136          1           0       -9.767430    6.997406   -1.035745
    137          1           0      -10.570065    5.580840   -1.668511
    138          1           0      -10.726361    5.049481    1.640807
    139          1           0      -10.932173    6.697974    0.809590
    140          1           0       -9.697382    6.451323    1.962544
 ---------------------------------------------------------------------

 SCF Done:  E(RwB97XD) =  -3007.81106514     A.U. after   20 cycles

 Excitation energies and oscillator strengths:

 Excited State   1:      Singlet-A      1.6146 eV  767.88 nm  f=0.3570  <S**2>=0.000
     245 -> 248       -0.19431
     246 -> 247        0.68134
     245 <- 248       -0.12106
 This state for optimization and/or second-order correction.
 Total Energy, E(TD-HF/TD-DFT) =  -3007.75172844
 Copying the excited state density for this state as the 1-particle RhoCI density.

 Excited State   2:      Singlet-A      2.1298 eV  582.14 nm  f=0.1019  <S**2>=0.000
     245 -> 247        0.63364
     246 -> 248        0.29987

 Excited State   3:      Singlet-A      3.2683 eV  379.36 nm  f=0.0022  <S**2>=0.000
     242 -> 247        0.22268
     243 -> 247        0.52447
     244 -> 247        0.36809

 Excited State   4:      Singlet-A      3.3246 eV  372.93 nm  f=0.0040  <S**2>=0.000
     242 -> 247       -0.12917
     243 -> 247       -0.29843
     243 -> 249       -0.12461
     244 -> 247        0.44508
     244 -> 248        0.14798
     244 -> 249        0.26011
     244 -> 250        0.20455

 Excited State   5:      Singlet-A      3.3569 eV  369.34 nm  f=0.0774  <S**2>=0.000
     241 -> 247        0.13687
     242 -> 247        0.49443
     243 -> 247       -0.25209
     246 -> 248       -0.34798

 The electronic state is 1-A.
 Alpha  occ. eigenvalues --  -46.95222 -19.31105 -19.30104 -19.25650 -19.24298
 Alpha  occ. eigenvalues --  -19.23347 -19.22355 -14.46863 -14.46498 -14.44849
 Alpha  occ. eigenvalues --  -14.43706 -10.44154 -10.42923 -10.38153 -10.37602
 Alpha  occ. eigenvalues --  -10.35874 -10.35606 -10.35600 -10.35524 -10.35417
 Alpha  occ. eigenvalues --  -10.35097 -10.35040 -10.34396 -10.33821 -10.33033
 Alpha  occ. eigenvalues --  -10.32663 -10.32658 -10.32397 -10.32278 -10.32227
 Alpha  occ. eigenvalues --  -10.32125 -10.32002 -10.31994 -10.31828 -10.31652
 Alpha  occ. eigenvalues --  -10.31350 -10.31293 -10.31274 -10.31151 -10.31089
 Alpha  occ. eigenvalues --  -10.30630 -10.30314 -10.30094 -10.30064 -10.30041
 Alpha  occ. eigenvalues --  -10.29992 -10.29904 -10.29873 -10.29765 -10.29323
 Alpha  occ. eigenvalues --  -10.29314 -10.29162 -10.29089 -10.29073 -10.29029
 Alpha  occ. eigenvalues --  -10.29017 -10.28750 -10.28715 -10.28691 -10.28532
 Alpha  occ. eigenvalues --  -10.28368 -10.28340 -10.28312 -10.28146 -10.28136
 Alpha  occ. eigenvalues --  -10.27911  -3.21160  -1.94752  -1.94292  -1.94116
 Alpha  occ. eigenvalues --   -1.18817  -1.17625  -1.12238  -1.12010  -1.10711
 Alpha  occ. eigenvalues --   -1.08885  -1.06934  -1.05757  -1.04946  -1.03576
 Alpha  occ. eigenvalues --   -0.94595  -0.92861  -0.92602  -0.92158  -0.91715
 Alpha  occ. eigenvalues --   -0.90944  -0.90869  -0.89687  -0.89564  -0.89127
 Alpha  occ. eigenvalues --   -0.88212  -0.87580  -0.86780  -0.86414  -0.85966
 Alpha  occ. eigenvalues --   -0.84793  -0.84127  -0.83383  -0.83190  -0.82670
 Alpha  occ. eigenvalues --   -0.81899  -0.80549  -0.80298  -0.79350  -0.78324
 Alpha  occ. eigenvalues --   -0.78210  -0.77391  -0.77068  -0.76596  -0.75910
 Alpha  occ. eigenvalues --   -0.75634  -0.75311  -0.73942  -0.72339  -0.71224
 Alpha  occ. eigenvalues --   -0.70964  -0.70100  -0.69625  -0.68777  -0.68361
 Alpha  occ. eigenvalues --   -0.67870  -0.67550  -0.67253  -0.66657  -0.66607
 Alpha  occ. eigenvalues --   -0.66082  -0.65375  -0.64928  -0.63995  -0.62670
 Alpha  occ. eigenvalues --   -0.62589  -0.61468  -0.61418  -0.60936  -0.59926
 Alpha  occ. eigenvalues --   -0.59367  -0.59122  -0.58489  -0.58305  -0.57760
 Alpha  occ. eigenvalues --   -0.57505  -0.57365  -0.57150  -0.56763  -0.56256
 Alpha  occ. eigenvalues --   -0.55918  -0.55274  -0.55260  -0.54993  -0.54670
 Alpha  occ. eigenvalues --   -0.54589  -0.54430  -0.54175  -0.54040  -0.53882
 Alpha  occ. eigenvalues --   -0.53548  -0.53413  -0.53306  -0.53142  -0.52960
 Alpha  occ. eigenvalues --   -0.52806  -0.52490  -0.52026  -0.51950  -0.51590
 Alpha  occ. eigenvalues --   -0.51393  -0.51270  -0.51085  -0.50938  -0.50685
 Alpha  occ. eigenvalues --   -0.50480  -0.50390  -0.50064  -0.49948  -0.49513
 Alpha  occ. eigenvalues --   -0.49372  -0.49120  -0.48941  -0.48885  -0.48792
 Alpha  occ. eigenvalues --   -0.48608  -0.48351  -0.48224  -0.48140  -0.48101
 Alpha  occ. eigenvalues --   -0.47465  -0.47314  -0.47119  -0.46953  -0.46730
 Alpha  occ. eigenvalues --   -0.46537  -0.46431  -0.46163  -0.46158  -0.45871
 Alpha  occ. eigenvalues --   -0.45827  -0.45559  -0.45511  -0.45244  -0.45137
 Alpha  occ. eigenvalues --   -0.44933  -0.44837  -0.44587  -0.44138  -0.43843
 Alpha  occ. eigenvalues --   -0.43791  -0.43569  -0.43461  -0.43283  -0.43208
 Alpha  occ. eigenvalues --   -0.43073  -0.42957  -0.42605  -0.42436  -0.42356
 Alpha  occ. eigenvalues --   -0.42111  -0.41876  -0.41068  -0.41007  -0.40386
 Alpha  occ. eigenvalues --   -0.40213  -0.39882  -0.39680  -0.39641  -0.39572
 Alpha  occ. eigenvalues --   -0.39164  -0.39143  -0.38479  -0.38353  -0.38312
 Alpha  occ. eigenvalues --   -0.38153  -0.37944  -0.36572  -0.36503  -0.36078
 Alpha  occ. eigenvalues --   -0.35695  -0.35527  -0.35157  -0.33773  -0.33538
 Alpha  occ. eigenvalues --   -0.32615  -0.31985  -0.31638  -0.31489  -0.26174
 Alpha  occ. eigenvalues --   -0.23321
 Alpha virt. eigenvalues --   -0.07461  -0.00554   0.02348   0.04517   0.05793
 Alpha virt. eigenvalues --    0.06045   0.06221   0.07049   0.07812   0.09123
 Alpha virt. eigenvalues --    0.10381   0.10719   0.11167   0.11172   0.12414

 Mulliken charges:
               1
     1  Mg   0.953309
     2  C    0.046711
     3  C   -0.056978
     4  C   -0.122051
     5  C   -0.096291
     6  N   -0.342366
     7  C   -0.018715
     8  C   -0.032613
     9  C   -0.145623
    10  C    0.045237
    11  C    0.012717
    12  C    0.037471
    13  C   -0.003177
    14  C    0.217427
    15  O   -0.271685
    16  O   -0.346812
    17  N   -0.537482
    18  C    0.202177
    19  C   -0.171066
    20  C   -0.064060
    21  C    0.269933
    22  C    0.097045
    23  C   -0.011513
    24  O   -0.238937
    25  C    0.006746
    26  N   -0.368852
    27  C    0.069860
    28  C   -0.083376
    29  C   -0.081613
    30  C    0.062926
    31  C    0.032055
    32  C    0.003138
    33  C   -0.018588
    34  N   -0.406765
    35  C    0.111659
    36  C   -0.185672
    37  C   -0.014793
    38  C    0.111891
    39  C    0.089676
    40  C    0.108377
    41  O   -0.187913
    42  C   -0.129333
    43  C    0.253916
    44  O   -0.268126
    45  O   -0.361974
    46  C    0.148322
    47  C    0.177295
    48  C   -0.091669
    49  C   -0.126422
    50  C    0.015857
    51  C   -0.002356
    52  C   -0.071759
    53  C    0.092707
    54  C   -0.184638
    55  C   -0.018454
    56  C   -0.006865
    57  C   -0.038441
    58  C    0.079540
    59  C   -0.242349
    60  C    0.002211
    61  C    0.005054
    62  C   -0.036313
    63  C    0.023598
    64  C   -0.220273
    65  C   -0.000372
    66  C   -0.016908
    67  H    0.002789
    68  H   -0.005861
    69  H   -0.002944
    70  H    0.050674
    71  H    0.044123
    72  H    0.045193
    73  H    0.049541
    74  H    0.034855
    75  H    0.049065
    76  H    0.054322
    77  H    0.053572
    78  H    0.055856
    79  H    0.001745
    80  H    0.057733
    81  H    0.064809
    82  H    0.039585
    83  H    0.062420
    84  H    0.058133
    85  H    0.032725
    86  H    0.026988
    87  H    0.034072
    88  H    0.045406
    89  H    0.027734
    90  H    0.039440
    91  H    0.019842
    92  H    0.026991
    93  H    0.029235
    94  H    0.034458
    95  H    0.036045
    96  H    0.067758
    97  H    0.051002
    98  H    0.052866
    99  H    0.058570
   100  H    0.048235
   101  H    0.049984
   102  H    0.038310
   103  H    0.048081
   104  H    0.023918
   105  H    0.043094
   106  H    0.053439
   107  H    0.036885
   108  H    0.015319
   109  H    0.026015
   110  H    0.028637
   111  H    0.017302
   112  H    0.020491
   113  H    0.020047
   114  H    0.025415
   115  H    0.020217
   116  H    0.018325
   117  H    0.034406
   118  H    0.026732
   119  H   -0.000864
   120  H    0.042890
   121  H    0.010277
   122  H    0.010574
   123  H    0.002530
   124  H    0.030689
   125  H    0.046493
   126  H    0.006759
   127  H    0.017952
   128  H    0.021168
   129  H    0.029554
   130  H    0.016057
   131  H    0.020055
   132  H    0.004376
   133  H    0.016630
   134  H    0.019625
   135  H    0.025363
   136  H    0.012686
   137  H    0.034364
   138  H    0.036598
   139  H    0.029350
   140  H    0.019625
 Sum of Mulliken charges =  -0.00000

 Dipole moment (field-independent basis, Debye):
    X=             -1.1676    Y=              1.1312    Z=              2.9442  Tot=              3.3632
 Quadrupole moment (field-independent basis, Debye-Ang):
   XX=           -353.3217   YY=           -429.3653   ZZ=           -405.0782
   XY=             17.6632   XZ=             26.2854   YZ=             26.4217

 Normal termination of Gaussian 16 at Fri Apr 29 23:01:44 2022.
