 Gaussian 16, Revision A.03,
 Gaussian 16:  ES64L-G16RevA.03 25-Dec-2016

 --------------------
 #p ZINDO=(nstates=5)
 --------------------

 -----------------------------
 step_501_chromophore_23 ZINDO
 -----------------------------
 Symbolic Z-matrix:
 Charge =  0 Multiplicity = 1

                         Standard orientation:
 ---------------------------------------------------------------------
 Center     Atomic      Atomic             Coordinates (Angstroms)
 Number     Number       Type             X           Y           Z
 ---------------------------------------------------------------------
      1         12           0        4.957874    0.409203   -0.298916
      2          6           0        3.087096   -2.528751   -0.164113
      3          6           0        2.741553    1.665308   -2.621565
      4          6           0        6.803873    3.120094   -0.190947
      5          6           0        6.523621   -0.580345    2.839837
      6          7           0        3.092452   -0.453499   -1.334567
      7          6           0        2.490843   -1.658944   -1.105232
      8          6           0        1.319007   -1.847768   -2.001829
      9          6           0        1.187983   -0.468564   -2.762995
     10          6           0        2.426699    0.352810   -2.231259
     11          6           0        1.021864   -0.589093   -4.298809
     12          6           0        0.022051   -2.207209   -1.236885
     13          6           0       -0.626222   -3.457981   -1.827790
     14          6           0       -2.128073   -3.366096   -2.233998
     15          8           0       -2.450212   -3.096951   -3.397105
     16          8           0       -2.933462   -3.654400   -1.153199
     17          7           0        4.808437    2.151191   -1.304691
     18          6           0        3.857657    2.494634   -2.264686
     19          6           0        4.258159    3.807213   -2.754759
     20          6           0        5.485681    4.252492   -2.075759
     21          6           0        5.817654    3.114432   -1.161491
     22          6           0        3.432331    4.595331   -3.642857
     23          6           0        6.030647    5.610140   -2.243241
     24          8           0        5.567929    6.443927   -2.993322
     25          6           0        7.157073    6.157661   -1.438102
     26          7           0        6.359632    1.131073    1.107476
     27          6           0        7.186344    2.164570    0.746242
     28          6           0        8.200808    2.426896    1.839250
     29          6           0        7.756993    1.566207    2.962400
     30          6           0        6.789533    0.693482    2.331567
     31          6           0        9.715272    2.282507    1.399512
     32          6           0        6.989073    2.354484    4.078340
     33          6           0        7.091028    1.832947    5.436796
     34          7           0        4.886584   -1.229992    1.087633
     35          6           0        5.605489   -1.527947    2.252665
     36          6           0        5.380874   -2.895681    2.601558
     37          6           0        4.385330   -3.324723    1.731762
     38          6           0        4.075900   -2.244746    0.830065
     39          6           0        6.070287   -3.590414    3.717286
     40          6           0        3.534390   -4.402363    1.416820
     41          8           0        3.442891   -5.497737    1.924575
     42          6           0        2.719646   -3.971511    0.176835
     43          6           0        2.940469   -4.944667   -0.904675
     44          8           0        3.875186   -4.918063   -1.722965
     45          8           0        2.046374   -5.983037   -0.778757
     46          6           0        1.991028   -7.029682   -1.786348
     47          6           0       -4.288932   -4.002714   -1.463354
     48          6           0       -5.230998   -3.503412   -0.332073
     49          6           0       -6.079249   -2.518731   -0.448466
     50          6           0       -5.852291   -1.297486   -1.353699
     51          6           0       -7.117749   -2.264568    0.660801
     52          6           0       -8.613926   -2.508369    0.200817
     53          6           0       -9.715308   -2.172719    1.137670
     54          6           0      -10.791308   -1.273398    0.519953
     55          6           0      -12.160468   -2.000644    0.313901
     56          6           0      -11.056181    0.044373    1.246484
     57          6           0       -9.960956    1.127690    0.861592
     58          6           0       -9.339260    1.698744    2.144453
     59          6           0       -7.843470    1.779083    2.107573
     60          6           0       -7.168006    1.097719    3.343666
     61          6           0       -7.398800    3.308264    2.100973
     62          6           0       -7.305809    3.846084    0.563451
     63          6           0       -7.861716    5.283449    0.534356
     64          6           0       -9.324606    5.311591    0.095470
     65          6           0       -9.633115    5.935001   -1.239950
     66          6           0      -10.262677    5.927426    1.191172
     67          1           0        2.037655    1.972527   -3.397127
     68          1           0        7.455002    3.978179   -0.006332
     69          1           0        7.037331   -0.846603    3.765962
     70          1           0        1.690721   -2.502195   -2.790783
     71          1           0        0.297880    0.097031   -2.489179
     72          1           0        0.699178   -1.624366   -4.415643
     73          1           0        1.879661   -0.302692   -4.907389
     74          1           0        0.209571    0.055121   -4.634480
     75          1           0       -0.770222   -1.464942   -1.332309
     76          1           0        0.311932   -2.340063   -0.194729
     77          1           0       -0.610878   -4.095085   -0.943626
     78          1           0        0.038219   -3.828204   -2.607135
     79          1           0        2.554674    4.002170   -3.900608
     80          1           0        3.868137    4.836480   -4.612868
     81          1           0        3.091568    5.489388   -3.119522
     82          1           0        7.852394    5.322915   -1.526759
     83          1           0        6.819998    6.284206   -0.408945
     84          1           0        7.559122    7.066543   -1.886277
     85          1           0        8.061484    3.486408    2.050840
     86          1           0        8.481849    0.875264    3.392966
     87          1           0        9.791344    2.193199    0.315683
     88          1           0       10.284152    1.531269    1.948456
     89          1           0       10.285300    3.203599    1.517781
     90          1           0        5.939219    2.439379    3.797538
     91          1           0        7.346678    3.382338    4.137410
     92          1           0        7.983980    2.250359    5.903363
     93          1           0        7.090094    0.742763    5.463089
     94          1           0        6.326341    2.292636    6.063759
     95          1           0        7.115178   -3.287698    3.784250
     96          1           0        5.993437   -4.677081    3.677206
     97          1           0        5.603694   -3.167262    4.606907
     98          1           0        1.643778   -4.072218    0.320514
     99          1           0        2.798959   -7.759625   -1.837706
    100          1           0        1.841863   -6.580981   -2.768238
    101          1           0        1.130771   -7.629851   -1.492273
    102          1           0       -4.394173   -5.084676   -1.542789
    103          1           0       -4.591022   -3.644024   -2.447219
    104          1           0       -5.435368   -4.424410    0.214582
    105          1           0       -4.976701   -1.410743   -1.994177
    106          1           0       -5.857288   -0.312094   -0.889089
    107          1           0       -6.672414   -1.266130   -2.069219
    108          1           0       -7.109993   -1.235522    1.018189
    109          1           0       -6.929305   -2.906796    1.520631
    110          1           0       -8.600692   -3.583626    0.024543
    111          1           0       -8.709584   -1.828643   -0.646103
    112          1           0       -9.353428   -1.665986    2.032724
    113          1           0      -10.133616   -3.160578    1.332333
    114          1           0      -10.466570   -1.030177   -0.492362
    115          1           0      -12.891208   -1.388988   -0.214568
    116          1           0      -12.636091   -2.021568    1.294190
    117          1           0      -12.215561   -2.996545   -0.125715
    118          1           0      -11.329966    0.162507    2.294154
    119          1           0      -11.943096    0.426406    0.741182
    120          1           0      -10.434942    1.882342    0.233190
    121          1           0       -9.186554    0.575713    0.330450
    122          1           0       -9.722457    1.229718    3.050820
    123          1           0       -9.728729    2.708946    2.264794
    124          1           0       -7.331655    1.322452    1.260427
    125          1           0       -6.354461    0.404648    3.131541
    126          1           0       -7.919707    0.595671    3.953244
    127          1           0       -6.880565    1.835095    4.093361
    128          1           0       -6.391815    3.305030    2.517141
    129          1           0       -7.981479    4.021689    2.682993
    130          1           0       -7.882392    3.169551   -0.066582
    131          1           0       -6.350743    3.769064    0.042552
    132          1           0       -7.314082    5.936410   -0.146658
    133          1           0       -7.753723    5.802942    1.485621
    134          1           0       -9.670251    4.283004   -0.013734
    135          1           0       -8.833685    5.944988   -1.981024
    136          1           0       -9.767430    6.997406   -1.035745
    137          1           0      -10.570065    5.580840   -1.668511
    138          1           0      -10.726361    5.049481    1.640807
    139          1           0      -10.932173    6.697974    0.809590
    140          1           0       -9.697382    6.451323    1.962544
 ---------------------------------------------------------------------

 SCF Done:  E(RZINDO/S) =  -474.511373168     A.U. after   20 cycles

 Excitation energies and oscillator strengths:

 Excited State   1:      Singlet-A      1.2402 eV  999.69 nm  f=0.5817  <S**2>=0.000
     175 ->178        -0.20137
     176 ->177         0.65917
 This state for optimization and/or second-order correction.
 Total Energy, E(CIS/TDA) =  -474.465795703
 Copying the excited state density for this state as the 1-particle RhoCI density.

 Excited State   2:      Singlet-A      1.8724 eV  662.16 nm  f=0.0323  <S**2>=0.000
     175 ->177         0.53667
     176 ->178         0.43738

 Excited State   3:      Singlet-A      2.7865 eV  444.95 nm  f=0.0008  <S**2>=0.000
     171 ->177         0.31157
     171 ->178         0.21383
     171 ->179         0.28614
     171 ->180        -0.14064
     171 ->181         0.27971
     171 ->183         0.18570
     171 ->186        -0.25555
     171 ->187        -0.10273
     171 ->188         0.12707

 Excited State   4:      Singlet-A      2.9336 eV  422.63 nm  f=0.6072  <S**2>=0.000
     169 ->177        -0.21707
     169 ->179         0.23497
     170 ->177        -0.10663
     173 ->177         0.11379
     175 ->177        -0.29503
     176 ->178         0.39281
     176 ->179         0.13249

 Excited State   5:      Singlet-A      2.9820 eV  415.78 nm  f=0.4535  <S**2>=0.000
     169 ->177         0.25243
     169 ->179        -0.27710
     169 ->180        -0.10720
     169 ->181         0.13077
     169 ->183         0.10658
     169 ->186         0.11605
     169 ->187        -0.10207
     170 ->177         0.12477
     170 ->179        -0.14390
     175 ->177        -0.24510
     176 ->178         0.31559
     176 ->179         0.15421

 The electronic state is 1-A.
 Alpha  occ. eigenvalues --   -1.86012  -1.82963  -1.78116  -1.72823  -1.71952
 Alpha  occ. eigenvalues --   -1.70837  -1.66974  -1.61620  -1.61435  -1.58944
 Alpha  occ. eigenvalues --   -1.54637  -1.52387  -1.50079  -1.49011  -1.48829
 Alpha  occ. eigenvalues --   -1.45411  -1.43164  -1.40435  -1.38814  -1.38515
 Alpha  occ. eigenvalues --   -1.36192  -1.34944  -1.33337  -1.31689  -1.29742
 Alpha  occ. eigenvalues --   -1.28860  -1.26777  -1.23309  -1.21326  -1.18504
 Alpha  occ. eigenvalues --   -1.18189  -1.16028  -1.15185  -1.14937  -1.14119
 Alpha  occ. eigenvalues --   -1.12590  -1.09702  -1.09471  -1.05859  -1.03886
 Alpha  occ. eigenvalues --   -1.02700  -1.01709  -0.98256  -0.97554  -0.97256
 Alpha  occ. eigenvalues --   -0.96940  -0.94747  -0.94210  -0.93459  -0.92745
 Alpha  occ. eigenvalues --   -0.91131  -0.90628  -0.90039  -0.88835  -0.88285
 Alpha  occ. eigenvalues --   -0.86750  -0.85067  -0.83498  -0.81940  -0.80630
 Alpha  occ. eigenvalues --   -0.79619  -0.78817  -0.77925  -0.77169  -0.76865
 Alpha  occ. eigenvalues --   -0.76572  -0.75117  -0.74713  -0.74171  -0.73791
 Alpha  occ. eigenvalues --   -0.73356  -0.72488  -0.72100  -0.71972  -0.71694
 Alpha  occ. eigenvalues --   -0.71451  -0.69725  -0.69374  -0.69037  -0.68498
 Alpha  occ. eigenvalues --   -0.67828  -0.67241  -0.66072  -0.66000  -0.65624
 Alpha  occ. eigenvalues --   -0.65315  -0.65004  -0.64544  -0.64265  -0.63524
 Alpha  occ. eigenvalues --   -0.63379  -0.62904  -0.62697  -0.62551  -0.62480
 Alpha  occ. eigenvalues --   -0.61800  -0.61705  -0.60825  -0.60760  -0.60408
 Alpha  occ. eigenvalues --   -0.59943  -0.59070  -0.58635  -0.58399  -0.57820
 Alpha  occ. eigenvalues --   -0.57759  -0.57265  -0.57102  -0.56971  -0.56463
 Alpha  occ. eigenvalues --   -0.56321  -0.55696  -0.55496  -0.55102  -0.54870
 Alpha  occ. eigenvalues --   -0.53778  -0.53472  -0.53423  -0.52887  -0.52671
 Alpha  occ. eigenvalues --   -0.52581  -0.52197  -0.52019  -0.51843  -0.51808
 Alpha  occ. eigenvalues --   -0.51519  -0.51164  -0.50625  -0.50346  -0.50029
 Alpha  occ. eigenvalues --   -0.49676  -0.49468  -0.49252  -0.49144  -0.48930
 Alpha  occ. eigenvalues --   -0.48675  -0.48499  -0.48149  -0.47890  -0.47579
 Alpha  occ. eigenvalues --   -0.47477  -0.47135  -0.46523  -0.46419  -0.46202
 Alpha  occ. eigenvalues --   -0.46006  -0.45940  -0.45527  -0.45482  -0.45254
 Alpha  occ. eigenvalues --   -0.44812  -0.44670  -0.44413  -0.44084  -0.43608
 Alpha  occ. eigenvalues --   -0.43359  -0.43250  -0.42854  -0.42247  -0.41993
 Alpha  occ. eigenvalues --   -0.41666  -0.41514  -0.41033  -0.39223  -0.38861
 Alpha  occ. eigenvalues --   -0.38365  -0.36885  -0.34991  -0.34866  -0.34666
 Alpha  occ. eigenvalues --   -0.34019  -0.33064  -0.32647  -0.32050  -0.26745
 Alpha  occ. eigenvalues --   -0.22047
 Alpha virt. eigenvalues --   -0.08777  -0.02801  -0.00724   0.01116   0.01187
 Alpha virt. eigenvalues --    0.02015   0.02659   0.02866   0.03732   0.04823
 Alpha virt. eigenvalues --    0.06312   0.06689   0.07185   0.07811   0.08191

 Mulliken charges:
               1
     1  Mg   0.431995
     2  C   -0.059254
     3  C   -0.070189
     4  C   -0.063987
     5  C   -0.074587
     6  N   -0.293609
     7  C    0.141118
     8  C    0.010929
     9  C   -0.006793
    10  C    0.125052
    11  C   -0.053720
    12  C   -0.017507
    13  C   -0.007497
    14  C    0.468130
    15  O   -0.517062
    16  O   -0.256175
    17  N   -0.325271
    18  C    0.112265
    19  C    0.049252
    20  C   -0.068509
    21  C    0.121148
    22  C   -0.030552
    23  C    0.329497
    24  O   -0.537200
    25  C   -0.028952
    26  N   -0.280556
    27  C    0.116356
    28  C    0.015276
    29  C    0.014675
    30  C    0.133373
    31  C   -0.059170
    32  C   -0.018807
    33  C   -0.051420
    34  N   -0.322053
    35  C    0.075416
    36  C    0.053453
    37  C   -0.058975
    38  C    0.125237
    39  C   -0.034576
    40  C    0.342623
    41  O   -0.526329
    42  C    0.055042
    43  C    0.488711
    44  O   -0.532915
    45  O   -0.267731
    46  C    0.078708
    47  C    0.095059
    48  C   -0.088317
    49  C    0.027870
    50  C   -0.045058
    51  C   -0.033890
    52  C   -0.038975
    53  C   -0.027353
    54  C    0.001479
    55  C   -0.067116
    56  C   -0.047173
    57  C   -0.046386
    58  C   -0.026669
    59  C   -0.007537
    60  C   -0.069891
    61  C   -0.044403
    62  C   -0.046366
    63  C   -0.027085
    64  C   -0.008921
    65  C   -0.053596
    66  C   -0.064846
    67  H    0.030819
    68  H    0.026058
    69  H    0.029340
    70  H    0.053001
    71  H    0.029878
    72  H    0.025825
    73  H    0.030794
    74  H    0.017834
    75  H    0.033589
    76  H    0.030270
    77  H    0.028701
    78  H    0.049834
    79  H    0.006928
    80  H    0.042126
    81  H    0.044477
    82  H    0.026325
    83  H    0.041303
    84  H    0.045063
    85  H    0.025820
    86  H    0.033082
    87  H    0.023691
    88  H    0.029231
    89  H    0.013734
    90  H    0.023540
    91  H    0.012569
    92  H    0.013195
    93  H    0.026245
    94  H    0.016023
    95  H    0.024652
    96  H    0.040075
    97  H    0.032550
    98  H    0.046026
    99  H    0.051317
   100  H    0.039839
   101  H    0.026244
   102  H    0.032982
   103  H    0.048157
   104  H    0.025534
   105  H    0.026677
   106  H    0.032764
   107  H    0.022582
   108  H    0.021077
   109  H    0.018195
   110  H    0.024651
   111  H    0.026265
   112  H    0.024012
   113  H    0.020650
   114  H    0.020692
   115  H    0.011924
   116  H    0.009546
   117  H    0.023200
   118  H    0.039034
   119  H    0.001054
   120  H    0.028427
   121  H    0.021203
   122  H    0.023139
   123  H    0.011150
   124  H    0.027552
   125  H    0.025058
   126  H    0.009484
   127  H    0.016023
   128  H    0.011299
   129  H    0.035885
   130  H    0.016397
   131  H    0.021688
   132  H    0.010161
   133  H    0.020747
   134  H    0.012522
   135  H    0.017068
   136  H    0.008159
   137  H    0.019619
   138  H    0.020658
   139  H    0.024486
   140  H    0.014602
 Sum of Mulliken charges =  -0.00000

 Dipole moment (field-independent basis, Debye):
    X=             -1.2933    Y=              2.0376    Z=              4.3780  Tot=              4.9991
 N-N= 4.389856902216D+03 E-N= 0.000000000000D+00  KE=-9.453780678259D+03
 Leave Link  601 at Fri Apr 29 23:14:52 2022, MaxMem=  6710886400 cpu:               0.8 elap:               0.0
 (Enter /sw/apps/gaussian-16.0/g16/l9999.exe)
 1\1\GINC-BP1-COMPUTE102\SP\RZINDO CIS\STO-3G\C55H74Mg1N4O6\OF15641\29-
 Apr-2022\0\\#p ZINDO=(nstates=5)\\step_501_chromophore_23 ZINDO\\0,1\M
 g,0,-10.089,40.792,42.947\C,0,-8.616,37.873,41.739\C,0,-7.782,42.641,4
 1.174\C,0,-11.691,43.406,44.117\C,0,-13.011,38.808,43.846\N,0,-8.298,4
 0.231,41.615\C,0,-7.899,38.981,41.233\C,0,-6.678,39.048,40.386\C,0,-6.
 44,40.596,40.172\C,0,-7.577,41.257,41.045\C,0,-4.986,41.069,40.423\C,0
 ,-6.832,38.299,39.04\C,0,-5.676,37.323,38.828\C,0,-4.885,37.425,37.489

 Normal termination of Gaussian 16 at Fri Apr 29 23:14:52 2022.
