 Gaussian 16, Revision A.03,
 Gaussian 16:  ES64L-G16RevA.03 25-Dec-2016

 ------------------------------
 #p blyp/Def2SVP td=(nstates=5)
 ------------------------------

 --------------------------------------------------
 step_851_chromophore_21 TDDFT with blyp functional
 --------------------------------------------------
 Symbolic Z-matrix:
 Charge =  0 Multiplicity = 1

                         Standard orientation:
 ---------------------------------------------------------------------
 Center     Atomic      Atomic             Coordinates (Angstroms)
 Number     Number       Type             X           Y           Z
 ---------------------------------------------------------------------
      1         12           0        4.974204    1.107883    0.172276
      2          6           0        4.274852   -2.491529    0.330816
      3          6           0        1.675560    1.471730   -0.776060
      4          6           0        5.655020    4.307802   -0.421110
      5          6           0        8.271588    0.385097    0.640567
      6          7           0        3.152561   -0.318062    0.057650
      7          6           0        3.136022   -1.684010    0.212553
      8          6           0        1.672902   -2.159645    0.191025
      9          6           0        0.902794   -1.001613   -0.475381
     10          6           0        1.973375    0.148851   -0.423507
     11          6           0        0.369176   -1.370783   -1.863488
     12          6           0        1.142107   -2.522179    1.556220
     13          6           0        0.083810   -3.647164    1.719411
     14          6           0       -0.593384   -4.250382    0.471948
     15          8           0       -0.207033   -5.222769   -0.145125
     16          8           0       -1.635045   -3.475804    0.059157
     17          7           0        3.777882    2.694162   -0.417868
     18          6           0        2.423527    2.628230   -0.844007
     19          6           0        1.987341    3.948096   -1.130778
     20          6           0        3.145830    4.856251   -1.123461
     21          6           0        4.295012    3.995869   -0.654500
     22          6           0        0.511461    4.247628   -1.371388
     23          6           0        3.307042    6.238753   -1.526764
     24          8           0        4.404992    6.789717   -1.451514
     25          6           0        2.161601    7.153427   -1.981890
     26          7           0        6.577524    2.174642    0.303048
     27          6           0        6.701852    3.514637    0.072029
     28          6           0        8.047789    4.072118    0.496617
     29          6           0        9.001106    2.814200    0.790495
     30          6           0        7.875925    1.684385    0.627182
     31          6           0        8.795784    5.044478   -0.529243
     32          6           0        9.578970    2.876462    2.206568
     33          6           0       11.081403    3.081478    2.470305
     34          7           0        6.066066   -0.618521    0.476960
     35          6           0        7.412590   -0.743143    0.544745
     36          6           0        7.792937   -2.148293    0.635440
     37          6           0        6.605711   -2.888967    0.517447
     38          6           0        5.551209   -1.935483    0.463066
     39          6           0        9.123049   -2.735896    0.768441
     40          6           0        6.023005   -4.219217    0.478859
     41          8           0        6.491069   -5.352112    0.508899
     42          6           0        4.399071   -4.012594    0.389302
     43          6           0        3.775869   -4.784247   -0.692976
     44          8           0        3.668616   -4.479716   -1.874676
     45          8           0        3.483439   -6.046318   -0.282194
     46          6           0        2.665043   -6.864074   -1.199309
     47          6           0       -2.370054   -3.997107   -1.131286
     48          6           0       -3.397368   -2.962800   -1.670388
     49          6           0       -4.761398   -3.026395   -1.433967
     50          6           0       -5.560312   -3.924914   -0.488510
     51          6           0       -5.667315   -1.943058   -1.999163
     52          6           0       -5.753601   -0.556881   -1.238105
     53          6           0       -7.198291   -0.046674   -1.225863
     54          6           0       -8.045750   -0.342143    0.054951
     55          6           0       -9.096998   -1.453096   -0.236327
     56          6           0       -8.721611    0.928410    0.593974
     57          6           0       -8.911179    0.823453    2.106562
     58          6           0      -10.396122    0.596218    2.568450
     59          6           0      -11.090556    1.826258    3.073360
     60          6           0      -10.985799    1.980339    4.651169
     61          6           0      -12.585357    1.948179    2.465707
     62          6           0      -12.678702    2.441433    1.044769
     63          6           0      -13.526549    1.537472    0.146399
     64          6           0      -13.329453    2.033129   -1.369717
     65          6           0      -14.725985    1.921869   -2.213767
     66          6           0      -12.149328    1.319134   -1.999639
     67          1           0        0.636643    1.665901   -1.048282
     68          1           0        5.996852    5.342510   -0.490244
     69          1           0        9.324714    0.180668    0.844037
     70          1           0        1.556415   -3.019662   -0.468527
     71          1           0        0.024952   -0.708649    0.101392
     72          1           0       -0.702832   -1.180069   -1.904107
     73          1           0        0.463007   -2.412301   -2.170686
     74          1           0        0.786523   -0.756538   -2.661938
     75          1           0        0.630738   -1.673550    2.010506
     76          1           0        2.067649   -2.700069    2.103532
     77          1           0       -0.688879   -3.231417    2.367203
     78          1           0        0.498500   -4.541397    2.184280
     79          1           0        0.443455    4.263185   -2.459567
     80          1           0        0.315794    5.275667   -1.065583
     81          1           0       -0.163977    3.577971   -0.838920
     82          1           0        1.402791    6.736936   -2.643744
     83          1           0        2.672737    8.025080   -2.392290
     84          1           0        1.764986    7.554718   -1.049554
     85          1           0        7.820490    4.545458    1.452295
     86          1           0        9.704542    2.652409   -0.027181
     87          1           0        9.348049    5.814801    0.007187
     88          1           0        8.093232    5.438978   -1.264553
     89          1           0        9.578896    4.568014   -1.119541
     90          1           0        9.333043    1.933648    2.694977
     91          1           0        9.071522    3.630667    2.809143
     92          1           0       11.159007    2.652806    3.469350
     93          1           0       11.348373    4.136980    2.414334
     94          1           0       11.650960    2.430702    1.807407
     95          1           0        9.847421   -2.400867    0.026405
     96          1           0        9.090117   -3.815695    0.620575
     97          1           0        9.562667   -2.470875    1.730855
     98          1           0        4.119424   -4.511148    1.317041
     99          1           0        1.740213   -6.359204   -1.479339
    100          1           0        2.433392   -7.669079   -0.502189
    101          1           0        3.211637   -7.164084   -2.093824
    102          1           0       -2.816311   -4.980418   -0.987187
    103          1           0       -1.541002   -4.225898   -1.799598
    104          1           0       -2.970379   -2.286672   -2.410713
    105          1           0       -6.174936   -4.557595   -1.128979
    106          1           0       -6.233583   -3.367003    0.162445
    107          1           0       -4.875747   -4.629615   -0.014643
    108          1           0       -6.691090   -2.273470   -2.175927
    109          1           0       -5.194872   -1.665910   -2.941265
    110          1           0       -5.102283    0.098191   -1.815955
    111          1           0       -5.312210   -0.683251   -0.249847
    112          1           0       -7.817030   -0.501846   -1.999596
    113          1           0       -7.250702    1.011578   -1.482152
    114          1           0       -7.416237   -0.759165    0.841651
    115          1           0       -8.707474   -2.387175    0.167354
    116          1           0       -9.436641   -1.486472   -1.271545
    117          1           0      -10.024780   -1.338477    0.325083
    118          1           0       -9.690630    0.967178    0.095291
    119          1           0       -8.183274    1.857939    0.411172
    120          1           0       -8.516434    1.693661    2.632028
    121          1           0       -8.404675   -0.049128    2.519179
    122          1           0      -10.425233   -0.226801    3.282219
    123          1           0      -10.961968    0.139971    1.755294
    124          1           0      -10.593485    2.681440    2.615749
    125          1           0      -10.050398    1.626369    5.083112
    126          1           0      -11.827044    1.505980    5.156769
    127          1           0      -11.104305    3.032453    4.910233
    128          1           0      -13.167666    2.513374    3.192569
    129          1           0      -13.169200    1.028107    2.437890
    130          1           0      -11.673753    2.289216    0.651006
    131          1           0      -12.882270    3.502149    0.899689
    132          1           0      -14.572755    1.713212    0.397439
    133          1           0      -13.235881    0.493569    0.260937
    134          1           0      -12.917482    3.040973   -1.330721
    135          1           0      -14.653200    1.364583   -3.148376
    136          1           0      -15.085206    2.932011   -2.407922
    137          1           0      -15.500341    1.477889   -1.588305
    138          1           0      -11.588439    0.909797   -1.158555
    139          1           0      -11.473327    1.945319   -2.582623
    140          1           0      -12.509108    0.578725   -2.712569
 ---------------------------------------------------------------------

 SCF Done:  E(RB-LYP) =  -3007.40106752     A.U. after   22 cycles

 Excitation energies and oscillator strengths:

 Excited State   1:      Singlet-A      1.7114 eV  724.46 nm  f=0.0008  <S**2>=0.000
     244 -> 247        0.69089
     245 -> 247       -0.14476
 This state for optimization and/or second-order correction.
 Total Energy, E(TD-HF/TD-DFT) =  -3007.33817446
 Copying the excited state density for this state as the 1-particle RhoCI density.

 Excited State   2:      Singlet-A      1.7680 eV  701.26 nm  f=0.3217  <S**2>=0.000
     245 -> 248        0.17815
     246 -> 247        0.69665
     246 <- 247       -0.16376

 Excited State   3:      Singlet-A      1.9547 eV  634.28 nm  f=0.0363  <S**2>=0.000
     243 -> 247        0.45821
     244 -> 247        0.11042
     245 -> 247        0.48627
     246 -> 248       -0.15972

 Excited State   4:      Singlet-A      2.0166 eV  614.82 nm  f=0.0279  <S**2>=0.000
     243 -> 247        0.53654
     245 -> 247       -0.40288
     246 -> 248        0.17108

 Excited State   5:      Singlet-A      2.2521 eV  550.54 nm  f=0.0032  <S**2>=0.000
     241 -> 247        0.63606
     242 -> 247        0.30259

 The electronic state is 1-A.
 Alpha  occ. eigenvalues --  -46.25390 -18.82333 -18.80048 -18.77503 -18.76318
 Alpha  occ. eigenvalues --  -18.74875 -18.74503 -14.03367 -14.03096 -14.01253
 Alpha  occ. eigenvalues --  -14.00822 -10.04428 -10.02283 -10.00388  -9.98992
 Alpha  occ. eigenvalues --   -9.98166  -9.96769  -9.96609  -9.96514  -9.96514
 Alpha  occ. eigenvalues --   -9.96461  -9.95889  -9.95530  -9.95344  -9.94863
 Alpha  occ. eigenvalues --   -9.94753  -9.94559  -9.94239  -9.94188  -9.94077
 Alpha  occ. eigenvalues --   -9.93825  -9.93823  -9.93501  -9.93459  -9.93430
 Alpha  occ. eigenvalues --   -9.93426  -9.93303  -9.93303  -9.93119  -9.92981
 Alpha  occ. eigenvalues --   -9.92915  -9.92577  -9.92562  -9.92532  -9.92499
 Alpha  occ. eigenvalues --   -9.92459  -9.92437  -9.92336  -9.92250  -9.92191
 Alpha  occ. eigenvalues --   -9.91913  -9.91856  -9.91627  -9.91621  -9.91612
 Alpha  occ. eigenvalues --   -9.91609  -9.91553  -9.91522  -9.91509  -9.91404
 Alpha  occ. eigenvalues --   -9.91357  -9.91281  -9.91183  -9.91112  -9.90909
 Alpha  occ. eigenvalues --   -9.90875  -2.90393  -1.70809  -1.70284  -1.70112
 Alpha  occ. eigenvalues --   -0.98365  -0.96329  -0.91367  -0.90690  -0.90293
 Alpha  occ. eigenvalues --   -0.87574  -0.85965  -0.85223  -0.84528  -0.82715
 Alpha  occ. eigenvalues --   -0.75305  -0.73951  -0.73205  -0.72968  -0.72257
 Alpha  occ. eigenvalues --   -0.72212  -0.71420  -0.70723  -0.70616  -0.70155
 Alpha  occ. eigenvalues --   -0.69492  -0.68996  -0.68074  -0.67434  -0.66952
 Alpha  occ. eigenvalues --   -0.66493  -0.65855  -0.65186  -0.64870  -0.64263
 Alpha  occ. eigenvalues --   -0.64185  -0.62624  -0.62218  -0.61398  -0.60932
 Alpha  occ. eigenvalues --   -0.60352  -0.60325  -0.60007  -0.59685  -0.59065
 Alpha  occ. eigenvalues --   -0.58174  -0.57530  -0.56854  -0.55822  -0.54504
 Alpha  occ. eigenvalues --   -0.54255  -0.54050  -0.52851  -0.52571  -0.51418
 Alpha  occ. eigenvalues --   -0.51362  -0.51250  -0.50788  -0.50428  -0.50048
 Alpha  occ. eigenvalues --   -0.49965  -0.49476  -0.48805  -0.47284  -0.46784
 Alpha  occ. eigenvalues --   -0.46029  -0.45802  -0.45227  -0.44813  -0.44164
 Alpha  occ. eigenvalues --   -0.43727  -0.43358  -0.43109  -0.42790  -0.42156
 Alpha  occ. eigenvalues --   -0.41763  -0.41663  -0.41472  -0.41028  -0.40864
 Alpha  occ. eigenvalues --   -0.40695  -0.40628  -0.40376  -0.40244  -0.40136
 Alpha  occ. eigenvalues --   -0.39639  -0.39513  -0.39365  -0.39228  -0.39171
 Alpha  occ. eigenvalues --   -0.39058  -0.39011  -0.38817  -0.38404  -0.38233
 Alpha  occ. eigenvalues --   -0.37832  -0.37830  -0.37621  -0.37405  -0.37240
 Alpha  occ. eigenvalues --   -0.36832  -0.36750  -0.36573  -0.36397  -0.36285
 Alpha  occ. eigenvalues --   -0.35972  -0.35787  -0.35702  -0.35622  -0.35455
 Alpha  occ. eigenvalues --   -0.35383  -0.35218  -0.34870  -0.34794  -0.34743
 Alpha  occ. eigenvalues --   -0.34637  -0.34421  -0.34252  -0.34147  -0.33759
 Alpha  occ. eigenvalues --   -0.33603  -0.33480  -0.33409  -0.33351  -0.33043
 Alpha  occ. eigenvalues --   -0.33032  -0.32814  -0.32689  -0.32432  -0.32321
 Alpha  occ. eigenvalues --   -0.32184  -0.32048  -0.31970  -0.31800  -0.31677
 Alpha  occ. eigenvalues --   -0.31598  -0.31201  -0.31087  -0.30966  -0.30701
 Alpha  occ. eigenvalues --   -0.30642  -0.30318  -0.30054  -0.30001  -0.29724
 Alpha  occ. eigenvalues --   -0.29594  -0.29502  -0.29401  -0.28923  -0.28768
 Alpha  occ. eigenvalues --   -0.28603  -0.28513  -0.28481  -0.28193  -0.27692
 Alpha  occ. eigenvalues --   -0.27556  -0.27309  -0.26937  -0.26833  -0.26742
 Alpha  occ. eigenvalues --   -0.26568  -0.26492  -0.26019  -0.25761  -0.25444
 Alpha  occ. eigenvalues --   -0.25255  -0.24856  -0.24093  -0.23884  -0.23360
 Alpha  occ. eigenvalues --   -0.23342  -0.22917  -0.22316  -0.21050  -0.20829
 Alpha  occ. eigenvalues --   -0.20134  -0.19874  -0.19087  -0.18078  -0.17571
 Alpha  occ. eigenvalues --   -0.15896
 Alpha virt. eigenvalues --   -0.11872  -0.06941  -0.06425  -0.04867  -0.04333
 Alpha virt. eigenvalues --   -0.03286  -0.02278  -0.01831  -0.00670   0.00506
 Alpha virt. eigenvalues --    0.01344   0.01665   0.01831   0.02544   0.02811

 Mulliken charges:
               1
     1  Mg   0.721372
     2  C    0.072673
     3  C   -0.048484
     4  C   -0.053984
     5  C   -0.075364
     6  N   -0.175026
     7  C   -0.095875
     8  C   -0.024433
     9  C    0.001086
    10  C    0.030142
    11  C    0.113049
    12  C    0.144455
    13  C    0.176170
    14  C    0.043183
    15  O   -0.191727
    16  O   -0.273486
    17  N   -0.356325
    18  C    0.158651
    19  C   -0.160068
    20  C    0.101622
    21  C    0.136992
    22  C    0.169871
    23  C   -0.139267
    24  O   -0.183825
    25  C    0.136465
    26  N   -0.327476
    27  C    0.028409
    28  C    0.046972
    29  C    0.023879
    30  C    0.062149
    31  C    0.113087
    32  C    0.067125
    33  C    0.080321
    34  N   -0.274930
    35  C    0.135824
    36  C   -0.180614
    37  C    0.105166
    38  C    0.052469
    39  C    0.172309
    40  C   -0.055738
    41  O   -0.116804
    42  C    0.055485
    43  C    0.092771
    44  O   -0.198711
    45  O   -0.268466
    46  C    0.224332
    47  C    0.264699
    48  C   -0.072155
    49  C   -0.129092
    50  C    0.154216
    51  C    0.080591
    52  C    0.110277
    53  C    0.122288
    54  C   -0.099204
    55  C    0.093634
    56  C    0.121952
    57  C    0.067118
    58  C    0.085855
    59  C   -0.043930
    60  C    0.101036
    61  C    0.119634
    62  C    0.046065
    63  C    0.082190
    64  C   -0.105648
    65  C    0.099150
    66  C    0.094645
    67  H   -0.072635
    68  H   -0.038089
    69  H   -0.063260
    70  H    0.004412
    71  H   -0.026475
    72  H   -0.022918
    73  H    0.009905
    74  H   -0.014042
    75  H   -0.025678
    76  H   -0.021431
    77  H   -0.014239
    78  H   -0.002470
    79  H    0.012479
    80  H   -0.006525
    81  H    0.015285
    82  H    0.001206
    83  H   -0.013226
    84  H    0.005262
    85  H   -0.007619
    86  H   -0.015858
    87  H   -0.009209
    88  H    0.009839
    89  H   -0.017107
    90  H   -0.026144
    91  H   -0.030735
    92  H   -0.006991
    93  H    0.006561
    94  H   -0.010092
    95  H   -0.010863
    96  H    0.005883
    97  H   -0.003851
    98  H    0.002827
    99  H    0.021589
   100  H    0.008414
   101  H    0.015362
   102  H   -0.001438
   103  H   -0.013150
   104  H   -0.017518
   105  H   -0.001249
   106  H    0.018209
   107  H   -0.012610
   108  H   -0.022317
   109  H   -0.027670
   110  H   -0.031142
   111  H   -0.019044
   112  H   -0.042380
   113  H   -0.039622
   114  H   -0.034344
   115  H   -0.017043
   116  H   -0.004502
   117  H   -0.029703
   118  H   -0.019152
   119  H   -0.034626
   120  H   -0.029623
   121  H   -0.038337
   122  H   -0.048664
   123  H   -0.042223
   124  H   -0.034904
   125  H   -0.010007
   126  H   -0.014151
   127  H   -0.020703
   128  H   -0.053998
   129  H   -0.047395
   130  H   -0.047267
   131  H   -0.023386
   132  H   -0.027866
   133  H   -0.016734
   134  H   -0.029131
   135  H   -0.009416
   136  H   -0.011066
   137  H   -0.015767
   138  H   -0.006852
   139  H   -0.018232
   140  H   -0.023290
 Sum of Mulliken charges =  -0.00000

 Dipole moment (field-independent basis, Debye):
    X=             -5.0644    Y=              2.9495    Z=              2.3800  Tot=              6.3255
 Quadrupole moment (field-independent basis, Debye-Ang):
   XX=           -372.8677   YY=           -442.4139   ZZ=           -404.5717
   XY=             25.7760   XZ=             19.8690   YZ=              1.9104

 Normal termination of Gaussian 16 at Sat Apr 30 19:45:35 2022.
