 Gaussian 16, Revision A.03,
 Gaussian 16:  ES64L-G16RevA.03 25-Dec-2016

 -----------------------------------
 #p cam-b3lyp/Def2SVP td=(nstates=5)
 -----------------------------------

 -------------------------------------------------------
 step_851_chromophore_21 TDDFT with cam-b3lyp functional
 -------------------------------------------------------
 Symbolic Z-matrix:
 Charge =  0 Multiplicity = 1

                         Standard orientation:
 ---------------------------------------------------------------------
 Center     Atomic      Atomic             Coordinates (Angstroms)
 Number     Number       Type             X           Y           Z
 ---------------------------------------------------------------------
      1         12           0        4.974204    1.107883    0.172276
      2          6           0        4.274852   -2.491529    0.330816
      3          6           0        1.675560    1.471730   -0.776060
      4          6           0        5.655020    4.307802   -0.421110
      5          6           0        8.271588    0.385097    0.640567
      6          7           0        3.152561   -0.318062    0.057650
      7          6           0        3.136022   -1.684010    0.212553
      8          6           0        1.672902   -2.159645    0.191025
      9          6           0        0.902794   -1.001613   -0.475381
     10          6           0        1.973375    0.148851   -0.423507
     11          6           0        0.369176   -1.370783   -1.863488
     12          6           0        1.142107   -2.522179    1.556220
     13          6           0        0.083810   -3.647164    1.719411
     14          6           0       -0.593384   -4.250382    0.471948
     15          8           0       -0.207033   -5.222769   -0.145125
     16          8           0       -1.635045   -3.475804    0.059157
     17          7           0        3.777882    2.694162   -0.417868
     18          6           0        2.423527    2.628230   -0.844007
     19          6           0        1.987341    3.948096   -1.130778
     20          6           0        3.145830    4.856251   -1.123461
     21          6           0        4.295012    3.995869   -0.654500
     22          6           0        0.511461    4.247628   -1.371388
     23          6           0        3.307042    6.238753   -1.526764
     24          8           0        4.404992    6.789717   -1.451514
     25          6           0        2.161601    7.153427   -1.981890
     26          7           0        6.577524    2.174642    0.303048
     27          6           0        6.701852    3.514637    0.072029
     28          6           0        8.047789    4.072118    0.496617
     29          6           0        9.001106    2.814200    0.790495
     30          6           0        7.875925    1.684385    0.627182
     31          6           0        8.795784    5.044478   -0.529243
     32          6           0        9.578970    2.876462    2.206568
     33          6           0       11.081403    3.081478    2.470305
     34          7           0        6.066066   -0.618521    0.476960
     35          6           0        7.412590   -0.743143    0.544745
     36          6           0        7.792937   -2.148293    0.635440
     37          6           0        6.605711   -2.888967    0.517447
     38          6           0        5.551209   -1.935483    0.463066
     39          6           0        9.123049   -2.735896    0.768441
     40          6           0        6.023005   -4.219217    0.478859
     41          8           0        6.491069   -5.352112    0.508899
     42          6           0        4.399071   -4.012594    0.389302
     43          6           0        3.775869   -4.784247   -0.692976
     44          8           0        3.668616   -4.479716   -1.874676
     45          8           0        3.483439   -6.046318   -0.282194
     46          6           0        2.665043   -6.864074   -1.199309
     47          6           0       -2.370054   -3.997107   -1.131286
     48          6           0       -3.397368   -2.962800   -1.670388
     49          6           0       -4.761398   -3.026395   -1.433967
     50          6           0       -5.560312   -3.924914   -0.488510
     51          6           0       -5.667315   -1.943058   -1.999163
     52          6           0       -5.753601   -0.556881   -1.238105
     53          6           0       -7.198291   -0.046674   -1.225863
     54          6           0       -8.045750   -0.342143    0.054951
     55          6           0       -9.096998   -1.453096   -0.236327
     56          6           0       -8.721611    0.928410    0.593974
     57          6           0       -8.911179    0.823453    2.106562
     58          6           0      -10.396122    0.596218    2.568450
     59          6           0      -11.090556    1.826258    3.073360
     60          6           0      -10.985799    1.980339    4.651169
     61          6           0      -12.585357    1.948179    2.465707
     62          6           0      -12.678702    2.441433    1.044769
     63          6           0      -13.526549    1.537472    0.146399
     64          6           0      -13.329453    2.033129   -1.369717
     65          6           0      -14.725985    1.921869   -2.213767
     66          6           0      -12.149328    1.319134   -1.999639
     67          1           0        0.636643    1.665901   -1.048282
     68          1           0        5.996852    5.342510   -0.490244
     69          1           0        9.324714    0.180668    0.844037
     70          1           0        1.556415   -3.019662   -0.468527
     71          1           0        0.024952   -0.708649    0.101392
     72          1           0       -0.702832   -1.180069   -1.904107
     73          1           0        0.463007   -2.412301   -2.170686
     74          1           0        0.786523   -0.756538   -2.661938
     75          1           0        0.630738   -1.673550    2.010506
     76          1           0        2.067649   -2.700069    2.103532
     77          1           0       -0.688879   -3.231417    2.367203
     78          1           0        0.498500   -4.541397    2.184280
     79          1           0        0.443455    4.263185   -2.459567
     80          1           0        0.315794    5.275667   -1.065583
     81          1           0       -0.163977    3.577971   -0.838920
     82          1           0        1.402791    6.736936   -2.643744
     83          1           0        2.672737    8.025080   -2.392290
     84          1           0        1.764986    7.554718   -1.049554
     85          1           0        7.820490    4.545458    1.452295
     86          1           0        9.704542    2.652409   -0.027181
     87          1           0        9.348049    5.814801    0.007187
     88          1           0        8.093232    5.438978   -1.264553
     89          1           0        9.578896    4.568014   -1.119541
     90          1           0        9.333043    1.933648    2.694977
     91          1           0        9.071522    3.630667    2.809143
     92          1           0       11.159007    2.652806    3.469350
     93          1           0       11.348373    4.136980    2.414334
     94          1           0       11.650960    2.430702    1.807407
     95          1           0        9.847421   -2.400867    0.026405
     96          1           0        9.090117   -3.815695    0.620575
     97          1           0        9.562667   -2.470875    1.730855
     98          1           0        4.119424   -4.511148    1.317041
     99          1           0        1.740213   -6.359204   -1.479339
    100          1           0        2.433392   -7.669079   -0.502189
    101          1           0        3.211637   -7.164084   -2.093824
    102          1           0       -2.816311   -4.980418   -0.987187
    103          1           0       -1.541002   -4.225898   -1.799598
    104          1           0       -2.970379   -2.286672   -2.410713
    105          1           0       -6.174936   -4.557595   -1.128979
    106          1           0       -6.233583   -3.367003    0.162445
    107          1           0       -4.875747   -4.629615   -0.014643
    108          1           0       -6.691090   -2.273470   -2.175927
    109          1           0       -5.194872   -1.665910   -2.941265
    110          1           0       -5.102283    0.098191   -1.815955
    111          1           0       -5.312210   -0.683251   -0.249847
    112          1           0       -7.817030   -0.501846   -1.999596
    113          1           0       -7.250702    1.011578   -1.482152
    114          1           0       -7.416237   -0.759165    0.841651
    115          1           0       -8.707474   -2.387175    0.167354
    116          1           0       -9.436641   -1.486472   -1.271545
    117          1           0      -10.024780   -1.338477    0.325083
    118          1           0       -9.690630    0.967178    0.095291
    119          1           0       -8.183274    1.857939    0.411172
    120          1           0       -8.516434    1.693661    2.632028
    121          1           0       -8.404675   -0.049128    2.519179
    122          1           0      -10.425233   -0.226801    3.282219
    123          1           0      -10.961968    0.139971    1.755294
    124          1           0      -10.593485    2.681440    2.615749
    125          1           0      -10.050398    1.626369    5.083112
    126          1           0      -11.827044    1.505980    5.156769
    127          1           0      -11.104305    3.032453    4.910233
    128          1           0      -13.167666    2.513374    3.192569
    129          1           0      -13.169200    1.028107    2.437890
    130          1           0      -11.673753    2.289216    0.651006
    131          1           0      -12.882270    3.502149    0.899689
    132          1           0      -14.572755    1.713212    0.397439
    133          1           0      -13.235881    0.493569    0.260937
    134          1           0      -12.917482    3.040973   -1.330721
    135          1           0      -14.653200    1.364583   -3.148376
    136          1           0      -15.085206    2.932011   -2.407922
    137          1           0      -15.500341    1.477889   -1.588305
    138          1           0      -11.588439    0.909797   -1.158555
    139          1           0      -11.473327    1.945319   -2.582623
    140          1           0      -12.509108    0.578725   -2.712569
 ---------------------------------------------------------------------

 SCF Done:  E(RCAM-B3LYP) =  -3007.18536322     A.U. after   17 cycles

 Excitation energies and oscillator strengths:

 Excited State   1:      Singlet-A      1.6450 eV  753.71 nm  f=0.3974  <S**2>=0.000
     245 -> 248        0.16953
     246 -> 247        0.68878
     245 <- 248        0.10583
 This state for optimization and/or second-order correction.
 Total Energy, E(TD-HF/TD-DFT) =  -3007.12491078
 Copying the excited state density for this state as the 1-particle RhoCI density.

 Excited State   2:      Singlet-A      2.2366 eV  554.34 nm  f=0.1123  <S**2>=0.000
     245 -> 247        0.64151
     246 -> 248       -0.27460

 Excited State   3:      Singlet-A      3.1382 eV  395.09 nm  f=0.0063  <S**2>=0.000
     244 -> 247        0.67064
     246 -> 248        0.18686

 Excited State   4:      Singlet-A      3.3992 eV  364.75 nm  f=0.0043  <S**2>=0.000
     241 -> 247       -0.30566
     241 -> 249        0.15793
     242 -> 247        0.49916
     242 -> 249       -0.24604
     242 -> 250        0.15675

 Excited State   5:      Singlet-A      3.4948 eV  354.77 nm  f=0.0813  <S**2>=0.000
     241 -> 247        0.14932
     242 -> 247        0.10494
     243 -> 247        0.57602
     246 -> 248        0.31748

 The electronic state is 1-A.
 Alpha  occ. eigenvalues --  -46.86744 -19.25231 -19.22967 -19.20504 -19.19344
 Alpha  occ. eigenvalues --  -19.18015 -19.17828 -14.42522 -14.41660 -14.39617
 Alpha  occ. eigenvalues --  -14.39288 -10.39732 -10.37741 -10.35731 -10.34339
 Alpha  occ. eigenvalues --  -10.32430 -10.31368 -10.31331 -10.31255 -10.30792
 Alpha  occ. eigenvalues --  -10.30722 -10.29836 -10.29826 -10.29688 -10.29530
 Alpha  occ. eigenvalues --  -10.29083 -10.28913 -10.28525 -10.28234 -10.28165
 Alpha  occ. eigenvalues --  -10.28094 -10.27801 -10.27673 -10.27650 -10.27506
 Alpha  occ. eigenvalues --  -10.27496 -10.27425 -10.27377 -10.27146 -10.27023
 Alpha  occ. eigenvalues --  -10.26972 -10.26372 -10.26291 -10.26276 -10.26274
 Alpha  occ. eigenvalues --  -10.26167 -10.26130 -10.26031 -10.26027 -10.25887
 Alpha  occ. eigenvalues --  -10.25721 -10.25630 -10.25466 -10.25351 -10.25330
 Alpha  occ. eigenvalues --  -10.25329 -10.25287 -10.25277 -10.25199 -10.25066
 Alpha  occ. eigenvalues --  -10.25037 -10.24979 -10.24854 -10.24841 -10.24572
 Alpha  occ. eigenvalues --  -10.24536  -3.15670  -1.90555  -1.90153  -1.89978
 Alpha  occ. eigenvalues --   -1.16873  -1.14899  -1.09615  -1.09217  -1.08151
 Alpha  occ. eigenvalues --   -1.05505  -1.03665  -1.02733  -1.01927  -1.00283
 Alpha  occ. eigenvalues --   -0.92376  -0.90858  -0.90047  -0.89781  -0.88995
 Alpha  occ. eigenvalues --   -0.88851  -0.88089  -0.87240  -0.87197  -0.86572
 Alpha  occ. eigenvalues --   -0.86120  -0.85403  -0.84369  -0.83519  -0.83111
 Alpha  occ. eigenvalues --   -0.82583  -0.81875  -0.81170  -0.80776  -0.80237
 Alpha  occ. eigenvalues --   -0.80033  -0.78279  -0.78125  -0.76798  -0.76329
 Alpha  occ. eigenvalues --   -0.75725  -0.75698  -0.75343  -0.74951  -0.74337
 Alpha  occ. eigenvalues --   -0.73224  -0.72473  -0.71759  -0.70697  -0.69208
 Alpha  occ. eigenvalues --   -0.68727  -0.68636  -0.67358  -0.66967  -0.65701
 Alpha  occ. eigenvalues --   -0.65458  -0.65373  -0.64900  -0.64499  -0.64117
 Alpha  occ. eigenvalues --   -0.63737  -0.63261  -0.62715  -0.60994  -0.60330
 Alpha  occ. eigenvalues --   -0.59541  -0.59443  -0.58724  -0.57996  -0.57665
 Alpha  occ. eigenvalues --   -0.57050  -0.56762  -0.56370  -0.55843  -0.55092
 Alpha  occ. eigenvalues --   -0.55011  -0.54621  -0.54506  -0.53914  -0.53692
 Alpha  occ. eigenvalues --   -0.53519  -0.53374  -0.53078  -0.52834  -0.52768
 Alpha  occ. eigenvalues --   -0.52658  -0.52446  -0.52249  -0.52039  -0.51832
 Alpha  occ. eigenvalues --   -0.51619  -0.51517  -0.51297  -0.50770  -0.50705
 Alpha  occ. eigenvalues --   -0.50578  -0.50298  -0.49966  -0.49533  -0.49489
 Alpha  occ. eigenvalues --   -0.49227  -0.48943  -0.48797  -0.48727  -0.48523
 Alpha  occ. eigenvalues --   -0.48328  -0.48201  -0.48125  -0.47914  -0.47601
 Alpha  occ. eigenvalues --   -0.47358  -0.47166  -0.46961  -0.46791  -0.46590
 Alpha  occ. eigenvalues --   -0.46410  -0.46366  -0.46142  -0.45942  -0.45550
 Alpha  occ. eigenvalues --   -0.45331  -0.45161  -0.45082  -0.45027  -0.44770
 Alpha  occ. eigenvalues --   -0.44592  -0.44496  -0.44469  -0.44065  -0.44017
 Alpha  occ. eigenvalues --   -0.43813  -0.43785  -0.43606  -0.43358  -0.43312
 Alpha  occ. eigenvalues --   -0.43231  -0.42759  -0.42493  -0.42283  -0.42193
 Alpha  occ. eigenvalues --   -0.42069  -0.41898  -0.41303  -0.41191  -0.41161
 Alpha  occ. eigenvalues --   -0.40972  -0.40889  -0.40774  -0.40598  -0.39937
 Alpha  occ. eigenvalues --   -0.39742  -0.39571  -0.39439  -0.39134  -0.38707
 Alpha  occ. eigenvalues --   -0.38535  -0.38141  -0.37847  -0.37655  -0.37528
 Alpha  occ. eigenvalues --   -0.37359  -0.37327  -0.37133  -0.36913  -0.36411
 Alpha  occ. eigenvalues --   -0.35845  -0.35305  -0.34957  -0.34865  -0.34459
 Alpha  occ. eigenvalues --   -0.34242  -0.33381  -0.32631  -0.31553  -0.30805
 Alpha  occ. eigenvalues --   -0.30621  -0.30536  -0.29866  -0.29227  -0.24461
 Alpha  occ. eigenvalues --   -0.21161
 Alpha virt. eigenvalues --   -0.09032  -0.01690   0.00027   0.02025   0.02939
 Alpha virt. eigenvalues --    0.03909   0.04537   0.05201   0.05731   0.06630
 Alpha virt. eigenvalues --    0.07750   0.08349   0.08768   0.08854   0.09138

 Mulliken charges:
               1
     1  Mg   0.856685
     2  C    0.047493
     3  C   -0.062582
     4  C   -0.081282
     5  C   -0.082363
     6  N   -0.237001
     7  C   -0.056387
     8  C   -0.076516
     9  C   -0.045527
    10  C    0.044692
    11  C    0.058521
    12  C    0.095577
    13  C    0.109553
    14  C    0.117635
    15  O   -0.234686
    16  O   -0.335100
    17  N   -0.442909
    18  C    0.166640
    19  C   -0.155842
    20  C    0.023293
    21  C    0.169364
    22  C    0.110924
    23  C   -0.062391
    24  O   -0.225677
    25  C    0.058145
    26  N   -0.411602
    27  C    0.063039
    28  C   -0.013767
    29  C   -0.032979
    30  C    0.079917
    31  C    0.056105
    32  C    0.012735
    33  C    0.023391
    34  N   -0.360212
    35  C    0.140732
    36  C   -0.176343
    37  C    0.023742
    38  C    0.078823
    39  C    0.113088
    40  C    0.047661
    41  O   -0.156389
    42  C   -0.019003
    43  C    0.182822
    44  O   -0.234920
    45  O   -0.331179
    46  C    0.186320
    47  C    0.230539
    48  C   -0.092812
    49  C   -0.145240
    50  C    0.094383
    51  C    0.022991
    52  C    0.055191
    53  C    0.065433
    54  C   -0.150709
    55  C    0.038462
    56  C    0.071444
    57  C    0.010591
    58  C    0.037420
    59  C   -0.103014
    60  C    0.045127
    61  C    0.066366
    62  C   -0.004771
    63  C    0.025515
    64  C   -0.164503
    65  C    0.041324
    66  C    0.047695
    67  H   -0.035574
    68  H   -0.000036
    69  H   -0.028658
    70  H    0.032274
    71  H    0.009590
    72  H   -0.001241
    73  H    0.032033
    74  H    0.013197
    75  H    0.004515
    76  H    0.010518
    77  H    0.020260
    78  H    0.028909
    79  H    0.040661
    80  H    0.021416
    81  H    0.042125
    82  H    0.028782
    83  H    0.023950
    84  H    0.034483
    85  H    0.027385
    86  H    0.018742
    87  H    0.015614
    88  H    0.033916
    89  H    0.007845
    90  H    0.004089
    91  H   -0.002243
    92  H    0.016459
    93  H    0.027101
    94  H    0.011305
    95  H    0.014200
    96  H    0.033421
    97  H    0.020383
    98  H    0.045380
    99  H    0.042778
   100  H    0.032882
   101  H    0.039501
   102  H    0.026020
   103  H    0.018637
   104  H    0.011328
   105  H    0.024261
   106  H    0.037717
   107  H    0.012298
   108  H    0.005362
   109  H    0.002159
   110  H   -0.001497
   111  H    0.009296
   112  H   -0.014032
   113  H   -0.008832
   114  H   -0.004776
   115  H    0.005502
   116  H    0.018253
   117  H   -0.006045
   118  H    0.000955
   119  H   -0.003856
   120  H   -0.001133
   121  H   -0.008504
   122  H   -0.017158
   123  H   -0.020290
   124  H   -0.003243
   125  H    0.013340
   126  H    0.009137
   127  H    0.003766
   128  H   -0.022317
   129  H   -0.016634
   130  H   -0.024225
   131  H    0.006275
   132  H    0.001063
   133  H    0.009782
   134  H    0.002409
   135  H    0.013769
   136  H    0.012425
   137  H    0.007679
   138  H    0.004680
   139  H    0.006187
   140  H    0.000614
 Sum of Mulliken charges =  -0.00000

 Dipole moment (field-independent basis, Debye):
    X=             -5.9406    Y=              3.5924    Z=              2.2290  Tot=              7.2914
 Quadrupole moment (field-independent basis, Debye-Ang):
   XX=           -376.6822   YY=           -438.3213   ZZ=           -403.8492
   XY=             27.9421   XZ=             20.0086   YZ=              0.3792

 Normal termination of Gaussian 16 at Sat Apr 30 18:24:24 2022.
