 Gaussian 16, Revision A.03,
 Gaussian 16:  ES64L-G16RevA.03 25-Dec-2016

 ---------------------------------
 #p PBE1PBE/Def2SVP td=(nstates=5)
 ---------------------------------

 -----------------------------------------------------
 step_851_chromophore_21 TDDFT with PBE1PBE functional
 -----------------------------------------------------
 Symbolic Z-matrix:
 Charge =  0 Multiplicity = 1

                         Standard orientation:
 ---------------------------------------------------------------------
 Center     Atomic      Atomic             Coordinates (Angstroms)
 Number     Number       Type             X           Y           Z
 ---------------------------------------------------------------------
      1         12           0        4.974204    1.107883    0.172276
      2          6           0        4.274852   -2.491529    0.330816
      3          6           0        1.675560    1.471730   -0.776060
      4          6           0        5.655020    4.307802   -0.421110
      5          6           0        8.271588    0.385097    0.640567
      6          7           0        3.152561   -0.318062    0.057650
      7          6           0        3.136022   -1.684010    0.212553
      8          6           0        1.672902   -2.159645    0.191025
      9          6           0        0.902794   -1.001613   -0.475381
     10          6           0        1.973375    0.148851   -0.423507
     11          6           0        0.369176   -1.370783   -1.863488
     12          6           0        1.142107   -2.522179    1.556220
     13          6           0        0.083810   -3.647164    1.719411
     14          6           0       -0.593384   -4.250382    0.471948
     15          8           0       -0.207033   -5.222769   -0.145125
     16          8           0       -1.635045   -3.475804    0.059157
     17          7           0        3.777882    2.694162   -0.417868
     18          6           0        2.423527    2.628230   -0.844007
     19          6           0        1.987341    3.948096   -1.130778
     20          6           0        3.145830    4.856251   -1.123461
     21          6           0        4.295012    3.995869   -0.654500
     22          6           0        0.511461    4.247628   -1.371388
     23          6           0        3.307042    6.238753   -1.526764
     24          8           0        4.404992    6.789717   -1.451514
     25          6           0        2.161601    7.153427   -1.981890
     26          7           0        6.577524    2.174642    0.303048
     27          6           0        6.701852    3.514637    0.072029
     28          6           0        8.047789    4.072118    0.496617
     29          6           0        9.001106    2.814200    0.790495
     30          6           0        7.875925    1.684385    0.627182
     31          6           0        8.795784    5.044478   -0.529243
     32          6           0        9.578970    2.876462    2.206568
     33          6           0       11.081403    3.081478    2.470305
     34          7           0        6.066066   -0.618521    0.476960
     35          6           0        7.412590   -0.743143    0.544745
     36          6           0        7.792937   -2.148293    0.635440
     37          6           0        6.605711   -2.888967    0.517447
     38          6           0        5.551209   -1.935483    0.463066
     39          6           0        9.123049   -2.735896    0.768441
     40          6           0        6.023005   -4.219217    0.478859
     41          8           0        6.491069   -5.352112    0.508899
     42          6           0        4.399071   -4.012594    0.389302
     43          6           0        3.775869   -4.784247   -0.692976
     44          8           0        3.668616   -4.479716   -1.874676
     45          8           0        3.483439   -6.046318   -0.282194
     46          6           0        2.665043   -6.864074   -1.199309
     47          6           0       -2.370054   -3.997107   -1.131286
     48          6           0       -3.397368   -2.962800   -1.670388
     49          6           0       -4.761398   -3.026395   -1.433967
     50          6           0       -5.560312   -3.924914   -0.488510
     51          6           0       -5.667315   -1.943058   -1.999163
     52          6           0       -5.753601   -0.556881   -1.238105
     53          6           0       -7.198291   -0.046674   -1.225863
     54          6           0       -8.045750   -0.342143    0.054951
     55          6           0       -9.096998   -1.453096   -0.236327
     56          6           0       -8.721611    0.928410    0.593974
     57          6           0       -8.911179    0.823453    2.106562
     58          6           0      -10.396122    0.596218    2.568450
     59          6           0      -11.090556    1.826258    3.073360
     60          6           0      -10.985799    1.980339    4.651169
     61          6           0      -12.585357    1.948179    2.465707
     62          6           0      -12.678702    2.441433    1.044769
     63          6           0      -13.526549    1.537472    0.146399
     64          6           0      -13.329453    2.033129   -1.369717
     65          6           0      -14.725985    1.921869   -2.213767
     66          6           0      -12.149328    1.319134   -1.999639
     67          1           0        0.636643    1.665901   -1.048282
     68          1           0        5.996852    5.342510   -0.490244
     69          1           0        9.324714    0.180668    0.844037
     70          1           0        1.556415   -3.019662   -0.468527
     71          1           0        0.024952   -0.708649    0.101392
     72          1           0       -0.702832   -1.180069   -1.904107
     73          1           0        0.463007   -2.412301   -2.170686
     74          1           0        0.786523   -0.756538   -2.661938
     75          1           0        0.630738   -1.673550    2.010506
     76          1           0        2.067649   -2.700069    2.103532
     77          1           0       -0.688879   -3.231417    2.367203
     78          1           0        0.498500   -4.541397    2.184280
     79          1           0        0.443455    4.263185   -2.459567
     80          1           0        0.315794    5.275667   -1.065583
     81          1           0       -0.163977    3.577971   -0.838920
     82          1           0        1.402791    6.736936   -2.643744
     83          1           0        2.672737    8.025080   -2.392290
     84          1           0        1.764986    7.554718   -1.049554
     85          1           0        7.820490    4.545458    1.452295
     86          1           0        9.704542    2.652409   -0.027181
     87          1           0        9.348049    5.814801    0.007187
     88          1           0        8.093232    5.438978   -1.264553
     89          1           0        9.578896    4.568014   -1.119541
     90          1           0        9.333043    1.933648    2.694977
     91          1           0        9.071522    3.630667    2.809143
     92          1           0       11.159007    2.652806    3.469350
     93          1           0       11.348373    4.136980    2.414334
     94          1           0       11.650960    2.430702    1.807407
     95          1           0        9.847421   -2.400867    0.026405
     96          1           0        9.090117   -3.815695    0.620575
     97          1           0        9.562667   -2.470875    1.730855
     98          1           0        4.119424   -4.511148    1.317041
     99          1           0        1.740213   -6.359204   -1.479339
    100          1           0        2.433392   -7.669079   -0.502189
    101          1           0        3.211637   -7.164084   -2.093824
    102          1           0       -2.816311   -4.980418   -0.987187
    103          1           0       -1.541002   -4.225898   -1.799598
    104          1           0       -2.970379   -2.286672   -2.410713
    105          1           0       -6.174936   -4.557595   -1.128979
    106          1           0       -6.233583   -3.367003    0.162445
    107          1           0       -4.875747   -4.629615   -0.014643
    108          1           0       -6.691090   -2.273470   -2.175927
    109          1           0       -5.194872   -1.665910   -2.941265
    110          1           0       -5.102283    0.098191   -1.815955
    111          1           0       -5.312210   -0.683251   -0.249847
    112          1           0       -7.817030   -0.501846   -1.999596
    113          1           0       -7.250702    1.011578   -1.482152
    114          1           0       -7.416237   -0.759165    0.841651
    115          1           0       -8.707474   -2.387175    0.167354
    116          1           0       -9.436641   -1.486472   -1.271545
    117          1           0      -10.024780   -1.338477    0.325083
    118          1           0       -9.690630    0.967178    0.095291
    119          1           0       -8.183274    1.857939    0.411172
    120          1           0       -8.516434    1.693661    2.632028
    121          1           0       -8.404675   -0.049128    2.519179
    122          1           0      -10.425233   -0.226801    3.282219
    123          1           0      -10.961968    0.139971    1.755294
    124          1           0      -10.593485    2.681440    2.615749
    125          1           0      -10.050398    1.626369    5.083112
    126          1           0      -11.827044    1.505980    5.156769
    127          1           0      -11.104305    3.032453    4.910233
    128          1           0      -13.167666    2.513374    3.192569
    129          1           0      -13.169200    1.028107    2.437890
    130          1           0      -11.673753    2.289216    0.651006
    131          1           0      -12.882270    3.502149    0.899689
    132          1           0      -14.572755    1.713212    0.397439
    133          1           0      -13.235881    0.493569    0.260937
    134          1           0      -12.917482    3.040973   -1.330721
    135          1           0      -14.653200    1.364583   -3.148376
    136          1           0      -15.085206    2.932011   -2.407922
    137          1           0      -15.500341    1.477889   -1.588305
    138          1           0      -11.588439    0.909797   -1.158555
    139          1           0      -11.473327    1.945319   -2.582623
    140          1           0      -12.509108    0.578725   -2.712569
 ---------------------------------------------------------------------

 SCF Done:  E(RPBE1PBE) =  -3005.37246785     A.U. after   15 cycles

 Excitation energies and oscillator strengths:

 Excited State   1:      Singlet-A      1.8011 eV  688.37 nm  f=0.3862  <S**2>=0.000
     245 -> 248        0.16258
     246 -> 247        0.69770
     246 <- 247       -0.11893
 This state for optimization and/or second-order correction.
 Total Energy, E(TD-HF/TD-DFT) =  -3005.30627811
 Copying the excited state density for this state as the 1-particle RhoCI density.

 Excited State   2:      Singlet-A      2.2130 eV  560.24 nm  f=0.1023  <S**2>=0.000
     244 -> 247        0.10216
     245 -> 247        0.65088
     246 -> 248       -0.25085

 Excited State   3:      Singlet-A      2.8199 eV  439.67 nm  f=0.0012  <S**2>=0.000
     243 -> 247        0.60932
     243 -> 249       -0.13784
     244 -> 247        0.30383

 Excited State   4:      Singlet-A      2.8582 eV  433.78 nm  f=0.0103  <S**2>=0.000
     243 -> 247       -0.30000
     244 -> 247        0.61235
     246 -> 248        0.12347

 Excited State   5:      Singlet-A      3.0150 eV  411.23 nm  f=0.0008  <S**2>=0.000
     241 -> 247        0.49592
     241 -> 249        0.12864
     242 -> 247        0.45355

 The electronic state is 1-A.
 Alpha  occ. eigenvalues --  -46.90205 -19.25875 -19.23631 -19.20757 -19.19682
 Alpha  occ. eigenvalues --  -19.18230 -19.17960 -14.41852 -14.41395 -14.39372
 Alpha  occ. eigenvalues --  -14.38993 -10.36752 -10.34715 -10.32982 -10.31326
 Alpha  occ. eigenvalues --  -10.29803 -10.28996 -10.28857 -10.28846 -10.28699
 Alpha  occ. eigenvalues --  -10.28650 -10.27417 -10.27360 -10.27087 -10.27051
 Alpha  occ. eigenvalues --  -10.26865 -10.26730 -10.26221 -10.26027 -10.26021
 Alpha  occ. eigenvalues --  -10.25879 -10.25385 -10.25288 -10.25258 -10.25238
 Alpha  occ. eigenvalues --  -10.25076 -10.24915 -10.24773 -10.24757 -10.24741
 Alpha  occ. eigenvalues --  -10.24385 -10.24088 -10.23997 -10.23978 -10.23946
 Alpha  occ. eigenvalues --  -10.23854 -10.23854 -10.23592 -10.23539 -10.23439
 Alpha  occ. eigenvalues --  -10.23347 -10.23201 -10.23048 -10.22933 -10.22922
 Alpha  occ. eigenvalues --  -10.22913 -10.22709 -10.22678 -10.22614 -10.22598
 Alpha  occ. eigenvalues --  -10.22533 -10.22455 -10.22408 -10.22376 -10.22125
 Alpha  occ. eigenvalues --  -10.21913  -3.12698  -1.85527  -1.85104  -1.84931
 Alpha  occ. eigenvalues --   -1.11649  -1.09672  -1.04463  -1.03837  -1.03002
 Alpha  occ. eigenvalues --   -1.00323  -0.98263  -0.97412  -0.96632  -0.94796
 Alpha  occ. eigenvalues --   -0.86787  -0.84944  -0.84187  -0.83934  -0.83154
 Alpha  occ. eigenvalues --   -0.83104  -0.82365  -0.81620  -0.81297  -0.80945
 Alpha  occ. eigenvalues --   -0.80344  -0.79585  -0.78520  -0.77860  -0.77361
 Alpha  occ. eigenvalues --   -0.76779  -0.76150  -0.75329  -0.75090  -0.74478
 Alpha  occ. eigenvalues --   -0.74177  -0.72556  -0.72272  -0.71137  -0.70484
 Alpha  occ. eigenvalues --   -0.70033  -0.69799  -0.69481  -0.69283  -0.68495
 Alpha  occ. eigenvalues --   -0.67548  -0.66946  -0.66180  -0.64983  -0.63604
 Alpha  occ. eigenvalues --   -0.63235  -0.62935  -0.61804  -0.61199  -0.59879
 Alpha  occ. eigenvalues --   -0.59823  -0.59805  -0.59433  -0.58646  -0.58380
 Alpha  occ. eigenvalues --   -0.58231  -0.57781  -0.56926  -0.55571  -0.54684
 Alpha  occ. eigenvalues --   -0.54116  -0.53955  -0.53273  -0.52700  -0.52229
 Alpha  occ. eigenvalues --   -0.51553  -0.51274  -0.50745  -0.50468  -0.49562
 Alpha  occ. eigenvalues --   -0.49485  -0.49157  -0.48837  -0.48369  -0.48228
 Alpha  occ. eigenvalues --   -0.48025  -0.47864  -0.47656  -0.47358  -0.47323
 Alpha  occ. eigenvalues --   -0.47252  -0.47040  -0.46727  -0.46564  -0.46229
 Alpha  occ. eigenvalues --   -0.46149  -0.45983  -0.45843  -0.45402  -0.45325
 Alpha  occ. eigenvalues --   -0.45197  -0.44749  -0.44470  -0.44151  -0.44031
 Alpha  occ. eigenvalues --   -0.43947  -0.43533  -0.43411  -0.43290  -0.43105
 Alpha  occ. eigenvalues --   -0.42898  -0.42754  -0.42738  -0.42538  -0.42253
 Alpha  occ. eigenvalues --   -0.42034  -0.41781  -0.41600  -0.41459  -0.41317
 Alpha  occ. eigenvalues --   -0.41134  -0.41026  -0.40840  -0.40711  -0.40268
 Alpha  occ. eigenvalues --   -0.40016  -0.39856  -0.39810  -0.39690  -0.39570
 Alpha  occ. eigenvalues --   -0.39315  -0.39235  -0.39124  -0.38831  -0.38743
 Alpha  occ. eigenvalues --   -0.38567  -0.38478  -0.38353  -0.38106  -0.38077
 Alpha  occ. eigenvalues --   -0.38004  -0.37539  -0.37312  -0.37136  -0.37049
 Alpha  occ. eigenvalues --   -0.36900  -0.36775  -0.36135  -0.35995  -0.35891
 Alpha  occ. eigenvalues --   -0.35865  -0.35711  -0.35614  -0.35379  -0.34778
 Alpha  occ. eigenvalues --   -0.34716  -0.34479  -0.34247  -0.33896  -0.33611
 Alpha  occ. eigenvalues --   -0.33362  -0.32942  -0.32878  -0.32432  -0.32390
 Alpha  occ. eigenvalues --   -0.32324  -0.32216  -0.32133  -0.31797  -0.31264
 Alpha  occ. eigenvalues --   -0.30968  -0.30291  -0.29865  -0.29687  -0.29472
 Alpha  occ. eigenvalues --   -0.29426  -0.28959  -0.27524  -0.27044  -0.26134
 Alpha  occ. eigenvalues --   -0.25744  -0.25635  -0.25187  -0.24784  -0.21320
 Alpha  occ. eigenvalues --   -0.18801
 Alpha virt. eigenvalues --   -0.11487  -0.05243  -0.04167  -0.02366  -0.01485
 Alpha virt. eigenvalues --   -0.00072   0.00529   0.01015   0.01672   0.03251
 Alpha virt. eigenvalues --    0.04409   0.04478   0.04758   0.05400   0.05822

 Mulliken charges:
               1
     1  Mg   1.017214
     2  C    0.025791
     3  C   -0.067524
     4  C   -0.072215
     5  C   -0.065805
     6  N   -0.343335
     7  C    0.021699
     8  C   -0.154515
     9  C   -0.116410
    10  C    0.084420
    11  C    0.002488
    12  C    0.049253
    13  C    0.037627
    14  C    0.178642
    15  O   -0.268237
    16  O   -0.362397
    17  N   -0.546638
    18  C    0.192230
    19  C   -0.181894
    20  C   -0.032850
    21  C    0.199399
    22  C    0.051194
    23  C   -0.014787
    24  O   -0.261978
    25  C   -0.014129
    26  N   -0.518518
    27  C    0.096284
    28  C   -0.090321
    29  C   -0.110442
    30  C    0.107955
    31  C   -0.001663
    32  C   -0.040647
    33  C   -0.050371
    34  N   -0.485795
    35  C    0.163305
    36  C   -0.196162
    37  C   -0.020756
    38  C    0.122876
    39  C    0.059473
    40  C    0.140371
    41  O   -0.201297
    42  C   -0.116393
    43  C    0.272231
    44  O   -0.271021
    45  O   -0.365015
    46  C    0.130112
    47  C    0.189445
    48  C   -0.109210
    49  C   -0.181275
    50  C    0.024897
    51  C   -0.040373
    52  C   -0.007547
    53  C    0.010988
    54  C   -0.231755
    55  C   -0.024164
    56  C   -0.001629
    57  C   -0.049704
    58  C   -0.015213
    59  C   -0.193698
    60  C   -0.016759
    61  C    0.018421
    62  C   -0.074306
    63  C   -0.040038
    64  C   -0.248583
    65  C   -0.021032
    66  C   -0.018284
    67  H   -0.003741
    68  H    0.032860
    69  H    0.003364
    70  H    0.077668
    71  H    0.045466
    72  H    0.028437
    73  H    0.057208
    74  H    0.041216
    75  H    0.036413
    76  H    0.045385
    77  H    0.052403
    78  H    0.060401
    79  H    0.068741
    80  H    0.049990
    81  H    0.066134
    82  H    0.053910
    83  H    0.051022
    84  H    0.061822
    85  H    0.064052
    86  H    0.053736
    87  H    0.043419
    88  H    0.060003
    89  H    0.034731
    90  H    0.036601
    91  H    0.030151
    92  H    0.044889
    93  H    0.054898
    94  H    0.039405
    95  H    0.043082
    96  H    0.061576
    97  H    0.049395
    98  H    0.081512
    99  H    0.066789
   100  H    0.054716
   101  H    0.061591
   102  H    0.051360
   103  H    0.045390
   104  H    0.038746
   105  H    0.053288
   106  H    0.066710
   107  H    0.040953
   108  H    0.037669
   109  H    0.036086
   110  H    0.031520
   111  H    0.041547
   112  H    0.018168
   113  H    0.023292
   114  H    0.032705
   115  H    0.034229
   116  H    0.044131
   117  H    0.024788
   118  H    0.047327
   119  H    0.028494
   120  H    0.031328
   121  H    0.023897
   122  H    0.015568
   123  H    0.013877
   124  H    0.036016
   125  H    0.040410
   126  H    0.036793
   127  H    0.031946
   128  H    0.011364
   129  H    0.016495
   130  H    0.015990
   131  H    0.038134
   132  H    0.035738
   133  H    0.041148
   134  H    0.039342
   135  H    0.040033
   136  H    0.040235
   137  H    0.034327
   138  H    0.037544
   139  H    0.033935
   140  H    0.028605
 Sum of Mulliken charges =  -0.00000

 Dipole moment (field-independent basis, Debye):
    X=             -5.5703    Y=              3.3836    Z=              2.4157  Tot=              6.9508
 Quadrupole moment (field-independent basis, Debye-Ang):
   XX=           -367.2300   YY=           -436.1870   ZZ=           -401.4339
   XY=             27.6943   XZ=             21.0467   YZ=              0.7472

 Normal termination of Gaussian 16 at Sat Apr 30 18:46:54 2022.
