 Gaussian 16, Revision A.03,
 Gaussian 16:  ES64L-G16RevA.03 25-Dec-2016

 --------------------------------
 #p wB97XD/Def2SVP td=(nstates=5)
 --------------------------------

 ----------------------------------------------------
 step_851_chromophore_21 TDDFT with wB97XD functional
 ----------------------------------------------------
 Symbolic Z-matrix:
 Charge =  0 Multiplicity = 1

                         Standard orientation:
 ---------------------------------------------------------------------
 Center     Atomic      Atomic             Coordinates (Angstroms)
 Number     Number       Type             X           Y           Z
 ---------------------------------------------------------------------
      1         12           0        4.974204    1.107883    0.172276
      2          6           0        4.274852   -2.491529    0.330816
      3          6           0        1.675560    1.471730   -0.776060
      4          6           0        5.655020    4.307802   -0.421110
      5          6           0        8.271588    0.385097    0.640567
      6          7           0        3.152561   -0.318062    0.057650
      7          6           0        3.136022   -1.684010    0.212553
      8          6           0        1.672902   -2.159645    0.191025
      9          6           0        0.902794   -1.001613   -0.475381
     10          6           0        1.973375    0.148851   -0.423507
     11          6           0        0.369176   -1.370783   -1.863488
     12          6           0        1.142107   -2.522179    1.556220
     13          6           0        0.083810   -3.647164    1.719411
     14          6           0       -0.593384   -4.250382    0.471948
     15          8           0       -0.207033   -5.222769   -0.145125
     16          8           0       -1.635045   -3.475804    0.059157
     17          7           0        3.777882    2.694162   -0.417868
     18          6           0        2.423527    2.628230   -0.844007
     19          6           0        1.987341    3.948096   -1.130778
     20          6           0        3.145830    4.856251   -1.123461
     21          6           0        4.295012    3.995869   -0.654500
     22          6           0        0.511461    4.247628   -1.371388
     23          6           0        3.307042    6.238753   -1.526764
     24          8           0        4.404992    6.789717   -1.451514
     25          6           0        2.161601    7.153427   -1.981890
     26          7           0        6.577524    2.174642    0.303048
     27          6           0        6.701852    3.514637    0.072029
     28          6           0        8.047789    4.072118    0.496617
     29          6           0        9.001106    2.814200    0.790495
     30          6           0        7.875925    1.684385    0.627182
     31          6           0        8.795784    5.044478   -0.529243
     32          6           0        9.578970    2.876462    2.206568
     33          6           0       11.081403    3.081478    2.470305
     34          7           0        6.066066   -0.618521    0.476960
     35          6           0        7.412590   -0.743143    0.544745
     36          6           0        7.792937   -2.148293    0.635440
     37          6           0        6.605711   -2.888967    0.517447
     38          6           0        5.551209   -1.935483    0.463066
     39          6           0        9.123049   -2.735896    0.768441
     40          6           0        6.023005   -4.219217    0.478859
     41          8           0        6.491069   -5.352112    0.508899
     42          6           0        4.399071   -4.012594    0.389302
     43          6           0        3.775869   -4.784247   -0.692976
     44          8           0        3.668616   -4.479716   -1.874676
     45          8           0        3.483439   -6.046318   -0.282194
     46          6           0        2.665043   -6.864074   -1.199309
     47          6           0       -2.370054   -3.997107   -1.131286
     48          6           0       -3.397368   -2.962800   -1.670388
     49          6           0       -4.761398   -3.026395   -1.433967
     50          6           0       -5.560312   -3.924914   -0.488510
     51          6           0       -5.667315   -1.943058   -1.999163
     52          6           0       -5.753601   -0.556881   -1.238105
     53          6           0       -7.198291   -0.046674   -1.225863
     54          6           0       -8.045750   -0.342143    0.054951
     55          6           0       -9.096998   -1.453096   -0.236327
     56          6           0       -8.721611    0.928410    0.593974
     57          6           0       -8.911179    0.823453    2.106562
     58          6           0      -10.396122    0.596218    2.568450
     59          6           0      -11.090556    1.826258    3.073360
     60          6           0      -10.985799    1.980339    4.651169
     61          6           0      -12.585357    1.948179    2.465707
     62          6           0      -12.678702    2.441433    1.044769
     63          6           0      -13.526549    1.537472    0.146399
     64          6           0      -13.329453    2.033129   -1.369717
     65          6           0      -14.725985    1.921869   -2.213767
     66          6           0      -12.149328    1.319134   -1.999639
     67          1           0        0.636643    1.665901   -1.048282
     68          1           0        5.996852    5.342510   -0.490244
     69          1           0        9.324714    0.180668    0.844037
     70          1           0        1.556415   -3.019662   -0.468527
     71          1           0        0.024952   -0.708649    0.101392
     72          1           0       -0.702832   -1.180069   -1.904107
     73          1           0        0.463007   -2.412301   -2.170686
     74          1           0        0.786523   -0.756538   -2.661938
     75          1           0        0.630738   -1.673550    2.010506
     76          1           0        2.067649   -2.700069    2.103532
     77          1           0       -0.688879   -3.231417    2.367203
     78          1           0        0.498500   -4.541397    2.184280
     79          1           0        0.443455    4.263185   -2.459567
     80          1           0        0.315794    5.275667   -1.065583
     81          1           0       -0.163977    3.577971   -0.838920
     82          1           0        1.402791    6.736936   -2.643744
     83          1           0        2.672737    8.025080   -2.392290
     84          1           0        1.764986    7.554718   -1.049554
     85          1           0        7.820490    4.545458    1.452295
     86          1           0        9.704542    2.652409   -0.027181
     87          1           0        9.348049    5.814801    0.007187
     88          1           0        8.093232    5.438978   -1.264553
     89          1           0        9.578896    4.568014   -1.119541
     90          1           0        9.333043    1.933648    2.694977
     91          1           0        9.071522    3.630667    2.809143
     92          1           0       11.159007    2.652806    3.469350
     93          1           0       11.348373    4.136980    2.414334
     94          1           0       11.650960    2.430702    1.807407
     95          1           0        9.847421   -2.400867    0.026405
     96          1           0        9.090117   -3.815695    0.620575
     97          1           0        9.562667   -2.470875    1.730855
     98          1           0        4.119424   -4.511148    1.317041
     99          1           0        1.740213   -6.359204   -1.479339
    100          1           0        2.433392   -7.669079   -0.502189
    101          1           0        3.211637   -7.164084   -2.093824
    102          1           0       -2.816311   -4.980418   -0.987187
    103          1           0       -1.541002   -4.225898   -1.799598
    104          1           0       -2.970379   -2.286672   -2.410713
    105          1           0       -6.174936   -4.557595   -1.128979
    106          1           0       -6.233583   -3.367003    0.162445
    107          1           0       -4.875747   -4.629615   -0.014643
    108          1           0       -6.691090   -2.273470   -2.175927
    109          1           0       -5.194872   -1.665910   -2.941265
    110          1           0       -5.102283    0.098191   -1.815955
    111          1           0       -5.312210   -0.683251   -0.249847
    112          1           0       -7.817030   -0.501846   -1.999596
    113          1           0       -7.250702    1.011578   -1.482152
    114          1           0       -7.416237   -0.759165    0.841651
    115          1           0       -8.707474   -2.387175    0.167354
    116          1           0       -9.436641   -1.486472   -1.271545
    117          1           0      -10.024780   -1.338477    0.325083
    118          1           0       -9.690630    0.967178    0.095291
    119          1           0       -8.183274    1.857939    0.411172
    120          1           0       -8.516434    1.693661    2.632028
    121          1           0       -8.404675   -0.049128    2.519179
    122          1           0      -10.425233   -0.226801    3.282219
    123          1           0      -10.961968    0.139971    1.755294
    124          1           0      -10.593485    2.681440    2.615749
    125          1           0      -10.050398    1.626369    5.083112
    126          1           0      -11.827044    1.505980    5.156769
    127          1           0      -11.104305    3.032453    4.910233
    128          1           0      -13.167666    2.513374    3.192569
    129          1           0      -13.169200    1.028107    2.437890
    130          1           0      -11.673753    2.289216    0.651006
    131          1           0      -12.882270    3.502149    0.899689
    132          1           0      -14.572755    1.713212    0.397439
    133          1           0      -13.235881    0.493569    0.260937
    134          1           0      -12.917482    3.040973   -1.330721
    135          1           0      -14.653200    1.364583   -3.148376
    136          1           0      -15.085206    2.932011   -2.407922
    137          1           0      -15.500341    1.477889   -1.588305
    138          1           0      -11.588439    0.909797   -1.158555
    139          1           0      -11.473327    1.945319   -2.582623
    140          1           0      -12.509108    0.578725   -2.712569
 ---------------------------------------------------------------------

 SCF Done:  E(RwB97XD) =  -3007.88451918     A.U. after   19 cycles

 Excitation energies and oscillator strengths:

 Excited State   1:      Singlet-A      1.5900 eV  779.76 nm  f=0.3962  <S**2>=0.000
     245 -> 248        0.17454
     246 -> 247        0.68609
     245 <- 248        0.11420
 This state for optimization and/or second-order correction.
 Total Energy, E(TD-HF/TD-DFT) =  -3007.82608668
 Copying the excited state density for this state as the 1-particle RhoCI density.

 Excited State   2:      Singlet-A      2.1852 eV  567.37 nm  f=0.1097  <S**2>=0.000
     245 -> 247        0.63929
     246 -> 248       -0.27467

 Excited State   3:      Singlet-A      3.1469 eV  393.99 nm  f=0.0066  <S**2>=0.000
     244 -> 247        0.66197
     246 -> 248        0.20128

 Excited State   4:      Singlet-A      3.4172 eV  362.83 nm  f=0.0040  <S**2>=0.000
     241 -> 247       -0.18708
     241 -> 249       -0.10696
     242 -> 247        0.53942
     242 -> 249        0.29872
     242 -> 250        0.18353

 Excited State   5:      Singlet-A      3.5304 eV  351.19 nm  f=0.1962  <S**2>=0.000
     241 -> 247        0.17668
     243 -> 247        0.48387
     244 -> 247       -0.12203
     245 -> 247        0.14678
     246 -> 248        0.40733

 The electronic state is 1-A.
 Alpha  occ. eigenvalues --  -46.93111 -19.30432 -19.28182 -19.25395 -19.24360
 Alpha  occ. eigenvalues --  -19.22941 -19.22897 -14.47163 -14.46266 -14.44217
 Alpha  occ. eigenvalues --  -14.43962 -10.43515 -10.41557 -10.39735 -10.38332
 Alpha  occ. eigenvalues --  -10.36344 -10.35474 -10.35426 -10.35307 -10.34773
 Alpha  occ. eigenvalues --  -10.34731 -10.33947 -10.33906 -10.33572 -10.33481
 Alpha  occ. eigenvalues --  -10.33116 -10.32882 -10.32655 -10.32265 -10.32217
 Alpha  occ. eigenvalues --  -10.32151 -10.31814 -10.31683 -10.31665 -10.31554
 Alpha  occ. eigenvalues --  -10.31486 -10.31484 -10.31466 -10.31085 -10.31008
 Alpha  occ. eigenvalues --  -10.30860 -10.30357 -10.30289 -10.30283 -10.30241
 Alpha  occ. eigenvalues --  -10.30087 -10.30086 -10.29986 -10.29907 -10.29782
 Alpha  occ. eigenvalues --  -10.29676 -10.29524 -10.29476 -10.29294 -10.29291
 Alpha  occ. eigenvalues --  -10.29154 -10.29146 -10.29141 -10.29039 -10.28982
 Alpha  occ. eigenvalues --  -10.28914 -10.28912 -10.28784 -10.28769 -10.28512
 Alpha  occ. eigenvalues --  -10.28355  -3.19431  -1.93013  -1.92591  -1.92419
 Alpha  occ. eigenvalues --   -1.19008  -1.17055  -1.11828  -1.11461  -1.10322
 Alpha  occ. eigenvalues --   -1.07684  -1.05657  -1.04723  -1.03931  -1.02363
 Alpha  occ. eigenvalues --   -0.94331  -0.92647  -0.91850  -0.91597  -0.90787
 Alpha  occ. eigenvalues --   -0.90746  -0.90019  -0.89158  -0.88984  -0.88518
 Alpha  occ. eigenvalues --   -0.88074  -0.87270  -0.86208  -0.85413  -0.85014
 Alpha  occ. eigenvalues --   -0.84439  -0.83789  -0.83075  -0.82717  -0.82196
 Alpha  occ. eigenvalues --   -0.81869  -0.80212  -0.80067  -0.78702  -0.78182
 Alpha  occ. eigenvalues --   -0.77636  -0.77520  -0.77177  -0.76892  -0.76182
 Alpha  occ. eigenvalues --   -0.75150  -0.74439  -0.73729  -0.72619  -0.71192
 Alpha  occ. eigenvalues --   -0.70660  -0.70559  -0.69378  -0.68853  -0.67540
 Alpha  occ. eigenvalues --   -0.67399  -0.67282  -0.66895  -0.66333  -0.65932
 Alpha  occ. eigenvalues --   -0.65750  -0.65226  -0.64563  -0.62975  -0.62238
 Alpha  occ. eigenvalues --   -0.61500  -0.61450  -0.60733  -0.59989  -0.59624
 Alpha  occ. eigenvalues --   -0.58978  -0.58702  -0.58252  -0.57828  -0.57003
 Alpha  occ. eigenvalues --   -0.56954  -0.56570  -0.56358  -0.55823  -0.55603
 Alpha  occ. eigenvalues --   -0.55423  -0.55259  -0.55037  -0.54727  -0.54643
 Alpha  occ. eigenvalues --   -0.54571  -0.54387  -0.54203  -0.53981  -0.53759
 Alpha  occ. eigenvalues --   -0.53506  -0.53381  -0.53204  -0.52661  -0.52653
 Alpha  occ. eigenvalues --   -0.52481  -0.52276  -0.51850  -0.51475  -0.51362
 Alpha  occ. eigenvalues --   -0.51169  -0.50838  -0.50721  -0.50653  -0.50421
 Alpha  occ. eigenvalues --   -0.50281  -0.50121  -0.50022  -0.49801  -0.49521
 Alpha  occ. eigenvalues --   -0.49265  -0.49060  -0.48912  -0.48688  -0.48501
 Alpha  occ. eigenvalues --   -0.48327  -0.48257  -0.48058  -0.47844  -0.47504
 Alpha  occ. eigenvalues --   -0.47243  -0.47043  -0.46943  -0.46915  -0.46654
 Alpha  occ. eigenvalues --   -0.46488  -0.46432  -0.46377  -0.46003  -0.45945
 Alpha  occ. eigenvalues --   -0.45685  -0.45672  -0.45507  -0.45249  -0.45233
 Alpha  occ. eigenvalues --   -0.45158  -0.44648  -0.44398  -0.44213  -0.44107
 Alpha  occ. eigenvalues --   -0.44006  -0.43857  -0.43278  -0.43100  -0.43024
 Alpha  occ. eigenvalues --   -0.42909  -0.42842  -0.42658  -0.42466  -0.41811
 Alpha  occ. eigenvalues --   -0.41637  -0.41447  -0.41312  -0.40995  -0.40590
 Alpha  occ. eigenvalues --   -0.40393  -0.39994  -0.39835  -0.39497  -0.39389
 Alpha  occ. eigenvalues --   -0.39290  -0.39240  -0.39170  -0.38878  -0.38270
 Alpha  occ. eigenvalues --   -0.37760  -0.37160  -0.36949  -0.36762  -0.36315
 Alpha  occ. eigenvalues --   -0.36232  -0.35615  -0.34568  -0.33740  -0.32837
 Alpha  occ. eigenvalues --   -0.32602  -0.32504  -0.32012  -0.31449  -0.26406
 Alpha  occ. eigenvalues --   -0.22969
 Alpha virt. eigenvalues --   -0.07384   0.00248   0.02076   0.04140   0.05121
 Alpha virt. eigenvalues --    0.06758   0.06968   0.07455   0.08054   0.09452
 Alpha virt. eigenvalues --    0.11072   0.11182   0.11502   0.11943   0.12657

 Mulliken charges:
               1
     1  Mg   1.001453
     2  C    0.028485
     3  C   -0.074491
     4  C   -0.094886
     5  C   -0.088904
     6  N   -0.303558
     7  C   -0.013171
     8  C   -0.115178
     9  C   -0.093323
    10  C    0.066689
    11  C    0.014244
    12  C    0.056661
    13  C    0.052779
    14  C    0.165862
    15  O   -0.264939
    16  O   -0.360751
    17  N   -0.520951
    18  C    0.182909
    19  C   -0.167936
    20  C   -0.026569
    21  C    0.196160
    22  C    0.061661
    23  C   -0.016607
    24  O   -0.255957
    25  C   -0.005175
    26  N   -0.492749
    27  C    0.091959
    28  C   -0.067339
    29  C   -0.084155
    30  C    0.102306
    31  C    0.010510
    32  C   -0.030153
    33  C   -0.032725
    34  N   -0.447662
    35  C    0.153898
    36  C   -0.192047
    37  C   -0.018549
    38  C    0.107349
    39  C    0.066676
    40  C    0.123704
    41  O   -0.192434
    42  C   -0.083091
    43  C    0.249651
    44  O   -0.264163
    45  O   -0.363086
    46  C    0.145800
    47  C    0.201051
    48  C   -0.114611
    49  C   -0.170112
    50  C    0.043066
    51  C   -0.019000
    52  C    0.005271
    53  C    0.029416
    54  C   -0.204932
    55  C   -0.008586
    56  C    0.033554
    57  C   -0.035464
    58  C    0.005415
    59  C   -0.161206
    60  C   -0.004551
    61  C    0.028991
    62  C   -0.046142
    63  C   -0.019195
    64  C   -0.223572
    65  C   -0.006623
    66  C    0.004697
    67  H   -0.010052
    68  H    0.025796
    69  H   -0.001824
    70  H    0.051160
    71  H    0.036081
    72  H    0.019320
    73  H    0.052213
    74  H    0.035792
    75  H    0.028732
    76  H    0.035537
    77  H    0.047541
    78  H    0.055439
    79  H    0.065049
    80  H    0.044872
    81  H    0.063999
    82  H    0.050673
    83  H    0.050089
    84  H    0.057992
    85  H    0.053369
    86  H    0.043860
    87  H    0.038086
    88  H    0.054137
    89  H    0.028973
    90  H    0.027290
    91  H    0.022073
    92  H    0.038867
    93  H    0.048746
    94  H    0.032694
    95  H    0.036756
    96  H    0.057610
    97  H    0.043148
    98  H    0.075513
    99  H    0.060948
   100  H    0.051869
   101  H    0.058315
   102  H    0.046524
   103  H    0.040350
   104  H    0.035389
   105  H    0.047052
   106  H    0.058586
   107  H    0.034631
   108  H    0.025986
   109  H    0.027665
   110  H    0.025227
   111  H    0.032551
   112  H    0.005935
   113  H    0.016261
   114  H    0.017112
   115  H    0.028005
   116  H    0.038223
   117  H    0.016185
   118  H    0.017781
   119  H    0.021617
   120  H    0.023205
   121  H    0.015044
   122  H    0.008468
   123  H   -0.007118
   124  H    0.021609
   125  H    0.035093
   126  H    0.030605
   127  H    0.026119
   128  H    0.004292
   129  H    0.006502
   130  H   -0.007981
   131  H    0.031822
   132  H    0.025884
   133  H    0.031647
   134  H    0.027316
   135  H    0.034724
   136  H    0.034286
   137  H    0.027716
   138  H    0.018251
   139  H    0.028901
   140  H    0.022200
 Sum of Mulliken charges =  -0.00000

 Dipole moment (field-independent basis, Debye):
    X=             -6.0894    Y=              3.7674    Z=              2.2511  Tot=              7.5061
 Quadrupole moment (field-independent basis, Debye-Ang):
   XX=           -371.9834   YY=           -433.9467   ZZ=           -400.7829
   XY=             28.4608   XZ=             20.3740   YZ=              0.0402

 Normal termination of Gaussian 16 at Sat Apr 30 19:27:57 2022.
