 Gaussian 16, Revision A.03,
 Gaussian 16:  ES64L-G16RevA.03 25-Dec-2016

 --------------------
 #p ZINDO=(nstates=5)
 --------------------

 -----------------------------
 step_851_chromophore_21 ZINDO
 -----------------------------
 Symbolic Z-matrix:
 Charge =  0 Multiplicity = 1

                         Standard orientation:
 ---------------------------------------------------------------------
 Center     Atomic      Atomic             Coordinates (Angstroms)
 Number     Number       Type             X           Y           Z
 ---------------------------------------------------------------------
      1         12           0        4.974204    1.107883    0.172276
      2          6           0        4.274852   -2.491529    0.330816
      3          6           0        1.675560    1.471730   -0.776060
      4          6           0        5.655020    4.307802   -0.421110
      5          6           0        8.271588    0.385097    0.640567
      6          7           0        3.152561   -0.318062    0.057650
      7          6           0        3.136022   -1.684010    0.212553
      8          6           0        1.672902   -2.159645    0.191025
      9          6           0        0.902794   -1.001613   -0.475381
     10          6           0        1.973375    0.148851   -0.423507
     11          6           0        0.369176   -1.370783   -1.863488
     12          6           0        1.142107   -2.522179    1.556220
     13          6           0        0.083810   -3.647164    1.719411
     14          6           0       -0.593384   -4.250382    0.471948
     15          8           0       -0.207033   -5.222769   -0.145125
     16          8           0       -1.635045   -3.475804    0.059157
     17          7           0        3.777882    2.694162   -0.417868
     18          6           0        2.423527    2.628230   -0.844007
     19          6           0        1.987341    3.948096   -1.130778
     20          6           0        3.145830    4.856251   -1.123461
     21          6           0        4.295012    3.995869   -0.654500
     22          6           0        0.511461    4.247628   -1.371388
     23          6           0        3.307042    6.238753   -1.526764
     24          8           0        4.404992    6.789717   -1.451514
     25          6           0        2.161601    7.153427   -1.981890
     26          7           0        6.577524    2.174642    0.303048
     27          6           0        6.701852    3.514637    0.072029
     28          6           0        8.047789    4.072118    0.496617
     29          6           0        9.001106    2.814200    0.790495
     30          6           0        7.875925    1.684385    0.627182
     31          6           0        8.795784    5.044478   -0.529243
     32          6           0        9.578970    2.876462    2.206568
     33          6           0       11.081403    3.081478    2.470305
     34          7           0        6.066066   -0.618521    0.476960
     35          6           0        7.412590   -0.743143    0.544745
     36          6           0        7.792937   -2.148293    0.635440
     37          6           0        6.605711   -2.888967    0.517447
     38          6           0        5.551209   -1.935483    0.463066
     39          6           0        9.123049   -2.735896    0.768441
     40          6           0        6.023005   -4.219217    0.478859
     41          8           0        6.491069   -5.352112    0.508899
     42          6           0        4.399071   -4.012594    0.389302
     43          6           0        3.775869   -4.784247   -0.692976
     44          8           0        3.668616   -4.479716   -1.874676
     45          8           0        3.483439   -6.046318   -0.282194
     46          6           0        2.665043   -6.864074   -1.199309
     47          6           0       -2.370054   -3.997107   -1.131286
     48          6           0       -3.397368   -2.962800   -1.670388
     49          6           0       -4.761398   -3.026395   -1.433967
     50          6           0       -5.560312   -3.924914   -0.488510
     51          6           0       -5.667315   -1.943058   -1.999163
     52          6           0       -5.753601   -0.556881   -1.238105
     53          6           0       -7.198291   -0.046674   -1.225863
     54          6           0       -8.045750   -0.342143    0.054951
     55          6           0       -9.096998   -1.453096   -0.236327
     56          6           0       -8.721611    0.928410    0.593974
     57          6           0       -8.911179    0.823453    2.106562
     58          6           0      -10.396122    0.596218    2.568450
     59          6           0      -11.090556    1.826258    3.073360
     60          6           0      -10.985799    1.980339    4.651169
     61          6           0      -12.585357    1.948179    2.465707
     62          6           0      -12.678702    2.441433    1.044769
     63          6           0      -13.526549    1.537472    0.146399
     64          6           0      -13.329453    2.033129   -1.369717
     65          6           0      -14.725985    1.921869   -2.213767
     66          6           0      -12.149328    1.319134   -1.999639
     67          1           0        0.636643    1.665901   -1.048282
     68          1           0        5.996852    5.342510   -0.490244
     69          1           0        9.324714    0.180668    0.844037
     70          1           0        1.556415   -3.019662   -0.468527
     71          1           0        0.024952   -0.708649    0.101392
     72          1           0       -0.702832   -1.180069   -1.904107
     73          1           0        0.463007   -2.412301   -2.170686
     74          1           0        0.786523   -0.756538   -2.661938
     75          1           0        0.630738   -1.673550    2.010506
     76          1           0        2.067649   -2.700069    2.103532
     77          1           0       -0.688879   -3.231417    2.367203
     78          1           0        0.498500   -4.541397    2.184280
     79          1           0        0.443455    4.263185   -2.459567
     80          1           0        0.315794    5.275667   -1.065583
     81          1           0       -0.163977    3.577971   -0.838920
     82          1           0        1.402791    6.736936   -2.643744
     83          1           0        2.672737    8.025080   -2.392290
     84          1           0        1.764986    7.554718   -1.049554
     85          1           0        7.820490    4.545458    1.452295
     86          1           0        9.704542    2.652409   -0.027181
     87          1           0        9.348049    5.814801    0.007187
     88          1           0        8.093232    5.438978   -1.264553
     89          1           0        9.578896    4.568014   -1.119541
     90          1           0        9.333043    1.933648    2.694977
     91          1           0        9.071522    3.630667    2.809143
     92          1           0       11.159007    2.652806    3.469350
     93          1           0       11.348373    4.136980    2.414334
     94          1           0       11.650960    2.430702    1.807407
     95          1           0        9.847421   -2.400867    0.026405
     96          1           0        9.090117   -3.815695    0.620575
     97          1           0        9.562667   -2.470875    1.730855
     98          1           0        4.119424   -4.511148    1.317041
     99          1           0        1.740213   -6.359204   -1.479339
    100          1           0        2.433392   -7.669079   -0.502189
    101          1           0        3.211637   -7.164084   -2.093824
    102          1           0       -2.816311   -4.980418   -0.987187
    103          1           0       -1.541002   -4.225898   -1.799598
    104          1           0       -2.970379   -2.286672   -2.410713
    105          1           0       -6.174936   -4.557595   -1.128979
    106          1           0       -6.233583   -3.367003    0.162445
    107          1           0       -4.875747   -4.629615   -0.014643
    108          1           0       -6.691090   -2.273470   -2.175927
    109          1           0       -5.194872   -1.665910   -2.941265
    110          1           0       -5.102283    0.098191   -1.815955
    111          1           0       -5.312210   -0.683251   -0.249847
    112          1           0       -7.817030   -0.501846   -1.999596
    113          1           0       -7.250702    1.011578   -1.482152
    114          1           0       -7.416237   -0.759165    0.841651
    115          1           0       -8.707474   -2.387175    0.167354
    116          1           0       -9.436641   -1.486472   -1.271545
    117          1           0      -10.024780   -1.338477    0.325083
    118          1           0       -9.690630    0.967178    0.095291
    119          1           0       -8.183274    1.857939    0.411172
    120          1           0       -8.516434    1.693661    2.632028
    121          1           0       -8.404675   -0.049128    2.519179
    122          1           0      -10.425233   -0.226801    3.282219
    123          1           0      -10.961968    0.139971    1.755294
    124          1           0      -10.593485    2.681440    2.615749
    125          1           0      -10.050398    1.626369    5.083112
    126          1           0      -11.827044    1.505980    5.156769
    127          1           0      -11.104305    3.032453    4.910233
    128          1           0      -13.167666    2.513374    3.192569
    129          1           0      -13.169200    1.028107    2.437890
    130          1           0      -11.673753    2.289216    0.651006
    131          1           0      -12.882270    3.502149    0.899689
    132          1           0      -14.572755    1.713212    0.397439
    133          1           0      -13.235881    0.493569    0.260937
    134          1           0      -12.917482    3.040973   -1.330721
    135          1           0      -14.653200    1.364583   -3.148376
    136          1           0      -15.085206    2.932011   -2.407922
    137          1           0      -15.500341    1.477889   -1.588305
    138          1           0      -11.588439    0.909797   -1.158555
    139          1           0      -11.473327    1.945319   -2.582623
    140          1           0      -12.509108    0.578725   -2.712569
 ---------------------------------------------------------------------

 SCF Done:  E(RZINDO/S) =  -474.004430603     A.U. after   19 cycles

 Excitation energies and oscillator strengths:

 Excited State   1:      Singlet-A      1.2024 eV 1031.13 nm  f=0.6127  <S**2>=0.000
     175 ->178        -0.17714
     176 ->177         0.66655
 This state for optimization and/or second-order correction.
 Total Energy, E(CIS/TDA) =  -473.960242698
 Copying the excited state density for this state as the 1-particle RhoCI density.

 Excited State   2:      Singlet-A      1.9964 eV  621.04 nm  f=0.0369  <S**2>=0.000
     175 ->177         0.53681
     176 ->178         0.43466

 Excited State   3:      Singlet-A      2.8677 eV  432.34 nm  f=0.0031  <S**2>=0.000
     169 ->177         0.20500
     169 ->179        -0.23408
     169 ->180         0.13675
     169 ->186        -0.12147
     170 ->177         0.31219
     170 ->179        -0.34241
     170 ->180         0.20404
     170 ->186        -0.17709
     170 ->187        -0.13523

 Excited State   4:      Singlet-A      2.9667 eV  417.93 nm  f=0.7033  <S**2>=0.000
     175 ->177        -0.31134
     176 ->178         0.41818
     176 ->179         0.38283
     176 ->180         0.17261

 Excited State   5:      Singlet-A      3.0312 eV  409.02 nm  f=0.0331  <S**2>=0.000
     169 ->177         0.21610
     169 ->178         0.13655
     169 ->179         0.20760
     169 ->180         0.26271
     169 ->186         0.12337
     170 ->177        -0.15148
     170 ->179        -0.14679
     170 ->180        -0.18051
     173 ->177        -0.15642
     174 ->177        -0.15010
     176 ->178        -0.10211
     176 ->179         0.26855

 The electronic state is 1-A.
 Alpha  occ. eigenvalues --   -1.82131  -1.79298  -1.77401  -1.73212  -1.72149
 Alpha  occ. eigenvalues --   -1.68374  -1.66650  -1.60841  -1.59369  -1.57060
 Alpha  occ. eigenvalues --   -1.54236  -1.49901  -1.48053  -1.47191  -1.46697
 Alpha  occ. eigenvalues --   -1.44544  -1.42083  -1.39540  -1.38269  -1.37789
 Alpha  occ. eigenvalues --   -1.35424  -1.33576  -1.32561  -1.31777  -1.28991
 Alpha  occ. eigenvalues --   -1.26051  -1.24496  -1.21447  -1.20478  -1.18315
 Alpha  occ. eigenvalues --   -1.17749  -1.16423  -1.15888  -1.15197  -1.12761
 Alpha  occ. eigenvalues --   -1.12317  -1.11081  -1.10388  -1.04531  -1.03412
 Alpha  occ. eigenvalues --   -1.02283  -1.00982  -0.99110  -0.97662  -0.95842
 Alpha  occ. eigenvalues --   -0.95083  -0.94880  -0.94263  -0.93001  -0.92532
 Alpha  occ. eigenvalues --   -0.91455  -0.90608  -0.90439  -0.88234  -0.86517
 Alpha  occ. eigenvalues --   -0.85892  -0.83389  -0.83327  -0.82032  -0.79984
 Alpha  occ. eigenvalues --   -0.79391  -0.78422  -0.77122  -0.76586  -0.76045
 Alpha  occ. eigenvalues --   -0.75480  -0.75006  -0.74187  -0.74069  -0.73159
 Alpha  occ. eigenvalues --   -0.72762  -0.72446  -0.72079  -0.71297  -0.70530
 Alpha  occ. eigenvalues --   -0.70149  -0.69859  -0.69282  -0.68623  -0.68180
 Alpha  occ. eigenvalues --   -0.66745  -0.66535  -0.66237  -0.65683  -0.65313
 Alpha  occ. eigenvalues --   -0.64923  -0.64585  -0.64480  -0.63599  -0.63324
 Alpha  occ. eigenvalues --   -0.63225  -0.62520  -0.62396  -0.62219  -0.61796
 Alpha  occ. eigenvalues --   -0.61329  -0.60880  -0.60441  -0.60030  -0.59751
 Alpha  occ. eigenvalues --   -0.59416  -0.59267  -0.58643  -0.58094  -0.57910
 Alpha  occ. eigenvalues --   -0.57834  -0.57678  -0.57254  -0.56774  -0.56574
 Alpha  occ. eigenvalues --   -0.56225  -0.56006  -0.55408  -0.55146  -0.54766
 Alpha  occ. eigenvalues --   -0.54721  -0.54347  -0.53819  -0.53509  -0.53150
 Alpha  occ. eigenvalues --   -0.52752  -0.52459  -0.51856  -0.51748  -0.51449
 Alpha  occ. eigenvalues --   -0.51209  -0.51046  -0.50905  -0.50640  -0.50453
 Alpha  occ. eigenvalues --   -0.50315  -0.49986  -0.49618  -0.49348  -0.48801
 Alpha  occ. eigenvalues --   -0.48612  -0.48238  -0.48116  -0.47751  -0.47743
 Alpha  occ. eigenvalues --   -0.47193  -0.46994  -0.46665  -0.46434  -0.46362
 Alpha  occ. eigenvalues --   -0.46049  -0.45996  -0.45851  -0.45604  -0.45252
 Alpha  occ. eigenvalues --   -0.45093  -0.44824  -0.44425  -0.44214  -0.44195
 Alpha  occ. eigenvalues --   -0.44004  -0.43703  -0.43310  -0.42451  -0.42002
 Alpha  occ. eigenvalues --   -0.41978  -0.41448  -0.40647  -0.39250  -0.39103
 Alpha  occ. eigenvalues --   -0.37591  -0.37103  -0.34973  -0.34918  -0.34791
 Alpha  occ. eigenvalues --   -0.33025  -0.32882  -0.32733  -0.32052  -0.27118
 Alpha  occ. eigenvalues --   -0.21756
 Alpha virt. eigenvalues --   -0.08737  -0.02017  -0.00565   0.01345   0.01786
 Alpha virt. eigenvalues --    0.02637   0.03099   0.03360   0.03866   0.05332
 Alpha virt. eigenvalues --    0.06493   0.06895   0.07053   0.07894   0.08514

 Mulliken charges:
               1
     1  Mg   0.418184
     2  C   -0.009523
     3  C   -0.048982
     4  C   -0.081316
     5  C   -0.067725
     6  N   -0.261186
     7  C    0.103611
     8  C    0.007073
     9  C    0.005089
    10  C    0.136254
    11  C   -0.050686
    12  C   -0.015096
    13  C    0.003045
    14  C    0.469763
    15  O   -0.513258
    16  O   -0.273636
    17  N   -0.360867
    18  C    0.106773
    19  C    0.041522
    20  C   -0.058679
    21  C    0.162731
    22  C   -0.043195
    23  C    0.327413
    24  O   -0.542907
    25  C   -0.037960
    26  N   -0.283697
    27  C    0.180843
    28  C    0.002322
    29  C   -0.008950
    30  C    0.097891
    31  C   -0.056492
    32  C   -0.029001
    33  C   -0.058905
    34  N   -0.316903
    35  C    0.107021
    36  C    0.016696
    37  C   -0.048779
    38  C    0.076316
    39  C   -0.035266
    40  C    0.335519
    41  O   -0.511668
    42  C    0.053184
    43  C    0.491041
    44  O   -0.529193
    45  O   -0.268871
    46  C    0.076293
    47  C    0.092903
    48  C   -0.099985
    49  C    0.008330
    50  C   -0.040739
    51  C   -0.033922
    52  C   -0.026623
    53  C   -0.037034
    54  C   -0.010596
    55  C   -0.061583
    56  C   -0.027871
    57  C   -0.039890
    58  C   -0.032537
    59  C   -0.008506
    60  C   -0.057791
    61  C   -0.041053
    62  C   -0.033805
    63  C   -0.033661
    64  C   -0.029454
    65  C   -0.063624
    66  C   -0.058706
    67  H    0.018992
    68  H    0.041794
    69  H    0.025926
    70  H    0.039725
    71  H    0.027511
    72  H    0.010242
    73  H    0.033753
    74  H    0.019876
    75  H    0.020545
    76  H    0.025843
    77  H    0.032433
    78  H    0.037851
    79  H    0.039522
    80  H    0.022230
    81  H    0.039343
    82  H    0.035506
    83  H    0.038541
    84  H    0.039454
    85  H    0.043960
    86  H    0.043267
    87  H    0.021984
    88  H    0.031210
    89  H    0.019695
    90  H    0.014787
    91  H    0.018087
    92  H    0.020126
    93  H    0.029178
    94  H    0.022246
    95  H    0.022700
    96  H    0.031448
    97  H    0.027996
    98  H    0.057985
    99  H    0.049926
   100  H    0.029925
   101  H    0.052497
   102  H    0.047326
   103  H    0.045152
   104  H    0.039545
   105  H    0.026612
   106  H    0.039321
   107  H    0.024252
   108  H    0.026665
   109  H    0.014000
   110  H    0.018902
   111  H    0.025731
   112  H    0.018466
   113  H    0.014649
   114  H    0.020589
   115  H    0.016836
   116  H    0.026705
   117  H    0.011797
   118  H    0.023590
   119  H    0.018354
   120  H    0.018008
   121  H    0.014448
   122  H    0.011478
   123  H    0.012869
   124  H    0.017846
   125  H    0.024680
   126  H    0.019911
   127  H    0.012167
   128  H    0.010261
   129  H    0.017257
   130  H    0.010104
   131  H    0.027814
   132  H    0.016892
   133  H    0.031181
   134  H    0.024428
   135  H    0.026976
   136  H    0.016885
   137  H    0.019880
   138  H    0.021283
   139  H    0.013834
   140  H    0.017506
 Sum of Mulliken charges =  -0.00000

 Dipole moment (field-independent basis, Debye):
    X=             -8.5134    Y=              4.8806    Z=              3.2983  Tot=             10.3527
 N-N= 4.356953413767D+03 E-N= 0.000000000000D+00  KE=-9.388167347640D+03
 Leave Link  601 at Sat Apr 30 19:45:42 2022, MaxMem=  6710886400 cpu:               0.7 elap:               0.0
 (Enter /sw/apps/gaussian-16.0/g16/l9999.exe)
 1\1\GINC-BP1-COMPUTE137\SP\RZINDO CIS\STO-3G\C55H74Mg1N4O6\OF15641\30-
 Apr-2022\0\\#p ZINDO=(nstates=5)\\step_851_chromophore_21 ZINDO\\0,1\M
 g,0,16.063,51.525,25.829\C,0,17.911,50.472,28.82\C,0,13.404,52.093,27.
 955\C,0,14.208,52.06,23.122\C,0,18.676,50.411,23.946\N,0,15.798,51.529
 ,28.13\C,0,16.696,51.117,29.086\C,0,16.118,51.448,30.473\C,0,14.608,51
 .638,30.224\C,0,14.567,51.748,28.656\C,0,13.763,50.523,30.849\C,0,16.7
 71,52.643,31.123\C,0,16.921,52.719,32.667\C,0,16.21,51.681,33.559\O,0,

 Normal termination of Gaussian 16 at Sat Apr 30 19:45:42 2022.
