 Gaussian 16, Revision A.03,
 Gaussian 16:  ES64L-G16RevA.03 25-Dec-2016

 ------------------------------
 #p blyp/Def2SVP td=(nstates=5)
 ------------------------------

 --------------------------------------------------
 step_1251_chromophore_1 TDDFT with blyp functional
 --------------------------------------------------
 Symbolic Z-matrix:
 Charge =  0 Multiplicity = 1

                         Standard orientation:
 ---------------------------------------------------------------------
 Center     Atomic      Atomic             Coordinates (Angstroms)
 Number     Number       Type             X           Y           Z
 ---------------------------------------------------------------------
      1         12           0        5.900531    0.411647   -0.033814
      2          6           0        3.589124   -2.328385   -0.604695
      3          6           0        3.695742    2.514323   -1.551503
      4          6           0        8.194377    2.795714    0.309850
      5          6           0        8.312859   -1.963086    0.993896
      6          7           0        3.914455    0.113393   -0.862742
      7          6           0        3.098703   -1.014795   -0.957408
      8          6           0        1.618771   -0.630512   -1.296566
      9          6           0        1.801344    0.796913   -1.890062
     10          6           0        3.203036    1.153567   -1.458750
     11          6           0        1.727001    0.909518   -3.429341
     12          6           0        0.475569   -0.732141   -0.326103
     13          6           0       -0.937385   -0.403575   -0.899113
     14          6           0       -1.912423   -1.539791   -0.996522
     15          8           0       -1.956341   -2.456723   -1.816052
     16          8           0       -2.790542   -1.449468    0.045827
     17          7           0        5.869306    2.434853   -0.449199
     18          6           0        4.887883    3.128499   -1.074533
     19          6           0        5.204159    4.456052   -1.104827
     20          6           0        6.477798    4.647712   -0.505240
     21          6           0        6.916449    3.242795   -0.193566
     22          6           0        4.264404    5.479530   -1.785125
     23          6           0        7.284453    5.928398   -0.268762
     24          8           0        8.497198    5.853482    0.015614
     25          6           0        6.713418    7.346283   -0.345335
     26          7           0        7.995005    0.412610    0.494809
     27          6           0        8.773776    1.517950    0.396931
     28          6           0       10.202688    1.279194    0.720999
     29          6           0       10.181571   -0.016265    1.395818
     30          6           0        8.737933   -0.605207    0.944810
     31          6           0       11.153164    1.488017   -0.494430
     32          6           0       10.283463   -0.208804    2.918132
     33          6           0        9.622959    0.678306    3.993589
     34          7           0        5.993327   -1.673240    0.223271
     35          6           0        7.020443   -2.467316    0.527017
     36          6           0        6.641710   -3.891884    0.565804
     37          6           0        5.343590   -3.892424    0.167976
     38          6           0        4.962147   -2.519252   -0.098338
     39          6           0        7.558477   -5.119740    0.614025
     40          6           0        4.165251   -4.728452   -0.199499
     41          8           0        4.064648   -5.920678   -0.360988
     42          6           0        3.035143   -3.732173   -0.746812
     43          6           0        1.856889   -4.099522    0.021114
     44          8           0        1.552050   -3.540174    1.115030
     45          8           0        1.186541   -5.161466   -0.625018
     46          6           0       -0.099043   -5.389727    0.100434
     47          6           0       -3.854656   -2.453985    0.117302
     48          6           0       -5.166448   -1.805334   -0.222771
     49          6           0       -6.378107   -2.294634   -0.369254
     50          6           0       -6.581300   -3.789884   -0.286620
     51          6           0       -7.684886   -1.455631   -0.633006
     52          6           0       -8.345402   -0.494289    0.422063
     53          6           0       -8.830382    0.916694   -0.009585
     54          6           0       -8.507755    2.033877    1.065163
     55          6           0       -7.113412    2.468302    1.171391
     56          6           0       -9.303560    1.652967    2.358077
     57          6           0      -10.515749    2.600088    2.641683
     58          6           0      -11.648308    1.896168    3.352428
     59          6           0      -12.946375    1.742670    2.513200
     60          6           0      -13.989357    1.017655    3.341713
     61          6           0      -12.700342    0.709025    1.257522
     62          6           0      -12.945301    1.577328    0.053811
     63          6           0      -12.678269    0.788965   -1.250650
     64          6           0      -13.742788    1.017228   -2.271267
     65          6           0      -15.029362    0.381217   -1.772213
     66          6           0      -13.379842    0.594716   -3.734129
     67          1           0        2.975710    3.247703   -1.919764
     68          1           0        8.967615    3.555796    0.439802
     69          1           0        9.033418   -2.661060    1.425491
     70          1           0        1.513298   -1.296242   -2.153180
     71          1           0        1.071109    1.453269   -1.417764
     72          1           0        2.685294    1.179832   -3.872196
     73          1           0        1.144056    1.777682   -3.734943
     74          1           0        1.443350   -0.011457   -3.938061
     75          1           0        0.655591   -0.142894    0.573263
     76          1           0        0.383128   -1.705974    0.153637
     77          1           0       -0.820516   -0.146127   -1.951369
     78          1           0       -1.475782    0.365992   -0.345129
     79          1           0        3.443889    5.848189   -1.169269
     80          1           0        3.835672    4.917393   -2.615801
     81          1           0        4.916060    6.240551   -2.214848
     82          1           0        7.461247    8.042318    0.034517
     83          1           0        5.890266    7.413671    0.366177
     84          1           0        6.402190    7.404128   -1.388795
     85          1           0       10.509542    1.991348    1.487251
     86          1           0       10.973342   -0.585755    0.908534
     87          1           0       10.665643    1.915058   -1.371166
     88          1           0       11.664912    0.556296   -0.736156
     89          1           0       11.912007    2.193603   -0.157257
     90          1           0       11.349734   -0.175078    3.141713
     91          1           0        9.904250   -1.212929    3.108386
     92          1           0       10.265623    1.447761    4.420840
     93          1           0        9.151980   -0.019822    4.685052
     94          1           0        8.878517    1.239854    3.429772
     95          1           0        7.777945   -5.357746    1.654710
     96          1           0        8.480569   -4.865914    0.090562
     97          1           0        7.031101   -5.992471    0.228817
     98          1           0        2.834872   -3.922148   -1.801374
     99          1           0       -0.051993   -5.923994    1.050637
    100          1           0       -0.627718   -5.996990   -0.633351
    101          1           0       -0.635545   -4.443821    0.171930
    102          1           0       -3.978650   -2.808858    1.140036
    103          1           0       -3.842547   -3.309340   -0.557373
    104          1           0       -5.091095   -0.737328   -0.426185
    105          1           0       -6.582660   -4.198757   -1.296918
    106          1           0       -7.536090   -4.171807    0.074523
    107          1           0       -5.854027   -4.351096    0.299131
    108          1           0       -8.462246   -2.100642   -1.042684
    109          1           0       -7.417085   -0.854149   -1.501909
    110          1           0       -7.521558   -0.511851    1.137436
    111          1           0       -9.097750   -1.033861    0.996614
    112          1           0       -9.917131    0.838231    0.023125
    113          1           0       -8.491717    1.144751   -1.020717
    114          1           0       -9.058624    2.825062    0.557892
    115          1           0       -6.315664    1.935391    0.655034
    116          1           0       -6.848415    2.254623    2.206401
    117          1           0       -7.210858    3.541875    1.007973
    118          1           0       -8.648238    1.713289    3.227292
    119          1           0       -9.643785    0.622945    2.244879
    120          1           0      -10.880940    3.004045    1.697111
    121          1           0      -10.221310    3.438010    3.273007
    122          1           0      -11.939760    2.410549    4.267214
    123          1           0      -11.370083    0.944052    3.805855
    124          1           0      -13.206598    2.796986    2.417151
    125          1           0      -13.699723   -0.019966    3.505299
    126          1           0      -14.973434    1.189454    2.904402
    127          1           0      -14.028214    1.508345    4.314534
    128          1           0      -13.554262    0.030993    1.265673
    129          1           0      -11.718499    0.262191    1.101879
    130          1           0      -12.270365    2.426664    0.158147
    131          1           0      -13.944119    2.012364    0.070424
    132          1           0      -12.563763   -0.255277   -0.958525
    133          1           0      -11.716809    1.095139   -1.662216
    134          1           0      -14.015565    2.072450   -2.289165
    135          1           0      -14.792441   -0.540605   -1.241525
    136          1           0      -15.702306    0.155058   -2.599793
    137          1           0      -15.609961    1.119484   -1.217685
    138          1           0      -14.162759   -0.044371   -4.143962
    139          1           0      -12.449171    0.028235   -3.763863
    140          1           0      -13.194644    1.587669   -4.144016
 ---------------------------------------------------------------------

 SCF Done:  E(RB-LYP) =  -3007.32293099     A.U. after   22 cycles

 Excitation energies and oscillator strengths:

 Excited State   1:      Singlet-A      1.7494 eV  708.73 nm  f=0.2296  <S**2>=0.000
     244 -> 247        0.27719
     245 -> 247       -0.10456
     245 -> 248       -0.17750
     246 -> 247        0.62797
     246 <- 247       -0.13592
 This state for optimization and/or second-order correction.
 Total Energy, E(TD-HF/TD-DFT) =  -3007.25864253
 Copying the excited state density for this state as the 1-particle RhoCI density.

 Excited State   2:      Singlet-A      1.7971 eV  689.90 nm  f=0.0674  <S**2>=0.000
     244 -> 247        0.61739
     245 -> 247       -0.17082
     246 -> 247       -0.28681

 Excited State   3:      Singlet-A      1.9850 eV  624.59 nm  f=0.0853  <S**2>=0.000
     244 -> 247        0.19745
     245 -> 247        0.61821
     246 -> 248        0.25705

 Excited State   4:      Singlet-A      2.2083 eV  561.46 nm  f=0.0020  <S**2>=0.000
     243 -> 247        0.70361

 Excited State   5:      Singlet-A      2.3856 eV  519.73 nm  f=0.0000  <S**2>=0.000
     242 -> 247        0.70709

 The electronic state is 1-A.
 Alpha  occ. eigenvalues --  -46.27389 -18.82839 -18.82206 -18.76964 -18.76963
 Alpha  occ. eigenvalues --  -18.76831 -18.75059 -14.03938 -14.02951 -14.01524
 Alpha  occ. eigenvalues --  -14.00881 -10.04348 -10.03761 -10.00838  -9.99885
 Alpha  occ. eigenvalues --   -9.98314  -9.97541  -9.97125  -9.96925  -9.96356
 Alpha  occ. eigenvalues --   -9.96219  -9.95969  -9.95855  -9.95292  -9.94648
 Alpha  occ. eigenvalues --   -9.94625  -9.94348  -9.94265  -9.94132  -9.93967
 Alpha  occ. eigenvalues --   -9.93555  -9.93493  -9.93419  -9.93178  -9.93138
 Alpha  occ. eigenvalues --   -9.93101  -9.93085  -9.93007  -9.92954  -9.92737
 Alpha  occ. eigenvalues --   -9.92598  -9.92531  -9.92506  -9.92471  -9.92252
 Alpha  occ. eigenvalues --   -9.92225  -9.92005  -9.91944  -9.91882  -9.91842
 Alpha  occ. eigenvalues --   -9.91652  -9.91580  -9.91563  -9.91499  -9.91374
 Alpha  occ. eigenvalues --   -9.91258  -9.91194  -9.91177  -9.91143  -9.90732
 Alpha  occ. eigenvalues --   -9.90598  -9.90494  -9.90400  -9.90390  -9.90337
 Alpha  occ. eigenvalues --   -9.90328  -2.91977  -1.72418  -1.71839  -1.71701
 Alpha  occ. eigenvalues --   -0.98385  -0.95705  -0.92983  -0.89960  -0.89794
 Alpha  occ. eigenvalues --   -0.88251  -0.87149  -0.86413  -0.86217  -0.84873
 Alpha  occ. eigenvalues --   -0.74640  -0.73753  -0.73608  -0.73050  -0.73024
 Alpha  occ. eigenvalues --   -0.72512  -0.71614  -0.71305  -0.70601  -0.70154
 Alpha  occ. eigenvalues --   -0.69859  -0.69019  -0.67931  -0.67463  -0.67246
 Alpha  occ. eigenvalues --   -0.66628  -0.65680  -0.65174  -0.64896  -0.64272
 Alpha  occ. eigenvalues --   -0.64005  -0.62647  -0.61862  -0.61672  -0.60776
 Alpha  occ. eigenvalues --   -0.60500  -0.60107  -0.60092  -0.59379  -0.58875
 Alpha  occ. eigenvalues --   -0.58660  -0.57603  -0.57113  -0.56450  -0.55013
 Alpha  occ. eigenvalues --   -0.54036  -0.53574  -0.52892  -0.52585  -0.51223
 Alpha  occ. eigenvalues --   -0.51204  -0.50711  -0.50635  -0.50234  -0.49761
 Alpha  occ. eigenvalues --   -0.49376  -0.48500  -0.47720  -0.47617  -0.46669
 Alpha  occ. eigenvalues --   -0.46361  -0.46203  -0.45687  -0.45280  -0.44114
 Alpha  occ. eigenvalues --   -0.44044  -0.43655  -0.42791  -0.42636  -0.42429
 Alpha  occ. eigenvalues --   -0.42286  -0.42027  -0.41886  -0.41473  -0.41098
 Alpha  occ. eigenvalues --   -0.40924  -0.40683  -0.40542  -0.40227  -0.40111
 Alpha  occ. eigenvalues --   -0.40042  -0.39511  -0.39487  -0.39305  -0.38984
 Alpha  occ. eigenvalues --   -0.38828  -0.38639  -0.38492  -0.38400  -0.38297
 Alpha  occ. eigenvalues --   -0.38073  -0.37899  -0.37561  -0.37418  -0.37329
 Alpha  occ. eigenvalues --   -0.37187  -0.37130  -0.36651  -0.36594  -0.36317
 Alpha  occ. eigenvalues --   -0.36204  -0.36033  -0.35886  -0.35757  -0.35642
 Alpha  occ. eigenvalues --   -0.35566  -0.35250  -0.35094  -0.34949  -0.34843
 Alpha  occ. eigenvalues --   -0.34737  -0.34461  -0.34363  -0.34056  -0.33922
 Alpha  occ. eigenvalues --   -0.33749  -0.33638  -0.33554  -0.33274  -0.33028
 Alpha  occ. eigenvalues --   -0.32969  -0.32830  -0.32321  -0.32146  -0.31889
 Alpha  occ. eigenvalues --   -0.31840  -0.31689  -0.31595  -0.31478  -0.31337
 Alpha  occ. eigenvalues --   -0.31257  -0.31060  -0.30822  -0.30775  -0.30755
 Alpha  occ. eigenvalues --   -0.30575  -0.30500  -0.30449  -0.30011  -0.29937
 Alpha  occ. eigenvalues --   -0.29804  -0.29773  -0.29629  -0.29327  -0.28972
 Alpha  occ. eigenvalues --   -0.28912  -0.28595  -0.28512  -0.28217  -0.27520
 Alpha  occ. eigenvalues --   -0.27298  -0.27273  -0.27238  -0.26599  -0.26504
 Alpha  occ. eigenvalues --   -0.26264  -0.25977  -0.25671  -0.25538  -0.25180
 Alpha  occ. eigenvalues --   -0.24960  -0.24816  -0.23979  -0.23838  -0.23302
 Alpha  occ. eigenvalues --   -0.22540  -0.22100  -0.21969  -0.21623  -0.21317
 Alpha  occ. eigenvalues --   -0.20579  -0.20309  -0.19537  -0.18066  -0.17020
 Alpha  occ. eigenvalues --   -0.15683
 Alpha virt. eigenvalues --   -0.11542  -0.06897  -0.06497  -0.04831  -0.03459
 Alpha virt. eigenvalues --   -0.03244  -0.02425  -0.01356  -0.01198  -0.00124
 Alpha virt. eigenvalues --    0.00649   0.00937   0.02091   0.02444   0.02695

 Mulliken charges:
               1
     1  Mg   0.711150
     2  C    0.071885
     3  C   -0.077238
     4  C   -0.036128
     5  C   -0.062951
     6  N   -0.240941
     7  C   -0.100670
     8  C    0.113116
     9  C   -0.059822
    10  C    0.056365
    11  C    0.134075
    12  C    0.164019
    13  C    0.156924
    14  C    0.035606
    15  O   -0.199655
    16  O   -0.265218
    17  N   -0.273875
    18  C    0.129742
    19  C   -0.154191
    20  C    0.040891
    21  C    0.077675
    22  C    0.170337
    23  C   -0.094037
    24  O   -0.192689
    25  C    0.142536
    26  N   -0.196314
    27  C    0.004317
    28  C    0.027212
    29  C    0.040406
    30  C   -0.019663
    31  C    0.154137
    32  C    0.079241
    33  C    0.080966
    34  N   -0.223746
    35  C    0.090400
    36  C   -0.231676
    37  C    0.127645
    38  C   -0.006198
    39  C    0.175094
    40  C   -0.032052
    41  O   -0.101566
    42  C    0.038200
    43  C    0.149791
    44  O   -0.238095
    45  O   -0.279152
    46  C    0.226579
    47  C    0.351363
    48  C   -0.159843
    49  C   -0.108179
    50  C    0.101731
    51  C    0.134124
    52  C    0.049748
    53  C    0.086189
    54  C   -0.106013
    55  C    0.171728
    56  C    0.087982
    57  C    0.124924
    58  C    0.063369
    59  C   -0.083891
    60  C    0.130068
    61  C    0.113410
    62  C    0.021965
    63  C    0.139526
    64  C   -0.130706
    65  C    0.103547
    66  C    0.133674
    67  H   -0.069199
    68  H   -0.041417
    69  H   -0.053798
    70  H   -0.042075
    71  H   -0.012565
    72  H   -0.013737
    73  H   -0.009214
    74  H    0.002679
    75  H   -0.026219
    76  H   -0.003407
    77  H   -0.001698
    78  H   -0.006116
    79  H    0.013484
    80  H   -0.006190
    81  H   -0.015550
    82  H   -0.000759
    83  H    0.003808
    84  H    0.019326
    85  H   -0.031176
    86  H   -0.052598
    87  H    0.005628
    88  H   -0.012641
    89  H   -0.005495
    90  H   -0.025762
    91  H   -0.026602
    92  H    0.001044
    93  H    0.003390
    94  H   -0.009622
    95  H   -0.007040
    96  H    0.006626
    97  H    0.009765
    98  H    0.014645
    99  H    0.023983
   100  H    0.005424
   101  H    0.015728
   102  H    0.010591
   103  H    0.018150
   104  H   -0.041065
   105  H   -0.000154
   106  H   -0.021766
   107  H   -0.015553
   108  H   -0.044422
   109  H   -0.030937
   110  H   -0.039629
   111  H   -0.023267
   112  H   -0.018859
   113  H   -0.028060
   114  H   -0.038563
   115  H   -0.011294
   116  H   -0.036977
   117  H   -0.007659
   118  H   -0.034929
   119  H   -0.017149
   120  H   -0.035007
   121  H   -0.032747
   122  H   -0.059075
   123  H   -0.050975
   124  H   -0.030436
   125  H   -0.007826
   126  H   -0.017742
   127  H   -0.041642
   128  H   -0.026813
   129  H   -0.013441
   130  H   -0.040069
   131  H   -0.032194
   132  H   -0.037874
   133  H   -0.036845
   134  H   -0.040403
   135  H   -0.011731
   136  H   -0.033264
   137  H   -0.017073
   138  H   -0.013777
   139  H   -0.024256
   140  H   -0.005069
 Sum of Mulliken charges =  -0.00000

 Dipole moment (field-independent basis, Debye):
    X=             -1.8749    Y=              2.8202    Z=              0.1886  Tot=              3.3918
 Quadrupole moment (field-independent basis, Debye-Ang):
   XX=           -379.0294   YY=           -424.3516   ZZ=           -407.1142
   XY=            -10.5880   XZ=              2.7256   YZ=             -9.2426

 Normal termination of Gaussian 16 at Wed Apr 27 16:05:32 2022.
