 Gaussian 16, Revision A.03,
 Gaussian 16:  ES64L-G16RevA.03 25-Dec-2016

 -----------------------------------
 #p cam-b3lyp/Def2SVP td=(nstates=5)
 -----------------------------------

 -------------------------------------------------------
 step_1251_chromophore_1 TDDFT with cam-b3lyp functional
 -------------------------------------------------------
 Symbolic Z-matrix:
 Charge =  0 Multiplicity = 1

                         Standard orientation:
 ---------------------------------------------------------------------
 Center     Atomic      Atomic             Coordinates (Angstroms)
 Number     Number       Type             X           Y           Z
 ---------------------------------------------------------------------
      1         12           0        5.900531    0.411647   -0.033814
      2          6           0        3.589124   -2.328385   -0.604695
      3          6           0        3.695742    2.514323   -1.551503
      4          6           0        8.194377    2.795714    0.309850
      5          6           0        8.312859   -1.963086    0.993896
      6          7           0        3.914455    0.113393   -0.862742
      7          6           0        3.098703   -1.014795   -0.957408
      8          6           0        1.618771   -0.630512   -1.296566
      9          6           0        1.801344    0.796913   -1.890062
     10          6           0        3.203036    1.153567   -1.458750
     11          6           0        1.727001    0.909518   -3.429341
     12          6           0        0.475569   -0.732141   -0.326103
     13          6           0       -0.937385   -0.403575   -0.899113
     14          6           0       -1.912423   -1.539791   -0.996522
     15          8           0       -1.956341   -2.456723   -1.816052
     16          8           0       -2.790542   -1.449468    0.045827
     17          7           0        5.869306    2.434853   -0.449199
     18          6           0        4.887883    3.128499   -1.074533
     19          6           0        5.204159    4.456052   -1.104827
     20          6           0        6.477798    4.647712   -0.505240
     21          6           0        6.916449    3.242795   -0.193566
     22          6           0        4.264404    5.479530   -1.785125
     23          6           0        7.284453    5.928398   -0.268762
     24          8           0        8.497198    5.853482    0.015614
     25          6           0        6.713418    7.346283   -0.345335
     26          7           0        7.995005    0.412610    0.494809
     27          6           0        8.773776    1.517950    0.396931
     28          6           0       10.202688    1.279194    0.720999
     29          6           0       10.181571   -0.016265    1.395818
     30          6           0        8.737933   -0.605207    0.944810
     31          6           0       11.153164    1.488017   -0.494430
     32          6           0       10.283463   -0.208804    2.918132
     33          6           0        9.622959    0.678306    3.993589
     34          7           0        5.993327   -1.673240    0.223271
     35          6           0        7.020443   -2.467316    0.527017
     36          6           0        6.641710   -3.891884    0.565804
     37          6           0        5.343590   -3.892424    0.167976
     38          6           0        4.962147   -2.519252   -0.098338
     39          6           0        7.558477   -5.119740    0.614025
     40          6           0        4.165251   -4.728452   -0.199499
     41          8           0        4.064648   -5.920678   -0.360988
     42          6           0        3.035143   -3.732173   -0.746812
     43          6           0        1.856889   -4.099522    0.021114
     44          8           0        1.552050   -3.540174    1.115030
     45          8           0        1.186541   -5.161466   -0.625018
     46          6           0       -0.099043   -5.389727    0.100434
     47          6           0       -3.854656   -2.453985    0.117302
     48          6           0       -5.166448   -1.805334   -0.222771
     49          6           0       -6.378107   -2.294634   -0.369254
     50          6           0       -6.581300   -3.789884   -0.286620
     51          6           0       -7.684886   -1.455631   -0.633006
     52          6           0       -8.345402   -0.494289    0.422063
     53          6           0       -8.830382    0.916694   -0.009585
     54          6           0       -8.507755    2.033877    1.065163
     55          6           0       -7.113412    2.468302    1.171391
     56          6           0       -9.303560    1.652967    2.358077
     57          6           0      -10.515749    2.600088    2.641683
     58          6           0      -11.648308    1.896168    3.352428
     59          6           0      -12.946375    1.742670    2.513200
     60          6           0      -13.989357    1.017655    3.341713
     61          6           0      -12.700342    0.709025    1.257522
     62          6           0      -12.945301    1.577328    0.053811
     63          6           0      -12.678269    0.788965   -1.250650
     64          6           0      -13.742788    1.017228   -2.271267
     65          6           0      -15.029362    0.381217   -1.772213
     66          6           0      -13.379842    0.594716   -3.734129
     67          1           0        2.975710    3.247703   -1.919764
     68          1           0        8.967615    3.555796    0.439802
     69          1           0        9.033418   -2.661060    1.425491
     70          1           0        1.513298   -1.296242   -2.153180
     71          1           0        1.071109    1.453269   -1.417764
     72          1           0        2.685294    1.179832   -3.872196
     73          1           0        1.144056    1.777682   -3.734943
     74          1           0        1.443350   -0.011457   -3.938061
     75          1           0        0.655591   -0.142894    0.573263
     76          1           0        0.383128   -1.705974    0.153637
     77          1           0       -0.820516   -0.146127   -1.951369
     78          1           0       -1.475782    0.365992   -0.345129
     79          1           0        3.443889    5.848189   -1.169269
     80          1           0        3.835672    4.917393   -2.615801
     81          1           0        4.916060    6.240551   -2.214848
     82          1           0        7.461247    8.042318    0.034517
     83          1           0        5.890266    7.413671    0.366177
     84          1           0        6.402190    7.404128   -1.388795
     85          1           0       10.509542    1.991348    1.487251
     86          1           0       10.973342   -0.585755    0.908534
     87          1           0       10.665643    1.915058   -1.371166
     88          1           0       11.664912    0.556296   -0.736156
     89          1           0       11.912007    2.193603   -0.157257
     90          1           0       11.349734   -0.175078    3.141713
     91          1           0        9.904250   -1.212929    3.108386
     92          1           0       10.265623    1.447761    4.420840
     93          1           0        9.151980   -0.019822    4.685052
     94          1           0        8.878517    1.239854    3.429772
     95          1           0        7.777945   -5.357746    1.654710
     96          1           0        8.480569   -4.865914    0.090562
     97          1           0        7.031101   -5.992471    0.228817
     98          1           0        2.834872   -3.922148   -1.801374
     99          1           0       -0.051993   -5.923994    1.050637
    100          1           0       -0.627718   -5.996990   -0.633351
    101          1           0       -0.635545   -4.443821    0.171930
    102          1           0       -3.978650   -2.808858    1.140036
    103          1           0       -3.842547   -3.309340   -0.557373
    104          1           0       -5.091095   -0.737328   -0.426185
    105          1           0       -6.582660   -4.198757   -1.296918
    106          1           0       -7.536090   -4.171807    0.074523
    107          1           0       -5.854027   -4.351096    0.299131
    108          1           0       -8.462246   -2.100642   -1.042684
    109          1           0       -7.417085   -0.854149   -1.501909
    110          1           0       -7.521558   -0.511851    1.137436
    111          1           0       -9.097750   -1.033861    0.996614
    112          1           0       -9.917131    0.838231    0.023125
    113          1           0       -8.491717    1.144751   -1.020717
    114          1           0       -9.058624    2.825062    0.557892
    115          1           0       -6.315664    1.935391    0.655034
    116          1           0       -6.848415    2.254623    2.206401
    117          1           0       -7.210858    3.541875    1.007973
    118          1           0       -8.648238    1.713289    3.227292
    119          1           0       -9.643785    0.622945    2.244879
    120          1           0      -10.880940    3.004045    1.697111
    121          1           0      -10.221310    3.438010    3.273007
    122          1           0      -11.939760    2.410549    4.267214
    123          1           0      -11.370083    0.944052    3.805855
    124          1           0      -13.206598    2.796986    2.417151
    125          1           0      -13.699723   -0.019966    3.505299
    126          1           0      -14.973434    1.189454    2.904402
    127          1           0      -14.028214    1.508345    4.314534
    128          1           0      -13.554262    0.030993    1.265673
    129          1           0      -11.718499    0.262191    1.101879
    130          1           0      -12.270365    2.426664    0.158147
    131          1           0      -13.944119    2.012364    0.070424
    132          1           0      -12.563763   -0.255277   -0.958525
    133          1           0      -11.716809    1.095139   -1.662216
    134          1           0      -14.015565    2.072450   -2.289165
    135          1           0      -14.792441   -0.540605   -1.241525
    136          1           0      -15.702306    0.155058   -2.599793
    137          1           0      -15.609961    1.119484   -1.217685
    138          1           0      -14.162759   -0.044371   -4.143962
    139          1           0      -12.449171    0.028235   -3.763863
    140          1           0      -13.194644    1.587669   -4.144016
 ---------------------------------------------------------------------

 SCF Done:  E(RCAM-B3LYP) =  -3007.11077606     A.U. after   18 cycles

 Excitation energies and oscillator strengths:

 Excited State   1:      Singlet-A      1.6454 eV  753.53 nm  f=0.3604  <S**2>=0.000
     245 -> 248       -0.18455
     246 -> 247        0.68541
     245 <- 248       -0.11192
 This state for optimization and/or second-order correction.
 Total Energy, E(TD-HF/TD-DFT) =  -3007.05030921
 Copying the excited state density for this state as the 1-particle RhoCI density.

 Excited State   2:      Singlet-A      2.1649 eV  572.71 nm  f=0.1257  <S**2>=0.000
     245 -> 247        0.64182
     246 -> 248        0.28960

 Excited State   3:      Singlet-A      3.4227 eV  362.24 nm  f=0.0926  <S**2>=0.000
     242 -> 250       -0.10291
     244 -> 247        0.58398
     245 -> 247        0.11224
     246 -> 248       -0.31464

 Excited State   4:      Singlet-A      3.5167 eV  352.56 nm  f=0.4935  <S**2>=0.000
     241 -> 247       -0.21290
     242 -> 247        0.18993
     244 -> 247        0.27682
     245 -> 247       -0.23442
     246 -> 248        0.50437

 Excited State   5:      Singlet-A      3.5587 eV  348.39 nm  f=0.0466  <S**2>=0.000
     241 -> 247        0.14606
     241 -> 249        0.14345
     241 -> 250        0.13276
     242 -> 247        0.52201
     242 -> 248        0.10504
     242 -> 249        0.16961
     242 -> 250        0.19611
     244 -> 250       -0.10788
     246 -> 248       -0.14250

 The electronic state is 1-A.
 Alpha  occ. eigenvalues --  -46.88868 -19.25778 -19.25351 -19.20324 -19.20139
 Alpha  occ. eigenvalues --  -19.20018 -19.18179 -14.42900 -14.41709 -14.40033
 Alpha  occ. eigenvalues --  -14.39208 -10.39709 -10.39581 -10.36345 -10.35033
 Alpha  occ. eigenvalues --  -10.32373 -10.32226 -10.31553 -10.31044 -10.30836
 Alpha  occ. eigenvalues --  -10.30528 -10.30344 -10.30164 -10.29775 -10.29088
 Alpha  occ. eigenvalues --  -10.28631 -10.28586 -10.28419 -10.28210 -10.27983
 Alpha  occ. eigenvalues --  -10.27940 -10.27482 -10.27438 -10.27309 -10.27278
 Alpha  occ. eigenvalues --  -10.27246 -10.27238 -10.27001 -10.26892 -10.26818
 Alpha  occ. eigenvalues --  -10.26346 -10.26285 -10.26269 -10.26182 -10.26063
 Alpha  occ. eigenvalues --  -10.26041 -10.25985 -10.25846 -10.25729 -10.25512
 Alpha  occ. eigenvalues --  -10.25411 -10.25411 -10.25306 -10.25226 -10.25161
 Alpha  occ. eigenvalues --  -10.25122 -10.24987 -10.24861 -10.24817 -10.24333
 Alpha  occ. eigenvalues --  -10.24125 -10.24096 -10.24072 -10.24048 -10.24004
 Alpha  occ. eigenvalues --  -10.23920  -3.17362  -1.92281  -1.91799  -1.91681
 Alpha  occ. eigenvalues --   -1.16900  -1.14357  -1.11545  -1.08219  -1.07726
 Alpha  occ. eigenvalues --   -1.06334  -1.04854  -1.04028  -1.03758  -1.02451
 Alpha  occ. eigenvalues --   -0.91859  -0.90643  -0.90476  -0.89886  -0.89656
 Alpha  occ. eigenvalues --   -0.89272  -0.88258  -0.87943  -0.87204  -0.86662
 Alpha  occ. eigenvalues --   -0.86349  -0.85409  -0.84180  -0.83609  -0.83427
 Alpha  occ. eigenvalues --   -0.82746  -0.81724  -0.81183  -0.80847  -0.80105
 Alpha  occ. eigenvalues --   -0.79798  -0.78319  -0.77460  -0.77091  -0.76203
 Alpha  occ. eigenvalues --   -0.75904  -0.75464  -0.75401  -0.74626  -0.74118
 Alpha  occ. eigenvalues --   -0.73804  -0.72658  -0.72046  -0.71313  -0.69628
 Alpha  occ. eigenvalues --   -0.68679  -0.68082  -0.67313  -0.67054  -0.65514
 Alpha  occ. eigenvalues --   -0.65312  -0.64687  -0.64593  -0.64096  -0.63837
 Alpha  occ. eigenvalues --   -0.63270  -0.62364  -0.61480  -0.61418  -0.60321
 Alpha  occ. eigenvalues --   -0.59932  -0.59739  -0.59202  -0.58728  -0.57901
 Alpha  occ. eigenvalues --   -0.57479  -0.57110  -0.55838  -0.55703  -0.55539
 Alpha  occ. eigenvalues --   -0.55392  -0.55203  -0.54866  -0.54659  -0.53960
 Alpha  occ. eigenvalues --   -0.53746  -0.53574  -0.53273  -0.52809  -0.52707
 Alpha  occ. eigenvalues --   -0.52690  -0.52512  -0.52143  -0.52023  -0.51874
 Alpha  occ. eigenvalues --   -0.51279  -0.51253  -0.50969  -0.50911  -0.50865
 Alpha  occ. eigenvalues --   -0.50499  -0.50426  -0.50207  -0.49598  -0.49536
 Alpha  occ. eigenvalues --   -0.49481  -0.49337  -0.49047  -0.48741  -0.48657
 Alpha  occ. eigenvalues --   -0.48433  -0.48228  -0.48103  -0.47864  -0.47784
 Alpha  occ. eigenvalues --   -0.47662  -0.47235  -0.47133  -0.47071  -0.46776
 Alpha  occ. eigenvalues --   -0.46583  -0.46266  -0.46188  -0.46008  -0.45846
 Alpha  occ. eigenvalues --   -0.45687  -0.45316  -0.45287  -0.44947  -0.44854
 Alpha  occ. eigenvalues --   -0.44623  -0.44493  -0.44005  -0.43829  -0.43745
 Alpha  occ. eigenvalues --   -0.43579  -0.43428  -0.43271  -0.43022  -0.42871
 Alpha  occ. eigenvalues --   -0.42818  -0.42749  -0.42455  -0.42285  -0.42216
 Alpha  occ. eigenvalues --   -0.42136  -0.42014  -0.41698  -0.41392  -0.41250
 Alpha  occ. eigenvalues --   -0.41084  -0.40940  -0.40740  -0.40455  -0.40143
 Alpha  occ. eigenvalues --   -0.39989  -0.39715  -0.39553  -0.39467  -0.38452
 Alpha  occ. eigenvalues --   -0.38265  -0.38208  -0.38123  -0.37830  -0.37387
 Alpha  occ. eigenvalues --   -0.37151  -0.36988  -0.36487  -0.36374  -0.36098
 Alpha  occ. eigenvalues --   -0.35965  -0.35525  -0.34783  -0.34334  -0.34316
 Alpha  occ. eigenvalues --   -0.34237  -0.32774  -0.32686  -0.31474  -0.31212
 Alpha  occ. eigenvalues --   -0.30619  -0.30381  -0.30071  -0.29662  -0.23635
 Alpha  occ. eigenvalues --   -0.20972
 Alpha virt. eigenvalues --   -0.08651  -0.01675   0.00150   0.02138   0.03122
 Alpha virt. eigenvalues --    0.04029   0.04415   0.05272   0.06195   0.06403
 Alpha virt. eigenvalues --    0.07405   0.08061   0.08311   0.08969   0.09101

 Mulliken charges:
               1
     1  Mg   0.844285
     2  C    0.048809
     3  C   -0.085445
     4  C   -0.049034
     5  C   -0.073070
     6  N   -0.309507
     7  C   -0.050064
     8  C    0.059376
     9  C   -0.113974
    10  C    0.070125
    11  C    0.073141
    12  C    0.104171
    13  C    0.082959
    14  C    0.121216
    15  O   -0.241107
    16  O   -0.330038
    17  N   -0.363459
    18  C    0.132428
    19  C   -0.163121
    20  C   -0.028153
    21  C    0.100652
    22  C    0.118780
    23  C   -0.018859
    24  O   -0.234712
    25  C    0.069489
    26  N   -0.265902
    27  C    0.021185
    28  C   -0.039852
    29  C   -0.007239
    30  C   -0.008450
    31  C    0.098278
    32  C    0.025333
    33  C    0.021474
    34  N   -0.310039
    35  C    0.097363
    36  C   -0.214667
    37  C    0.045143
    38  C    0.022579
    39  C    0.116809
    40  C    0.066986
    41  O   -0.136058
    42  C   -0.036180
    43  C    0.234396
    44  O   -0.274210
    45  O   -0.340287
    46  C    0.189467
    47  C    0.313124
    48  C   -0.170225
    49  C   -0.140712
    50  C    0.035650
    51  C    0.089265
    52  C   -0.008040
    53  C    0.042704
    54  C   -0.154805
    55  C    0.106582
    56  C    0.032895
    57  C    0.070814
    58  C    0.014117
    59  C   -0.140158
    60  C    0.067744
    61  C    0.061396
    62  C   -0.026606
    63  C    0.082094
    64  C   -0.186406
    65  C    0.042529
    66  C    0.071909
    67  H   -0.034419
    68  H   -0.002565
    69  H   -0.018609
    70  H   -0.006120
    71  H    0.022018
    72  H    0.015032
    73  H    0.015232
    74  H    0.026889
    75  H    0.008044
    76  H    0.026413
    77  H    0.028944
    78  H    0.030254
    79  H    0.039828
    80  H    0.019648
    81  H    0.008417
    82  H    0.033559
    83  H    0.031488
    84  H    0.041458
    85  H    0.006900
    86  H   -0.014285
    87  H    0.031977
    88  H    0.011018
    89  H    0.018630
    90  H    0.002736
    91  H    0.001325
    92  H    0.024001
    93  H    0.027210
    94  H    0.011228
    95  H    0.019439
    96  H    0.031395
    97  H    0.037828
    98  H    0.057650
    99  H    0.047476
   100  H    0.031207
   101  H    0.033991
   102  H    0.037737
   103  H    0.049583
   104  H   -0.009942
   105  H    0.024977
   106  H    0.005349
   107  H    0.008419
   108  H   -0.013567
   109  H   -0.001736
   110  H   -0.010188
   111  H    0.003208
   112  H   -0.002018
   113  H    0.000687
   114  H   -0.006084
   115  H    0.012038
   116  H   -0.012227
   117  H    0.016760
   118  H   -0.005110
   119  H    0.007215
   120  H   -0.009967
   121  H   -0.002072
   122  H   -0.027203
   123  H   -0.021465
   124  H    0.001052
   125  H    0.016191
   126  H    0.008018
   127  H   -0.015362
   128  H    0.002092
   129  H    0.007176
   130  H   -0.013560
   131  H   -0.005111
   132  H   -0.009065
   133  H   -0.008055
   134  H   -0.007914
   135  H    0.010741
   136  H   -0.006707
   137  H    0.006655
   138  H    0.010506
   139  H    0.000610
   140  H    0.018215
 Sum of Mulliken charges =  -0.00000

 Dipole moment (field-independent basis, Debye):
    X=             -2.1428    Y=              2.9569    Z=              0.1571  Tot=              3.6550
 Quadrupole moment (field-independent basis, Debye-Ang):
   XX=           -378.0324   YY=           -420.2270   ZZ=           -407.2656
   XY=             -9.8669   XZ=              2.6990   YZ=            -10.0956

 Normal termination of Gaussian 16 at Wed Apr 27 15:10:59 2022.
