 Gaussian 16, Revision A.03,
 Gaussian 16:  ES64L-G16RevA.03 25-Dec-2016

 ---------------------------------
 #p PBE1PBE/Def2SVP td=(nstates=5)
 ---------------------------------

 -----------------------------------------------------
 step_1251_chromophore_1 TDDFT with PBE1PBE functional
 -----------------------------------------------------
 Symbolic Z-matrix:
 Charge =  0 Multiplicity = 1

                         Standard orientation:
 ---------------------------------------------------------------------
 Center     Atomic      Atomic             Coordinates (Angstroms)
 Number     Number       Type             X           Y           Z
 ---------------------------------------------------------------------
      1         12           0        5.900531    0.411647   -0.033814
      2          6           0        3.589124   -2.328385   -0.604695
      3          6           0        3.695742    2.514323   -1.551503
      4          6           0        8.194377    2.795714    0.309850
      5          6           0        8.312859   -1.963086    0.993896
      6          7           0        3.914455    0.113393   -0.862742
      7          6           0        3.098703   -1.014795   -0.957408
      8          6           0        1.618771   -0.630512   -1.296566
      9          6           0        1.801344    0.796913   -1.890062
     10          6           0        3.203036    1.153567   -1.458750
     11          6           0        1.727001    0.909518   -3.429341
     12          6           0        0.475569   -0.732141   -0.326103
     13          6           0       -0.937385   -0.403575   -0.899113
     14          6           0       -1.912423   -1.539791   -0.996522
     15          8           0       -1.956341   -2.456723   -1.816052
     16          8           0       -2.790542   -1.449468    0.045827
     17          7           0        5.869306    2.434853   -0.449199
     18          6           0        4.887883    3.128499   -1.074533
     19          6           0        5.204159    4.456052   -1.104827
     20          6           0        6.477798    4.647712   -0.505240
     21          6           0        6.916449    3.242795   -0.193566
     22          6           0        4.264404    5.479530   -1.785125
     23          6           0        7.284453    5.928398   -0.268762
     24          8           0        8.497198    5.853482    0.015614
     25          6           0        6.713418    7.346283   -0.345335
     26          7           0        7.995005    0.412610    0.494809
     27          6           0        8.773776    1.517950    0.396931
     28          6           0       10.202688    1.279194    0.720999
     29          6           0       10.181571   -0.016265    1.395818
     30          6           0        8.737933   -0.605207    0.944810
     31          6           0       11.153164    1.488017   -0.494430
     32          6           0       10.283463   -0.208804    2.918132
     33          6           0        9.622959    0.678306    3.993589
     34          7           0        5.993327   -1.673240    0.223271
     35          6           0        7.020443   -2.467316    0.527017
     36          6           0        6.641710   -3.891884    0.565804
     37          6           0        5.343590   -3.892424    0.167976
     38          6           0        4.962147   -2.519252   -0.098338
     39          6           0        7.558477   -5.119740    0.614025
     40          6           0        4.165251   -4.728452   -0.199499
     41          8           0        4.064648   -5.920678   -0.360988
     42          6           0        3.035143   -3.732173   -0.746812
     43          6           0        1.856889   -4.099522    0.021114
     44          8           0        1.552050   -3.540174    1.115030
     45          8           0        1.186541   -5.161466   -0.625018
     46          6           0       -0.099043   -5.389727    0.100434
     47          6           0       -3.854656   -2.453985    0.117302
     48          6           0       -5.166448   -1.805334   -0.222771
     49          6           0       -6.378107   -2.294634   -0.369254
     50          6           0       -6.581300   -3.789884   -0.286620
     51          6           0       -7.684886   -1.455631   -0.633006
     52          6           0       -8.345402   -0.494289    0.422063
     53          6           0       -8.830382    0.916694   -0.009585
     54          6           0       -8.507755    2.033877    1.065163
     55          6           0       -7.113412    2.468302    1.171391
     56          6           0       -9.303560    1.652967    2.358077
     57          6           0      -10.515749    2.600088    2.641683
     58          6           0      -11.648308    1.896168    3.352428
     59          6           0      -12.946375    1.742670    2.513200
     60          6           0      -13.989357    1.017655    3.341713
     61          6           0      -12.700342    0.709025    1.257522
     62          6           0      -12.945301    1.577328    0.053811
     63          6           0      -12.678269    0.788965   -1.250650
     64          6           0      -13.742788    1.017228   -2.271267
     65          6           0      -15.029362    0.381217   -1.772213
     66          6           0      -13.379842    0.594716   -3.734129
     67          1           0        2.975710    3.247703   -1.919764
     68          1           0        8.967615    3.555796    0.439802
     69          1           0        9.033418   -2.661060    1.425491
     70          1           0        1.513298   -1.296242   -2.153180
     71          1           0        1.071109    1.453269   -1.417764
     72          1           0        2.685294    1.179832   -3.872196
     73          1           0        1.144056    1.777682   -3.734943
     74          1           0        1.443350   -0.011457   -3.938061
     75          1           0        0.655591   -0.142894    0.573263
     76          1           0        0.383128   -1.705974    0.153637
     77          1           0       -0.820516   -0.146127   -1.951369
     78          1           0       -1.475782    0.365992   -0.345129
     79          1           0        3.443889    5.848189   -1.169269
     80          1           0        3.835672    4.917393   -2.615801
     81          1           0        4.916060    6.240551   -2.214848
     82          1           0        7.461247    8.042318    0.034517
     83          1           0        5.890266    7.413671    0.366177
     84          1           0        6.402190    7.404128   -1.388795
     85          1           0       10.509542    1.991348    1.487251
     86          1           0       10.973342   -0.585755    0.908534
     87          1           0       10.665643    1.915058   -1.371166
     88          1           0       11.664912    0.556296   -0.736156
     89          1           0       11.912007    2.193603   -0.157257
     90          1           0       11.349734   -0.175078    3.141713
     91          1           0        9.904250   -1.212929    3.108386
     92          1           0       10.265623    1.447761    4.420840
     93          1           0        9.151980   -0.019822    4.685052
     94          1           0        8.878517    1.239854    3.429772
     95          1           0        7.777945   -5.357746    1.654710
     96          1           0        8.480569   -4.865914    0.090562
     97          1           0        7.031101   -5.992471    0.228817
     98          1           0        2.834872   -3.922148   -1.801374
     99          1           0       -0.051993   -5.923994    1.050637
    100          1           0       -0.627718   -5.996990   -0.633351
    101          1           0       -0.635545   -4.443821    0.171930
    102          1           0       -3.978650   -2.808858    1.140036
    103          1           0       -3.842547   -3.309340   -0.557373
    104          1           0       -5.091095   -0.737328   -0.426185
    105          1           0       -6.582660   -4.198757   -1.296918
    106          1           0       -7.536090   -4.171807    0.074523
    107          1           0       -5.854027   -4.351096    0.299131
    108          1           0       -8.462246   -2.100642   -1.042684
    109          1           0       -7.417085   -0.854149   -1.501909
    110          1           0       -7.521558   -0.511851    1.137436
    111          1           0       -9.097750   -1.033861    0.996614
    112          1           0       -9.917131    0.838231    0.023125
    113          1           0       -8.491717    1.144751   -1.020717
    114          1           0       -9.058624    2.825062    0.557892
    115          1           0       -6.315664    1.935391    0.655034
    116          1           0       -6.848415    2.254623    2.206401
    117          1           0       -7.210858    3.541875    1.007973
    118          1           0       -8.648238    1.713289    3.227292
    119          1           0       -9.643785    0.622945    2.244879
    120          1           0      -10.880940    3.004045    1.697111
    121          1           0      -10.221310    3.438010    3.273007
    122          1           0      -11.939760    2.410549    4.267214
    123          1           0      -11.370083    0.944052    3.805855
    124          1           0      -13.206598    2.796986    2.417151
    125          1           0      -13.699723   -0.019966    3.505299
    126          1           0      -14.973434    1.189454    2.904402
    127          1           0      -14.028214    1.508345    4.314534
    128          1           0      -13.554262    0.030993    1.265673
    129          1           0      -11.718499    0.262191    1.101879
    130          1           0      -12.270365    2.426664    0.158147
    131          1           0      -13.944119    2.012364    0.070424
    132          1           0      -12.563763   -0.255277   -0.958525
    133          1           0      -11.716809    1.095139   -1.662216
    134          1           0      -14.015565    2.072450   -2.289165
    135          1           0      -14.792441   -0.540605   -1.241525
    136          1           0      -15.702306    0.155058   -2.599793
    137          1           0      -15.609961    1.119484   -1.217685
    138          1           0      -14.162759   -0.044371   -4.143962
    139          1           0      -12.449171    0.028235   -3.763863
    140          1           0      -13.194644    1.587669   -4.144016
 ---------------------------------------------------------------------

 SCF Done:  E(RPBE1PBE) =  -3005.30176299     A.U. after   15 cycles

 Excitation energies and oscillator strengths:

 Excited State   1:      Singlet-A      1.8065 eV  686.34 nm  f=0.3499  <S**2>=0.000
     245 -> 248       -0.17779
     246 -> 247        0.69284
     246 <- 247       -0.10829
 This state for optimization and/or second-order correction.
 Total Energy, E(TD-HF/TD-DFT) =  -3005.23537716
 Copying the excited state density for this state as the 1-particle RhoCI density.

 Excited State   2:      Singlet-A      2.1824 eV  568.10 nm  f=0.1214  <S**2>=0.000
     245 -> 247        0.65154
     246 -> 248        0.26845

 Excited State   3:      Singlet-A      2.9439 eV  421.15 nm  f=0.0005  <S**2>=0.000
     242 -> 247        0.10335
     244 -> 247        0.66641
     244 -> 249        0.11331
     244 -> 250        0.10292

 Excited State   4:      Singlet-A      3.1318 eV  395.89 nm  f=0.0015  <S**2>=0.000
     240 -> 247       -0.12820
     241 -> 247       -0.23058
     242 -> 247        0.62823
     244 -> 247       -0.10020

 Excited State   5:      Singlet-A      3.2035 eV  387.02 nm  f=0.0042  <S**2>=0.000
     240 -> 247        0.24220
     240 -> 249       -0.10194
     241 -> 247        0.55209
     242 -> 247        0.25751
     246 -> 248       -0.16096

 The electronic state is 1-A.
 Alpha  occ. eigenvalues --  -46.92299 -19.26481 -19.25947 -19.20461 -19.20333
 Alpha  occ. eigenvalues --  -19.20279 -19.18472 -14.42443 -14.41238 -14.39639
 Alpha  occ. eigenvalues --  -14.38901 -10.36721 -10.36525 -10.33469 -10.32259
 Alpha  occ. eigenvalues --  -10.29980 -10.29791 -10.29392 -10.28586 -10.28307
 Alpha  occ. eigenvalues --  -10.28223 -10.28017 -10.27928 -10.27494 -10.26903
 Alpha  occ. eigenvalues --  -10.26391 -10.26213 -10.26146 -10.26033 -10.25565
 Alpha  occ. eigenvalues --  -10.25493 -10.25283 -10.25096 -10.25040 -10.25032
 Alpha  occ. eigenvalues --  -10.24964 -10.24940 -10.24611 -10.24542 -10.24478
 Alpha  occ. eigenvalues --  -10.23815 -10.23789 -10.23724 -10.23716 -10.23606
 Alpha  occ. eigenvalues --  -10.23594 -10.23589 -10.23509 -10.23475 -10.22991
 Alpha  occ. eigenvalues --  -10.22924 -10.22892 -10.22861 -10.22822 -10.22717
 Alpha  occ. eigenvalues --  -10.22674 -10.22574 -10.22502 -10.22357 -10.21721
 Alpha  occ. eigenvalues --  -10.21601 -10.21580 -10.21568 -10.21498 -10.21480
 Alpha  occ. eigenvalues --  -10.21312  -3.14374  -1.87234  -1.86730  -1.86615
 Alpha  occ. eigenvalues --   -1.11712  -1.09009  -1.06246  -1.02996  -1.02570
 Alpha  occ. eigenvalues --   -1.01056  -0.99502  -0.98728  -0.98480  -0.97069
 Alpha  occ. eigenvalues --   -0.86138  -0.84805  -0.84591  -0.84039  -0.83997
 Alpha  occ. eigenvalues --   -0.83408  -0.82611  -0.82059  -0.81504  -0.80987
 Alpha  occ. eigenvalues --   -0.80643  -0.79720  -0.78353  -0.77869  -0.77674
 Alpha  occ. eigenvalues --   -0.76974  -0.75961  -0.75347  -0.75015  -0.74379
 Alpha  occ. eigenvalues --   -0.74142  -0.72569  -0.71787  -0.71380  -0.70337
 Alpha  occ. eigenvalues --   -0.70197  -0.69758  -0.69547  -0.68840  -0.68294
 Alpha  occ. eigenvalues --   -0.68071  -0.67074  -0.66387  -0.65679  -0.64035
 Alpha  occ. eigenvalues --   -0.63155  -0.62330  -0.61823  -0.61224  -0.59811
 Alpha  occ. eigenvalues --   -0.59636  -0.59235  -0.59162  -0.58611  -0.57995
 Alpha  occ. eigenvalues --   -0.57752  -0.56555  -0.55971  -0.55738  -0.54849
 Alpha  occ. eigenvalues --   -0.54475  -0.54130  -0.53821  -0.53353  -0.52250
 Alpha  occ. eigenvalues --   -0.52065  -0.51575  -0.50372  -0.50136  -0.49972
 Alpha  occ. eigenvalues --   -0.49919  -0.49712  -0.49423  -0.49298  -0.48469
 Alpha  occ. eigenvalues --   -0.48270  -0.48009  -0.47729  -0.47320  -0.47233
 Alpha  occ. eigenvalues --   -0.47148  -0.47055  -0.46659  -0.46569  -0.46417
 Alpha  occ. eigenvalues --   -0.45781  -0.45766  -0.45538  -0.45428  -0.45382
 Alpha  occ. eigenvalues --   -0.45126  -0.45033  -0.44777  -0.44231  -0.44184
 Alpha  occ. eigenvalues --   -0.44021  -0.43945  -0.43724  -0.43388  -0.43251
 Alpha  occ. eigenvalues --   -0.43098  -0.42835  -0.42685  -0.42458  -0.42427
 Alpha  occ. eigenvalues --   -0.42260  -0.41914  -0.41747  -0.41724  -0.41449
 Alpha  occ. eigenvalues --   -0.41201  -0.40964  -0.40825  -0.40694  -0.40545
 Alpha  occ. eigenvalues --   -0.40426  -0.40001  -0.39930  -0.39744  -0.39638
 Alpha  occ. eigenvalues --   -0.39434  -0.39314  -0.38819  -0.38616  -0.38445
 Alpha  occ. eigenvalues --   -0.38289  -0.38182  -0.38086  -0.37855  -0.37771
 Alpha  occ. eigenvalues --   -0.37510  -0.37441  -0.37215  -0.37156  -0.37096
 Alpha  occ. eigenvalues --   -0.36908  -0.36805  -0.36413  -0.36213  -0.36003
 Alpha  occ. eigenvalues --   -0.35946  -0.35654  -0.35631  -0.35183  -0.35084
 Alpha  occ. eigenvalues --   -0.34745  -0.34630  -0.34381  -0.34350  -0.33282
 Alpha  occ. eigenvalues --   -0.33239  -0.33013  -0.32873  -0.32861  -0.32212
 Alpha  occ. eigenvalues --   -0.31986  -0.31959  -0.31357  -0.31309  -0.31241
 Alpha  occ. eigenvalues --   -0.30850  -0.30436  -0.29997  -0.29213  -0.29069
 Alpha  occ. eigenvalues --   -0.29005  -0.28297  -0.27797  -0.26851  -0.26557
 Alpha  occ. eigenvalues --   -0.26035  -0.25576  -0.25312  -0.24969  -0.20627
 Alpha  occ. eigenvalues --   -0.18605
 Alpha virt. eigenvalues --   -0.11113  -0.05203  -0.04123  -0.02257  -0.00568
 Alpha virt. eigenvalues --   -0.00168   0.00175   0.01256   0.01781   0.02842
 Alpha virt. eigenvalues --    0.03302   0.03887   0.04953   0.05434   0.05638

 Mulliken charges:
               1
     1  Mg   0.995545
     2  C    0.045190
     3  C   -0.072506
     4  C   -0.037750
     5  C   -0.063647
     6  N   -0.409214
     7  C    0.019140
     8  C   -0.004103
     9  C   -0.194840
    10  C    0.101128
    11  C    0.020720
    12  C    0.043821
    13  C    0.003646
    14  C    0.193944
    15  O   -0.275795
    16  O   -0.361506
    17  N   -0.483850
    18  C    0.154920
    19  C   -0.189859
    20  C   -0.076136
    21  C    0.128761
    22  C    0.058754
    23  C    0.028487
    24  O   -0.267939
    25  C   -0.003102
    26  N   -0.366386
    27  C    0.054154
    28  C   -0.121298
    29  C   -0.075738
    30  C    0.024703
    31  C    0.043873
    32  C   -0.036834
    33  C   -0.052037
    34  N   -0.432403
    35  C    0.114004
    36  C   -0.219969
    37  C   -0.003626
    38  C    0.062853
    39  C    0.055262
    40  C    0.159276
    41  O   -0.179293
    42  C   -0.143683
    43  C    0.311256
    44  O   -0.305055
    45  O   -0.368607
    46  C    0.129918
    47  C    0.264846
    48  C   -0.172861
    49  C   -0.196263
    50  C   -0.024532
    51  C    0.039311
    52  C   -0.069573
    53  C   -0.038744
    54  C   -0.232880
    55  C    0.046216
    56  C   -0.026165
    57  C    0.004728
    58  C   -0.030648
    59  C   -0.232015
    60  C    0.003542
    61  C   -0.001034
    62  C   -0.086364
    63  C    0.022663
    64  C   -0.279693
    65  C   -0.016129
    66  C    0.009971
    67  H   -0.002940
    68  H    0.029442
    69  H    0.012179
    70  H    0.035045
    71  H    0.058660
    72  H    0.043058
    73  H    0.042363
    74  H    0.053344
    75  H    0.040820
    76  H    0.067417
    77  H    0.063098
    78  H    0.061320
    79  H    0.067304
    80  H    0.046926
    81  H    0.038832
    82  H    0.060552
    83  H    0.058692
    84  H    0.067728
    85  H    0.045963
    86  H    0.023599
    87  H    0.059061
    88  H    0.038235
    89  H    0.045874
    90  H    0.036122
    91  H    0.035973
    92  H    0.050694
    93  H    0.054521
    94  H    0.042638
    95  H    0.047819
    96  H    0.057981
    97  H    0.065178
    98  H    0.092783
    99  H    0.069300
   100  H    0.052957
   101  H    0.059367
   102  H    0.065035
   103  H    0.076087
   104  H    0.021616
   105  H    0.053443
   106  H    0.032866
   107  H    0.034802
   108  H    0.018502
   109  H    0.030710
   110  H    0.025049
   111  H    0.034559
   112  H    0.047172
   113  H    0.031911
   114  H    0.032506
   115  H    0.039254
   116  H    0.015557
   117  H    0.043814
   118  H    0.027960
   119  H    0.041049
   120  H    0.023805
   121  H    0.031298
   122  H    0.006139
   123  H    0.010884
   124  H    0.037130
   125  H    0.044154
   126  H    0.037725
   127  H    0.013695
   128  H    0.037434
   129  H    0.040192
   130  H    0.022978
   131  H    0.027622
   132  H    0.023702
   133  H    0.025757
   134  H    0.031036
   135  H    0.037892
   136  H    0.021931
   137  H    0.033627
   138  H    0.036902
   139  H    0.028467
   140  H    0.045282
 Sum of Mulliken charges =  -0.00000

 Dipole moment (field-independent basis, Debye):
    X=             -2.0499    Y=              3.1100    Z=              0.1802  Tot=              3.7292
 Quadrupole moment (field-independent basis, Debye-Ang):
   XX=           -371.8082   YY=           -417.6773   ZZ=           -404.4689
   XY=             -9.5860   XZ=              3.2965   YZ=            -10.1540

 Normal termination of Gaussian 16 at Wed Apr 27 15:28:50 2022.
