 Gaussian 16, Revision A.03,
 Gaussian 16:  ES64L-G16RevA.03 25-Dec-2016

 --------------------------------
 #p wB97XD/Def2SVP td=(nstates=5)
 --------------------------------

 ----------------------------------------------------
 step_1251_chromophore_1 TDDFT with wB97XD functional
 ----------------------------------------------------
 Symbolic Z-matrix:
 Charge =  0 Multiplicity = 1

                         Standard orientation:
 ---------------------------------------------------------------------
 Center     Atomic      Atomic             Coordinates (Angstroms)
 Number     Number       Type             X           Y           Z
 ---------------------------------------------------------------------
      1         12           0        5.900531    0.411647   -0.033814
      2          6           0        3.589124   -2.328385   -0.604695
      3          6           0        3.695742    2.514323   -1.551503
      4          6           0        8.194377    2.795714    0.309850
      5          6           0        8.312859   -1.963086    0.993896
      6          7           0        3.914455    0.113393   -0.862742
      7          6           0        3.098703   -1.014795   -0.957408
      8          6           0        1.618771   -0.630512   -1.296566
      9          6           0        1.801344    0.796913   -1.890062
     10          6           0        3.203036    1.153567   -1.458750
     11          6           0        1.727001    0.909518   -3.429341
     12          6           0        0.475569   -0.732141   -0.326103
     13          6           0       -0.937385   -0.403575   -0.899113
     14          6           0       -1.912423   -1.539791   -0.996522
     15          8           0       -1.956341   -2.456723   -1.816052
     16          8           0       -2.790542   -1.449468    0.045827
     17          7           0        5.869306    2.434853   -0.449199
     18          6           0        4.887883    3.128499   -1.074533
     19          6           0        5.204159    4.456052   -1.104827
     20          6           0        6.477798    4.647712   -0.505240
     21          6           0        6.916449    3.242795   -0.193566
     22          6           0        4.264404    5.479530   -1.785125
     23          6           0        7.284453    5.928398   -0.268762
     24          8           0        8.497198    5.853482    0.015614
     25          6           0        6.713418    7.346283   -0.345335
     26          7           0        7.995005    0.412610    0.494809
     27          6           0        8.773776    1.517950    0.396931
     28          6           0       10.202688    1.279194    0.720999
     29          6           0       10.181571   -0.016265    1.395818
     30          6           0        8.737933   -0.605207    0.944810
     31          6           0       11.153164    1.488017   -0.494430
     32          6           0       10.283463   -0.208804    2.918132
     33          6           0        9.622959    0.678306    3.993589
     34          7           0        5.993327   -1.673240    0.223271
     35          6           0        7.020443   -2.467316    0.527017
     36          6           0        6.641710   -3.891884    0.565804
     37          6           0        5.343590   -3.892424    0.167976
     38          6           0        4.962147   -2.519252   -0.098338
     39          6           0        7.558477   -5.119740    0.614025
     40          6           0        4.165251   -4.728452   -0.199499
     41          8           0        4.064648   -5.920678   -0.360988
     42          6           0        3.035143   -3.732173   -0.746812
     43          6           0        1.856889   -4.099522    0.021114
     44          8           0        1.552050   -3.540174    1.115030
     45          8           0        1.186541   -5.161466   -0.625018
     46          6           0       -0.099043   -5.389727    0.100434
     47          6           0       -3.854656   -2.453985    0.117302
     48          6           0       -5.166448   -1.805334   -0.222771
     49          6           0       -6.378107   -2.294634   -0.369254
     50          6           0       -6.581300   -3.789884   -0.286620
     51          6           0       -7.684886   -1.455631   -0.633006
     52          6           0       -8.345402   -0.494289    0.422063
     53          6           0       -8.830382    0.916694   -0.009585
     54          6           0       -8.507755    2.033877    1.065163
     55          6           0       -7.113412    2.468302    1.171391
     56          6           0       -9.303560    1.652967    2.358077
     57          6           0      -10.515749    2.600088    2.641683
     58          6           0      -11.648308    1.896168    3.352428
     59          6           0      -12.946375    1.742670    2.513200
     60          6           0      -13.989357    1.017655    3.341713
     61          6           0      -12.700342    0.709025    1.257522
     62          6           0      -12.945301    1.577328    0.053811
     63          6           0      -12.678269    0.788965   -1.250650
     64          6           0      -13.742788    1.017228   -2.271267
     65          6           0      -15.029362    0.381217   -1.772213
     66          6           0      -13.379842    0.594716   -3.734129
     67          1           0        2.975710    3.247703   -1.919764
     68          1           0        8.967615    3.555796    0.439802
     69          1           0        9.033418   -2.661060    1.425491
     70          1           0        1.513298   -1.296242   -2.153180
     71          1           0        1.071109    1.453269   -1.417764
     72          1           0        2.685294    1.179832   -3.872196
     73          1           0        1.144056    1.777682   -3.734943
     74          1           0        1.443350   -0.011457   -3.938061
     75          1           0        0.655591   -0.142894    0.573263
     76          1           0        0.383128   -1.705974    0.153637
     77          1           0       -0.820516   -0.146127   -1.951369
     78          1           0       -1.475782    0.365992   -0.345129
     79          1           0        3.443889    5.848189   -1.169269
     80          1           0        3.835672    4.917393   -2.615801
     81          1           0        4.916060    6.240551   -2.214848
     82          1           0        7.461247    8.042318    0.034517
     83          1           0        5.890266    7.413671    0.366177
     84          1           0        6.402190    7.404128   -1.388795
     85          1           0       10.509542    1.991348    1.487251
     86          1           0       10.973342   -0.585755    0.908534
     87          1           0       10.665643    1.915058   -1.371166
     88          1           0       11.664912    0.556296   -0.736156
     89          1           0       11.912007    2.193603   -0.157257
     90          1           0       11.349734   -0.175078    3.141713
     91          1           0        9.904250   -1.212929    3.108386
     92          1           0       10.265623    1.447761    4.420840
     93          1           0        9.151980   -0.019822    4.685052
     94          1           0        8.878517    1.239854    3.429772
     95          1           0        7.777945   -5.357746    1.654710
     96          1           0        8.480569   -4.865914    0.090562
     97          1           0        7.031101   -5.992471    0.228817
     98          1           0        2.834872   -3.922148   -1.801374
     99          1           0       -0.051993   -5.923994    1.050637
    100          1           0       -0.627718   -5.996990   -0.633351
    101          1           0       -0.635545   -4.443821    0.171930
    102          1           0       -3.978650   -2.808858    1.140036
    103          1           0       -3.842547   -3.309340   -0.557373
    104          1           0       -5.091095   -0.737328   -0.426185
    105          1           0       -6.582660   -4.198757   -1.296918
    106          1           0       -7.536090   -4.171807    0.074523
    107          1           0       -5.854027   -4.351096    0.299131
    108          1           0       -8.462246   -2.100642   -1.042684
    109          1           0       -7.417085   -0.854149   -1.501909
    110          1           0       -7.521558   -0.511851    1.137436
    111          1           0       -9.097750   -1.033861    0.996614
    112          1           0       -9.917131    0.838231    0.023125
    113          1           0       -8.491717    1.144751   -1.020717
    114          1           0       -9.058624    2.825062    0.557892
    115          1           0       -6.315664    1.935391    0.655034
    116          1           0       -6.848415    2.254623    2.206401
    117          1           0       -7.210858    3.541875    1.007973
    118          1           0       -8.648238    1.713289    3.227292
    119          1           0       -9.643785    0.622945    2.244879
    120          1           0      -10.880940    3.004045    1.697111
    121          1           0      -10.221310    3.438010    3.273007
    122          1           0      -11.939760    2.410549    4.267214
    123          1           0      -11.370083    0.944052    3.805855
    124          1           0      -13.206598    2.796986    2.417151
    125          1           0      -13.699723   -0.019966    3.505299
    126          1           0      -14.973434    1.189454    2.904402
    127          1           0      -14.028214    1.508345    4.314534
    128          1           0      -13.554262    0.030993    1.265673
    129          1           0      -11.718499    0.262191    1.101879
    130          1           0      -12.270365    2.426664    0.158147
    131          1           0      -13.944119    2.012364    0.070424
    132          1           0      -12.563763   -0.255277   -0.958525
    133          1           0      -11.716809    1.095139   -1.662216
    134          1           0      -14.015565    2.072450   -2.289165
    135          1           0      -14.792441   -0.540605   -1.241525
    136          1           0      -15.702306    0.155058   -2.599793
    137          1           0      -15.609961    1.119484   -1.217685
    138          1           0      -14.162759   -0.044371   -4.143962
    139          1           0      -12.449171    0.028235   -3.763863
    140          1           0      -13.194644    1.587669   -4.144016
 ---------------------------------------------------------------------

 SCF Done:  E(RwB97XD) =  -3007.81196595     A.U. after   20 cycles

 Excitation energies and oscillator strengths:

 Excited State   1:      Singlet-A      1.5851 eV  782.20 nm  f=0.3588  <S**2>=0.000
     245 -> 248       -0.19059
     246 -> 247        0.68322
     245 <- 248       -0.12191
 This state for optimization and/or second-order correction.
 Total Energy, E(TD-HF/TD-DFT) =  -3007.75371546
 Copying the excited state density for this state as the 1-particle RhoCI density.

 Excited State   2:      Singlet-A      2.1078 eV  588.22 nm  f=0.1232  <S**2>=0.000
     245 -> 247        0.64039
     246 -> 248        0.29181
     246 <- 248        0.10026

 Excited State   3:      Singlet-A      3.4466 eV  359.73 nm  f=0.1333  <S**2>=0.000
     242 -> 250        0.10257
     244 -> 247        0.54993
     244 -> 249        0.12352
     245 -> 247       -0.13061
     246 -> 248        0.35427

 Excited State   4:      Singlet-A      3.5344 eV  350.80 nm  f=0.4537  <S**2>=0.000
     241 -> 247       -0.28365
     242 -> 247        0.16718
     244 -> 247       -0.28512
     245 -> 247       -0.22165
     246 -> 248        0.47349

 Excited State   5:      Singlet-A      3.5842 eV  345.92 nm  f=0.0461  <S**2>=0.000
     241 -> 249        0.10569
     242 -> 247        0.52488
     242 -> 248        0.10856
     242 -> 249        0.20050
     242 -> 250        0.22295
     244 -> 249        0.11738
     244 -> 250        0.15486
     246 -> 248       -0.13673

 The electronic state is 1-A.
 Alpha  occ. eigenvalues --  -46.95205 -19.31046 -19.30594 -19.25382 -19.25123
 Alpha  occ. eigenvalues --  -19.24973 -19.23195 -14.47528 -14.46289 -14.44640
 Alpha  occ. eigenvalues --  -14.43784 -10.43525 -10.43451 -10.40397 -10.38998
 Alpha  occ. eigenvalues --  -10.36321 -10.36283 -10.35593 -10.34884 -10.34788
 Alpha  occ. eigenvalues --  -10.34562 -10.34406 -10.34161 -10.33856 -10.33258
 Alpha  occ. eigenvalues --  -10.32627 -10.32614 -10.32490 -10.32257 -10.32096
 Alpha  occ. eigenvalues --  -10.31922 -10.31511 -10.31434 -10.31403 -10.31358
 Alpha  occ. eigenvalues --  -10.31333 -10.31312 -10.30932 -10.30894 -10.30807
 Alpha  occ. eigenvalues --  -10.30249 -10.30137 -10.30132 -10.30116 -10.30037
 Alpha  occ. eigenvalues --  -10.29999 -10.29932 -10.29909 -10.29730 -10.29370
 Alpha  occ. eigenvalues --  -10.29346 -10.29252 -10.29211 -10.29204 -10.29084
 Alpha  occ. eigenvalues --  -10.29072 -10.28943 -10.28785 -10.28743 -10.28142
 Alpha  occ. eigenvalues --  -10.27993 -10.27963 -10.27932 -10.27929 -10.27926
 Alpha  occ. eigenvalues --  -10.27742  -3.21139  -1.94748  -1.94242  -1.94130
 Alpha  occ. eigenvalues --   -1.19103  -1.16525  -1.13812  -1.10409  -1.09934
 Alpha  occ. eigenvalues --   -1.08540  -1.06864  -1.06082  -1.05783  -1.04470
 Alpha  occ. eigenvalues --   -0.93847  -0.92462  -0.92261  -0.91698  -0.91518
 Alpha  occ. eigenvalues --   -0.91067  -0.90183  -0.89719  -0.89142  -0.88588
 Alpha  occ. eigenvalues --   -0.88274  -0.87333  -0.86012  -0.85504  -0.85310
 Alpha  occ. eigenvalues --   -0.84620  -0.83627  -0.83038  -0.82698  -0.82034
 Alpha  occ. eigenvalues --   -0.81762  -0.80236  -0.79406  -0.78971  -0.78028
 Alpha  occ. eigenvalues --   -0.77850  -0.77347  -0.77250  -0.76487  -0.75954
 Alpha  occ. eigenvalues --   -0.75701  -0.74654  -0.73969  -0.73252  -0.71569
 Alpha  occ. eigenvalues --   -0.70700  -0.69965  -0.69310  -0.68899  -0.67332
 Alpha  occ. eigenvalues --   -0.67287  -0.66686  -0.66590  -0.66075  -0.65667
 Alpha  occ. eigenvalues --   -0.65216  -0.64191  -0.63429  -0.63342  -0.62291
 Alpha  occ. eigenvalues --   -0.61908  -0.61649  -0.61208  -0.60729  -0.59859
 Alpha  occ. eigenvalues --   -0.59483  -0.59061  -0.57787  -0.57581  -0.57502
 Alpha  occ. eigenvalues --   -0.57318  -0.57142  -0.56813  -0.56665  -0.55885
 Alpha  occ. eigenvalues --   -0.55680  -0.55430  -0.55148  -0.54725  -0.54579
 Alpha  occ. eigenvalues --   -0.54565  -0.54463  -0.54034  -0.53934  -0.53787
 Alpha  occ. eigenvalues --   -0.53221  -0.53136  -0.52903  -0.52814  -0.52801
 Alpha  occ. eigenvalues --   -0.52429  -0.52374  -0.52118  -0.51511  -0.51446
 Alpha  occ. eigenvalues --   -0.51347  -0.51235  -0.50979  -0.50660  -0.50553
 Alpha  occ. eigenvalues --   -0.50344  -0.50175  -0.50005  -0.49769  -0.49715
 Alpha  occ. eigenvalues --   -0.49525  -0.49164  -0.49010  -0.48994  -0.48703
 Alpha  occ. eigenvalues --   -0.48458  -0.48190  -0.48094  -0.47932  -0.47761
 Alpha  occ. eigenvalues --   -0.47635  -0.47195  -0.47163  -0.46906  -0.46783
 Alpha  occ. eigenvalues --   -0.46536  -0.46415  -0.45959  -0.45743  -0.45668
 Alpha  occ. eigenvalues --   -0.45475  -0.45330  -0.45203  -0.44970  -0.44794
 Alpha  occ. eigenvalues --   -0.44692  -0.44667  -0.44326  -0.44239  -0.44149
 Alpha  occ. eigenvalues --   -0.43987  -0.43922  -0.43542  -0.43354  -0.43130
 Alpha  occ. eigenvalues --   -0.43000  -0.42785  -0.42633  -0.42308  -0.42042
 Alpha  occ. eigenvalues --   -0.41847  -0.41627  -0.41423  -0.41377  -0.40333
 Alpha  occ. eigenvalues --   -0.40166  -0.40059  -0.39954  -0.39746  -0.39283
 Alpha  occ. eigenvalues --   -0.39012  -0.38931  -0.38392  -0.38353  -0.38281
 Alpha  occ. eigenvalues --   -0.37824  -0.37360  -0.36780  -0.36251  -0.36230
 Alpha  occ. eigenvalues --   -0.36116  -0.34944  -0.34606  -0.33535  -0.33427
 Alpha  occ. eigenvalues --   -0.32762  -0.32381  -0.32103  -0.31778  -0.25546
 Alpha  occ. eigenvalues --   -0.22785
 Alpha virt. eigenvalues --   -0.07010   0.00246   0.02202   0.04257   0.06054
 Alpha virt. eigenvalues --    0.06312   0.06679   0.07767   0.08477   0.09213
 Alpha virt. eigenvalues --    0.09841   0.10732   0.11520   0.12231   0.12284

 Mulliken charges:
               1
     1  Mg   0.984319
     2  C    0.035611
     3  C   -0.091685
     4  C   -0.053635
     5  C   -0.084153
     6  N   -0.379279
     7  C   -0.009564
     8  C    0.019405
     9  C   -0.169789
    10  C    0.093552
    11  C    0.028076
    12  C    0.060622
    13  C    0.021207
    14  C    0.180039
    15  O   -0.271916
    16  O   -0.360150
    17  N   -0.449324
    18  C    0.146757
    19  C   -0.182037
    20  C   -0.070953
    21  C    0.120846
    22  C    0.074504
    23  C    0.024131
    24  O   -0.264312
    25  C    0.009626
    26  N   -0.334463
    27  C    0.040322
    28  C   -0.095794
    29  C   -0.051100
    30  C    0.013012
    31  C    0.052131
    32  C   -0.022698
    33  C   -0.033110
    34  N   -0.396894
    35  C    0.109483
    36  C   -0.218430
    37  C   -0.000987
    38  C    0.052780
    39  C    0.067772
    40  C    0.141164
    41  O   -0.170314
    42  C   -0.101983
    43  C    0.293622
    44  O   -0.300036
    45  O   -0.370197
    46  C    0.147519
    47  C    0.281634
    48  C   -0.184373
    49  C   -0.177466
    50  C   -0.014243
    51  C    0.052517
    52  C   -0.053377
    53  C    0.005189
    54  C   -0.205380
    55  C    0.054646
    56  C   -0.004742
    57  C    0.026203
    58  C   -0.020297
    59  C   -0.199046
    60  C    0.018194
    61  C    0.022635
    62  C   -0.065869
    63  C    0.039679
    64  C   -0.245483
    65  C   -0.005389
    66  C    0.020995
    67  H   -0.009956
    68  H    0.023956
    69  H    0.008363
    70  H    0.020595
    71  H    0.048341
    72  H    0.036438
    73  H    0.037323
    74  H    0.048265
    75  H    0.035152
    76  H    0.050800
    77  H    0.054321
    78  H    0.057552
    79  H    0.063610
    80  H    0.040414
    81  H    0.030608
    82  H    0.059343
    83  H    0.053947
    84  H    0.061077
    85  H    0.035115
    86  H    0.013115
    87  H    0.054112
    88  H    0.031999
    89  H    0.040630
    90  H    0.028890
    91  H    0.024986
    92  H    0.046015
    93  H    0.050142
    94  H    0.030516
    95  H    0.042859
    96  H    0.052976
    97  H    0.062200
    98  H    0.087997
    99  H    0.065968
   100  H    0.050142
   101  H    0.052394
   102  H    0.060517
   103  H    0.070348
   104  H    0.016360
   105  H    0.047590
   106  H    0.028232
   107  H    0.029459
   108  H    0.012187
   109  H    0.021420
   110  H    0.010775
   111  H    0.027549
   112  H    0.013165
   113  H    0.025058
   114  H    0.019332
   115  H    0.034194
   116  H    0.008082
   117  H    0.039522
   118  H    0.019884
   119  H    0.022667
   120  H    0.007492
   121  H    0.025294
   122  H   -0.002445
   123  H    0.001020
   124  H    0.026318
   125  H    0.037160
   126  H    0.031388
   127  H    0.006758
   128  H    0.024781
   129  H    0.025274
   130  H    0.009316
   131  H    0.015183
   132  H    0.012477
   133  H    0.016580
   134  H    0.019096
   135  H    0.030611
   136  H    0.015591
   137  H    0.027566
   138  H    0.031587
   139  H    0.022787
   140  H    0.039899
 Sum of Mulliken charges =  -0.00000

 Dipole moment (field-independent basis, Debye):
    X=             -2.1741    Y=              2.9888    Z=              0.1996  Tot=              3.7013
 Quadrupole moment (field-independent basis, Debye-Ang):
   XX=           -373.1036   YY=           -415.8005   ZZ=           -404.2294
   XY=             -9.9414   XZ=              3.2247   YZ=            -10.2805

 Normal termination of Gaussian 16 at Wed Apr 27 15:53:39 2022.
