 Gaussian 16, Revision A.03,
 Gaussian 16:  ES64L-G16RevA.03 25-Dec-2016

 --------------------
 #p ZINDO=(nstates=5)
 --------------------

 -----------------------------
 step_1251_chromophore_1 ZINDO
 -----------------------------
 Symbolic Z-matrix:
 Charge =  0 Multiplicity = 1

                         Standard orientation:
 ---------------------------------------------------------------------
 Center     Atomic      Atomic             Coordinates (Angstroms)
 Number     Number       Type             X           Y           Z
 ---------------------------------------------------------------------
      1         12           0        5.900531    0.411647   -0.033814
      2          6           0        3.589124   -2.328385   -0.604695
      3          6           0        3.695742    2.514323   -1.551503
      4          6           0        8.194377    2.795714    0.309850
      5          6           0        8.312859   -1.963086    0.993896
      6          7           0        3.914455    0.113393   -0.862742
      7          6           0        3.098703   -1.014795   -0.957408
      8          6           0        1.618771   -0.630512   -1.296566
      9          6           0        1.801344    0.796913   -1.890062
     10          6           0        3.203036    1.153567   -1.458750
     11          6           0        1.727001    0.909518   -3.429341
     12          6           0        0.475569   -0.732141   -0.326103
     13          6           0       -0.937385   -0.403575   -0.899113
     14          6           0       -1.912423   -1.539791   -0.996522
     15          8           0       -1.956341   -2.456723   -1.816052
     16          8           0       -2.790542   -1.449468    0.045827
     17          7           0        5.869306    2.434853   -0.449199
     18          6           0        4.887883    3.128499   -1.074533
     19          6           0        5.204159    4.456052   -1.104827
     20          6           0        6.477798    4.647712   -0.505240
     21          6           0        6.916449    3.242795   -0.193566
     22          6           0        4.264404    5.479530   -1.785125
     23          6           0        7.284453    5.928398   -0.268762
     24          8           0        8.497198    5.853482    0.015614
     25          6           0        6.713418    7.346283   -0.345335
     26          7           0        7.995005    0.412610    0.494809
     27          6           0        8.773776    1.517950    0.396931
     28          6           0       10.202688    1.279194    0.720999
     29          6           0       10.181571   -0.016265    1.395818
     30          6           0        8.737933   -0.605207    0.944810
     31          6           0       11.153164    1.488017   -0.494430
     32          6           0       10.283463   -0.208804    2.918132
     33          6           0        9.622959    0.678306    3.993589
     34          7           0        5.993327   -1.673240    0.223271
     35          6           0        7.020443   -2.467316    0.527017
     36          6           0        6.641710   -3.891884    0.565804
     37          6           0        5.343590   -3.892424    0.167976
     38          6           0        4.962147   -2.519252   -0.098338
     39          6           0        7.558477   -5.119740    0.614025
     40          6           0        4.165251   -4.728452   -0.199499
     41          8           0        4.064648   -5.920678   -0.360988
     42          6           0        3.035143   -3.732173   -0.746812
     43          6           0        1.856889   -4.099522    0.021114
     44          8           0        1.552050   -3.540174    1.115030
     45          8           0        1.186541   -5.161466   -0.625018
     46          6           0       -0.099043   -5.389727    0.100434
     47          6           0       -3.854656   -2.453985    0.117302
     48          6           0       -5.166448   -1.805334   -0.222771
     49          6           0       -6.378107   -2.294634   -0.369254
     50          6           0       -6.581300   -3.789884   -0.286620
     51          6           0       -7.684886   -1.455631   -0.633006
     52          6           0       -8.345402   -0.494289    0.422063
     53          6           0       -8.830382    0.916694   -0.009585
     54          6           0       -8.507755    2.033877    1.065163
     55          6           0       -7.113412    2.468302    1.171391
     56          6           0       -9.303560    1.652967    2.358077
     57          6           0      -10.515749    2.600088    2.641683
     58          6           0      -11.648308    1.896168    3.352428
     59          6           0      -12.946375    1.742670    2.513200
     60          6           0      -13.989357    1.017655    3.341713
     61          6           0      -12.700342    0.709025    1.257522
     62          6           0      -12.945301    1.577328    0.053811
     63          6           0      -12.678269    0.788965   -1.250650
     64          6           0      -13.742788    1.017228   -2.271267
     65          6           0      -15.029362    0.381217   -1.772213
     66          6           0      -13.379842    0.594716   -3.734129
     67          1           0        2.975710    3.247703   -1.919764
     68          1           0        8.967615    3.555796    0.439802
     69          1           0        9.033418   -2.661060    1.425491
     70          1           0        1.513298   -1.296242   -2.153180
     71          1           0        1.071109    1.453269   -1.417764
     72          1           0        2.685294    1.179832   -3.872196
     73          1           0        1.144056    1.777682   -3.734943
     74          1           0        1.443350   -0.011457   -3.938061
     75          1           0        0.655591   -0.142894    0.573263
     76          1           0        0.383128   -1.705974    0.153637
     77          1           0       -0.820516   -0.146127   -1.951369
     78          1           0       -1.475782    0.365992   -0.345129
     79          1           0        3.443889    5.848189   -1.169269
     80          1           0        3.835672    4.917393   -2.615801
     81          1           0        4.916060    6.240551   -2.214848
     82          1           0        7.461247    8.042318    0.034517
     83          1           0        5.890266    7.413671    0.366177
     84          1           0        6.402190    7.404128   -1.388795
     85          1           0       10.509542    1.991348    1.487251
     86          1           0       10.973342   -0.585755    0.908534
     87          1           0       10.665643    1.915058   -1.371166
     88          1           0       11.664912    0.556296   -0.736156
     89          1           0       11.912007    2.193603   -0.157257
     90          1           0       11.349734   -0.175078    3.141713
     91          1           0        9.904250   -1.212929    3.108386
     92          1           0       10.265623    1.447761    4.420840
     93          1           0        9.151980   -0.019822    4.685052
     94          1           0        8.878517    1.239854    3.429772
     95          1           0        7.777945   -5.357746    1.654710
     96          1           0        8.480569   -4.865914    0.090562
     97          1           0        7.031101   -5.992471    0.228817
     98          1           0        2.834872   -3.922148   -1.801374
     99          1           0       -0.051993   -5.923994    1.050637
    100          1           0       -0.627718   -5.996990   -0.633351
    101          1           0       -0.635545   -4.443821    0.171930
    102          1           0       -3.978650   -2.808858    1.140036
    103          1           0       -3.842547   -3.309340   -0.557373
    104          1           0       -5.091095   -0.737328   -0.426185
    105          1           0       -6.582660   -4.198757   -1.296918
    106          1           0       -7.536090   -4.171807    0.074523
    107          1           0       -5.854027   -4.351096    0.299131
    108          1           0       -8.462246   -2.100642   -1.042684
    109          1           0       -7.417085   -0.854149   -1.501909
    110          1           0       -7.521558   -0.511851    1.137436
    111          1           0       -9.097750   -1.033861    0.996614
    112          1           0       -9.917131    0.838231    0.023125
    113          1           0       -8.491717    1.144751   -1.020717
    114          1           0       -9.058624    2.825062    0.557892
    115          1           0       -6.315664    1.935391    0.655034
    116          1           0       -6.848415    2.254623    2.206401
    117          1           0       -7.210858    3.541875    1.007973
    118          1           0       -8.648238    1.713289    3.227292
    119          1           0       -9.643785    0.622945    2.244879
    120          1           0      -10.880940    3.004045    1.697111
    121          1           0      -10.221310    3.438010    3.273007
    122          1           0      -11.939760    2.410549    4.267214
    123          1           0      -11.370083    0.944052    3.805855
    124          1           0      -13.206598    2.796986    2.417151
    125          1           0      -13.699723   -0.019966    3.505299
    126          1           0      -14.973434    1.189454    2.904402
    127          1           0      -14.028214    1.508345    4.314534
    128          1           0      -13.554262    0.030993    1.265673
    129          1           0      -11.718499    0.262191    1.101879
    130          1           0      -12.270365    2.426664    0.158147
    131          1           0      -13.944119    2.012364    0.070424
    132          1           0      -12.563763   -0.255277   -0.958525
    133          1           0      -11.716809    1.095139   -1.662216
    134          1           0      -14.015565    2.072450   -2.289165
    135          1           0      -14.792441   -0.540605   -1.241525
    136          1           0      -15.702306    0.155058   -2.599793
    137          1           0      -15.609961    1.119484   -1.217685
    138          1           0      -14.162759   -0.044371   -4.143962
    139          1           0      -12.449171    0.028235   -3.763863
    140          1           0      -13.194644    1.587669   -4.144016
 ---------------------------------------------------------------------

 SCF Done:  E(RZINDO/S) =  -474.170592922     A.U. after   20 cycles

 Excitation energies and oscillator strengths:

 Excited State   1:      Singlet-A      1.2016 eV 1031.84 nm  f=0.5848  <S**2>=0.000
     175 ->178        -0.18890
     176 ->177         0.66153
 This state for optimization and/or second-order correction.
 Total Energy, E(CIS/TDA) =  -474.126435532
 Copying the excited state density for this state as the 1-particle RhoCI density.

 Excited State   2:      Singlet-A      1.8553 eV  668.27 nm  f=0.0531  <S**2>=0.000
     175 ->177         0.55122
     176 ->178         0.40873

 Excited State   3:      Singlet-A      2.8913 eV  428.82 nm  f=0.2348  <S**2>=0.000
     168 ->177        -0.10003
     168 ->179         0.15107
     175 ->177        -0.20150
     176 ->178         0.37733
     176 ->179         0.45179
     176 ->182         0.10156

 Excited State   4:      Singlet-A      2.9545 eV  419.65 nm  f=0.0669  <S**2>=0.000
     168 ->177         0.11756
     168 ->179        -0.12998
     169 ->177         0.23164
     169 ->179         0.23590
     169 ->180         0.33781
     169 ->182        -0.14822
     169 ->185         0.20408
     169 ->187        -0.17223
     172 ->177        -0.11291
     176 ->178         0.13046

 Excited State   5:      Singlet-A      2.9614 eV  418.66 nm  f=0.0526  <S**2>=0.000
     168 ->177        -0.24638
     168 ->178         0.18771
     168 ->179         0.36675
     168 ->182         0.15385
     168 ->185         0.16976
     169 ->177         0.12220
     169 ->180         0.14556
     176 ->178        -0.13914
     176 ->179        -0.19092

 The electronic state is 1-A.
 Alpha  occ. eigenvalues --   -1.83718  -1.82223  -1.80303  -1.73941  -1.71706
 Alpha  occ. eigenvalues --   -1.70691  -1.68336  -1.61554  -1.57882  -1.56643
 Alpha  occ. eigenvalues --   -1.55795  -1.51826  -1.48388  -1.47951  -1.45959
 Alpha  occ. eigenvalues --   -1.43778  -1.41251  -1.39290  -1.38845  -1.38620
 Alpha  occ. eigenvalues --   -1.36152  -1.33844  -1.33208  -1.30888  -1.30112
 Alpha  occ. eigenvalues --   -1.29226  -1.24139  -1.22205  -1.20651  -1.17273
 Alpha  occ. eigenvalues --   -1.16660  -1.16289  -1.15592  -1.15029  -1.13240
 Alpha  occ. eigenvalues --   -1.11517  -1.09974  -1.09111  -1.05627  -1.03947
 Alpha  occ. eigenvalues --   -1.03092  -1.01339  -1.00710  -0.98323  -0.97085
 Alpha  occ. eigenvalues --   -0.95777  -0.94970  -0.93301  -0.93233  -0.92543
 Alpha  occ. eigenvalues --   -0.90300  -0.88921  -0.87938  -0.87694  -0.85331
 Alpha  occ. eigenvalues --   -0.84587  -0.83817  -0.82559  -0.81744  -0.80733
 Alpha  occ. eigenvalues --   -0.79821  -0.79000  -0.78594  -0.76349  -0.75718
 Alpha  occ. eigenvalues --   -0.75426  -0.74943  -0.74709  -0.73867  -0.73375
 Alpha  occ. eigenvalues --   -0.73250  -0.72761  -0.71796  -0.71474  -0.70879
 Alpha  occ. eigenvalues --   -0.70093  -0.69641  -0.69376  -0.68376  -0.67935
 Alpha  occ. eigenvalues --   -0.67249  -0.66871  -0.66804  -0.66500  -0.65900
 Alpha  occ. eigenvalues --   -0.65096  -0.64599  -0.64187  -0.63631  -0.63418
 Alpha  occ. eigenvalues --   -0.63174  -0.62706  -0.62603  -0.62198  -0.61928
 Alpha  occ. eigenvalues --   -0.61784  -0.61262  -0.61066  -0.60235  -0.60008
 Alpha  occ. eigenvalues --   -0.59313  -0.59237  -0.58917  -0.58658  -0.58570
 Alpha  occ. eigenvalues --   -0.57991  -0.57382  -0.57273  -0.56671  -0.56401
 Alpha  occ. eigenvalues --   -0.55573  -0.55445  -0.55011  -0.54595  -0.53795
 Alpha  occ. eigenvalues --   -0.53759  -0.53361  -0.52995  -0.52917  -0.52409
 Alpha  occ. eigenvalues --   -0.52012  -0.51942  -0.51660  -0.51482  -0.51273
 Alpha  occ. eigenvalues --   -0.51041  -0.50847  -0.50585  -0.50516  -0.50135
 Alpha  occ. eigenvalues --   -0.50052  -0.49912  -0.49235  -0.48998  -0.48959
 Alpha  occ. eigenvalues --   -0.48646  -0.48543  -0.48255  -0.47643  -0.47610
 Alpha  occ. eigenvalues --   -0.47428  -0.47223  -0.47000  -0.46793  -0.46040
 Alpha  occ. eigenvalues --   -0.45978  -0.45952  -0.45907  -0.45421  -0.44929
 Alpha  occ. eigenvalues --   -0.44893  -0.44538  -0.44106  -0.44009  -0.43626
 Alpha  occ. eigenvalues --   -0.43486  -0.42839  -0.42437  -0.41871  -0.41650
 Alpha  occ. eigenvalues --   -0.41533  -0.41363  -0.40158  -0.38856  -0.38757
 Alpha  occ. eigenvalues --   -0.37759  -0.37443  -0.35844  -0.34735  -0.34421
 Alpha  occ. eigenvalues --   -0.33387  -0.32461  -0.32298  -0.31945  -0.26234
 Alpha  occ. eigenvalues --   -0.21539
 Alpha virt. eigenvalues --   -0.08475  -0.02037  -0.00842   0.01013   0.01800
 Alpha virt. eigenvalues --    0.02339   0.02626   0.03157   0.04388   0.05646
 Alpha virt. eigenvalues --    0.05868   0.06346   0.07321   0.07682   0.07788

 Mulliken charges:
               1
     1  Mg   0.426713
     2  C   -0.053831
     3  C   -0.094493
     4  C   -0.072052
     5  C   -0.090151
     6  N   -0.286316
     7  C    0.119868
     8  C    0.014750
     9  C    0.009671
    10  C    0.119706
    11  C   -0.051012
    12  C   -0.005851
    13  C    0.005139
    14  C    0.474325
    15  O   -0.530786
    16  O   -0.265305
    17  N   -0.311496
    18  C    0.104564
    19  C    0.001048
    20  C   -0.057639
    21  C    0.136827
    22  C   -0.055407
    23  C    0.317915
    24  O   -0.542909
    25  C   -0.028414
    26  N   -0.266134
    27  C    0.135922
    28  C    0.020575
    29  C    0.015430
    30  C    0.118390
    31  C   -0.047852
    32  C   -0.027157
    33  C   -0.057468
    34  N   -0.295924
    35  C    0.118524
    36  C    0.024623
    37  C   -0.037718
    38  C    0.091513
    39  C   -0.037603
    40  C    0.340117
    41  O   -0.488749
    42  C    0.070160
    43  C    0.490615
    44  O   -0.545890
    45  O   -0.257239
    46  C    0.073827
    47  C    0.107536
    48  C   -0.068812
    49  C   -0.011991
    50  C   -0.049290
    51  C   -0.028762
    52  C   -0.038232
    53  C   -0.034477
    54  C   -0.011121
    55  C   -0.053367
    56  C   -0.034583
    57  C   -0.033610
    58  C   -0.040717
    59  C   -0.028039
    60  C   -0.057594
    61  C   -0.042026
    62  C   -0.042803
    63  C   -0.028922
    64  C   -0.012078
    65  C   -0.058627
    66  C   -0.067055
    67  H    0.019936
    68  H    0.037655
    69  H    0.030008
    70  H    0.026415
    71  H    0.030658
    72  H    0.019683
    73  H    0.019712
    74  H    0.028050
    75  H    0.027741
    76  H    0.038343
    77  H    0.037707
    78  H    0.040623
    79  H    0.038025
    80  H    0.022577
    81  H    0.024423
    82  H    0.045914
    83  H    0.031913
    84  H    0.048397
    85  H    0.025721
    86  H    0.021133
    87  H    0.032574
    88  H    0.021954
    89  H    0.020123
    90  H    0.008945
    91  H    0.019213
    92  H    0.029526
    93  H    0.029966
    94  H    0.019010
    95  H    0.029501
    96  H    0.032384
    97  H    0.038214
    98  H    0.059880
    99  H    0.055685
   100  H    0.024212
   101  H    0.046413
   102  H    0.045211
   103  H    0.066864
   104  H    0.018425
   105  H    0.026053
   106  H    0.015691
   107  H    0.019371
   108  H    0.014230
   109  H    0.015211
   110  H    0.014583
   111  H    0.019488
   112  H    0.017014
   113  H    0.025044
   114  H    0.007356
   115  H    0.030707
   116  H    0.010737
   117  H    0.025582
   118  H    0.018068
   119  H    0.027620
   120  H    0.021927
   121  H    0.017973
   122  H    0.004384
   123  H    0.013049
   124  H    0.040820
   125  H    0.026578
   126  H    0.017403
   127  H    0.002346
   128  H    0.026674
   129  H    0.043321
   130  H    0.012428
   131  H    0.020374
   132  H    0.019926
   133  H    0.008089
   134  H    0.014681
   135  H    0.023597
   136  H    0.007298
   137  H    0.017758
   138  H    0.030450
   139  H    0.016651
   140  H    0.026525
 Sum of Mulliken charges =  -0.00000

 Dipole moment (field-independent basis, Debye):
    X=             -2.6758    Y=              3.4858    Z=             -1.2210  Tot=              4.5609
 N-N= 4.281430347999D+03 E-N= 0.000000000000D+00  KE=-9.237392679158D+03
 Leave Link  601 at Wed Apr 27 16:05:40 2022, MaxMem=  6710886400 cpu:               2.6 elap:               0.1
 (Enter /sw/apps/gaussian-16.0/g16/l9999.exe)
 1\1\GINC-BP1-COMPUTE216\SP\RZINDO CIS\STO-3G\C55H74Mg1N4O6\OF15641\27-
 Apr-2022\0\\#p ZINDO=(nstates=5)\\step_1251_chromophore_1 ZINDO\\0,1\M
 g,0,-1.018,17.271,26.855\C,0,-1.464,15.185,29.792\C,0,-2.078,19.951,28
 .666\C,0,-0.819,19.038,24.044\C,0,-0.489,14.329,24.963\N,0,-1.593,17.5
 06,28.937\C,0,-1.656,16.603,29.999\C,0,-1.767,17.339,31.377\C,0,-2.279
 ,18.741,30.935\C,0,-2.015,18.732,29.449\C,0,-3.783,19.018,31.156\C,0,-
 0.662,17.4,32.394\C,0,-1.017,18.09,33.747\C,0,-1.062,17.215,34.965\O,0

 Normal termination of Gaussian 16 at Wed Apr 27 16:05:40 2022.
