 Gaussian 16, Revision A.03,
 Gaussian 16:  ES64L-G16RevA.03 25-Dec-2016

 ------------------------------
 #p blyp/Def2SVP td=(nstates=5)
 ------------------------------

 --------------------------------------------------
 step_601_chromophore_27 TDDFT with blyp functional
 --------------------------------------------------
 Symbolic Z-matrix:
 Charge =  0 Multiplicity = 1

                         Standard orientation:
 ---------------------------------------------------------------------
 Center     Atomic      Atomic             Coordinates (Angstroms)
 Number     Number       Type             X           Y           Z
 ---------------------------------------------------------------------
      1         12           0       -4.647416    0.888093   -0.161496
      2          6           0       -4.049220   -2.465304    0.636864
      3          6           0       -1.251372    1.420613    0.012150
      4          6           0       -5.160923    4.063459   -0.822487
      5          6           0       -8.071599    0.272937    0.131862
      6          7           0       -2.859092   -0.409794    0.222708
      7          6           0       -2.869349   -1.726886    0.381103
      8          6           0       -1.433794   -2.280713    0.213946
      9          6           0       -0.507484   -1.044115    0.148126
     10          6           0       -1.601636    0.086026    0.135805
     11          6           0        0.245786   -0.796027    1.407433
     12          6           0       -1.252398   -3.239483   -0.987577
     13          6           0       -0.178898   -4.353614   -0.692903
     14          6           0        1.155167   -4.315292   -1.447096
     15          8           0        1.283608   -4.569824   -2.640178
     16          8           0        2.243832   -4.072931   -0.660245
     17          7           0       -3.356347    2.562243   -0.207030
     18          6           0       -2.021523    2.620234   -0.101867
     19          6           0       -1.493303    3.911094   -0.229019
     20          6           0       -2.651782    4.762977   -0.380927
     21          6           0       -3.819421    3.845414   -0.494502
     22          6           0        0.037953    4.177605   -0.052497
     23          6           0       -2.773990    6.292924   -0.394841
     24          8           0       -3.875805    6.826787   -0.581181
     25          6           0       -1.604587    7.104134   -0.096518
     26          7           0       -6.425847    1.993893   -0.391720
     27          6           0       -6.328590    3.315348   -0.696364
     28          6           0       -7.653226    3.953930   -0.672136
     29          6           0       -8.685135    2.759299   -0.273324
     30          6           0       -7.661289    1.582786   -0.230089
     31          6           0       -7.736148    5.233929    0.158007
     32          6           0       -9.721574    2.528297   -1.385130
     33          6           0      -11.098542    2.019602   -0.882853
     34          7           0       -5.874988   -0.725993    0.331534
     35          6           0       -7.221818   -0.853676    0.328370
     36          6           0       -7.632701   -2.273963    0.537100
     37          6           0       -6.401008   -2.921330    0.688822
     38          6           0       -5.362645   -1.926967    0.585448
     39          6           0       -8.983883   -2.869034    0.594177
     40          6           0       -5.768215   -4.216014    0.864836
     41          8           0       -6.175970   -5.368568    0.925677
     42          6           0       -4.249967   -3.934152    0.842393
     43          6           0       -3.684952   -4.363651    2.133410
     44          8           0       -3.654667   -3.736222    3.210411
     45          8           0       -3.060127   -5.545382    1.911493
     46          6           0       -2.392134   -6.013086    3.180558
     47          6           0        3.513980   -4.354876   -1.313099
     48          6           0        4.354386   -3.179187   -1.715640
     49          6           0        5.638241   -2.920982   -1.387501
     50          6           0        6.603605   -3.849503   -0.681851
     51          6           0        6.170808   -1.482872   -1.682191
     52          6           0        6.392403   -1.355797   -3.168831
     53          6           0        7.956882   -1.202729   -3.431499
     54          6           0        8.362683    0.133382   -4.193059
     55          6           0        8.652282   -0.169082   -5.687963
     56          6           0        9.525378    0.901581   -3.508754
     57          6           0        8.941595    1.648328   -2.272273
     58          6           0       10.026143    2.071481   -1.294752
     59          6           0        9.777681    1.518102    0.138559
     60          6           0       10.242981    0.088839    0.203954
     61          6           0       10.515591    2.505557    1.097349
     62          6           0        9.754120    2.517785    2.421532
     63          6           0       10.330643    1.598183    3.630901
     64          6           0       10.404620    2.295772    4.991090
     65          6           0       11.469795    1.777308    5.965673
     66          6           0        9.024902    2.378248    5.749456
     67          1           0       -0.192385    1.578222   -0.205190
     68          1           0       -5.287485    5.136800   -0.980510
     69          1           0       -9.153153    0.130418    0.164884
     70          1           0       -1.293996   -2.774143    1.176200
     71          1           0        0.158827   -0.929287   -0.706728
     72          1           0        0.502542   -1.736439    1.895500
     73          1           0       -0.293520   -0.090203    2.038518
     74          1           0        1.238805   -0.432628    1.142925
     75          1           0       -1.040458   -2.685248   -1.901952
     76          1           0       -2.205710   -3.699766   -1.248124
     77          1           0       -0.681154   -5.305828   -0.864803
     78          1           0        0.142180   -4.331473    0.348584
     79          1           0        0.416742    3.963720    0.947143
     80          1           0        0.201719    5.225493   -0.303728
     81          1           0        0.647571    3.577543   -0.727906
     82          1           0       -0.907895    7.073089   -0.934758
     83          1           0       -1.051286    6.802768    0.793029
     84          1           0       -1.981241    8.093508    0.161663
     85          1           0       -7.763712    4.001738   -1.755717
     86          1           0       -9.153040    2.890503    0.702908
     87          1           0       -7.083090    5.183376    1.029674
     88          1           0       -8.750129    5.468250    0.482708
     89          1           0       -7.629505    6.074802   -0.526208
     90          1           0       -9.451171    1.644032   -1.961268
     91          1           0       -9.807431    3.363869   -2.079626
     92          1           0      -11.323870    0.976319   -1.104421
     93          1           0      -11.907367    2.689456   -1.175742
     94          1           0      -11.145321    2.154443    0.197267
     95          1           0       -9.503834   -2.448606    1.454142
     96          1           0       -8.894596   -3.945163    0.745506
     97          1           0       -9.471267   -2.512638   -0.312471
     98          1           0       -3.868661   -4.534576    0.016607
     99          1           0       -3.090419   -6.321662    3.958180
    100          1           0       -1.665864   -5.333312    3.627682
    101          1           0       -1.874558   -6.888715    2.788691
    102          1           0        3.351479   -5.037767   -2.146467
    103          1           0        4.130204   -4.802021   -0.533643
    104          1           0        3.837788   -2.329724   -2.163952
    105          1           0        6.951933   -3.377252    0.237499
    106          1           0        7.378353   -4.127565   -1.396679
    107          1           0        6.169715   -4.847863   -0.629038
    108          1           0        6.979882   -1.404572   -0.956415
    109          1           0        5.405301   -0.764137   -1.388912
    110          1           0        5.969592   -0.471716   -3.646186
    111          1           0        6.106327   -2.257793   -3.709555
    112          1           0        8.384963   -1.938871   -4.111068
    113          1           0        8.479969   -1.328264   -2.483097
    114          1           0        7.566464    0.878245   -4.223643
    115          1           0        9.671785   -0.553205   -5.670169
    116          1           0        8.496989    0.827900   -6.100405
    117          1           0        7.877305   -0.861986   -6.017801
    118          1           0       10.030105    1.572449   -4.203954
    119          1           0       10.209153    0.127617   -3.159924
    120          1           0        8.066772    1.181892   -1.818722
    121          1           0        8.572308    2.549808   -2.760470
    122          1           0       10.020659    3.159508   -1.359430
    123          1           0       11.007609    1.772806   -1.662711
    124          1           0        8.689658    1.510130    0.201161
    125          1           0       10.692680   -0.229200   -0.737243
    126          1           0        9.414868   -0.580172    0.436827
    127          1           0       10.965853   -0.056788    1.007320
    128          1           0       10.486610    3.539918    0.752511
    129          1           0       11.586623    2.302380    1.114518
    130          1           0        8.745450    2.153672    2.226315
    131          1           0        9.712977    3.578746    2.668107
    132          1           0       11.263365    1.121915    3.326138
    133          1           0        9.747332    0.696862    3.820117
    134          1           0       10.576943    3.352020    4.783892
    135          1           0       11.237219    1.637443    7.020612
    136          1           0       12.303795    2.480311    5.964455
    137          1           0       11.750061    0.833859    5.498485
    138          1           0        9.105413    1.879481    6.715113
    139          1           0        8.218105    1.827618    5.264776
    140          1           0        8.650943    3.394191    5.872370
 ---------------------------------------------------------------------

 SCF Done:  E(RB-LYP) =  -3007.35500623     A.U. after   21 cycles

 Excitation energies and oscillator strengths:

 Excited State   1:      Singlet-A      1.8194 eV  681.46 nm  f=0.3187  <S**2>=0.000
     245 -> 248       -0.17938
     245 -> 249        0.10697
     246 -> 247        0.68566
     246 <- 247       -0.14853
 This state for optimization and/or second-order correction.
 Total Energy, E(TD-HF/TD-DFT) =  -3007.28814440
 Copying the excited state density for this state as the 1-particle RhoCI density.

 Excited State   2:      Singlet-A      1.9747 eV  627.86 nm  f=0.0744  <S**2>=0.000
     245 -> 247        0.65071
     246 -> 248        0.19431
     246 -> 249       -0.12240

 Excited State   3:      Singlet-A      2.1096 eV  587.71 nm  f=0.0007  <S**2>=0.000
     244 -> 247        0.70411

 Excited State   4:      Singlet-A      2.1478 eV  577.26 nm  f=0.0028  <S**2>=0.000
     243 -> 247        0.69978

 Excited State   5:      Singlet-A      2.3385 eV  530.19 nm  f=0.0001  <S**2>=0.000
     242 -> 247        0.70709

 The electronic state is 1-A.
 Alpha  occ. eigenvalues --  -46.27461 -18.82711 -18.82547 -18.76470 -18.76335
 Alpha  occ. eigenvalues --  -18.76004 -18.75666 -14.03040 -14.02950 -14.01118
 Alpha  occ. eigenvalues --  -14.00547 -10.04089 -10.03527  -9.99844  -9.99744
 Alpha  occ. eigenvalues --   -9.97613  -9.97402  -9.96603  -9.96310  -9.96003
 Alpha  occ. eigenvalues --   -9.95971  -9.95915  -9.95521  -9.94742  -9.94571
 Alpha  occ. eigenvalues --   -9.94076  -9.93994  -9.93987  -9.93921  -9.93866
 Alpha  occ. eigenvalues --   -9.93681  -9.93591  -9.93560  -9.93450  -9.93345
 Alpha  occ. eigenvalues --   -9.93266  -9.93180  -9.93122  -9.93057  -9.92762
 Alpha  occ. eigenvalues --   -9.92665  -9.92563  -9.92296  -9.92104  -9.92087
 Alpha  occ. eigenvalues --   -9.92065  -9.91948  -9.91896  -9.91865  -9.91756
 Alpha  occ. eigenvalues --   -9.91622  -9.91579  -9.91571  -9.91561  -9.91510
 Alpha  occ. eigenvalues --   -9.91463  -9.91320  -9.91255  -9.91228  -9.91082
 Alpha  occ. eigenvalues --   -9.91081  -9.90892  -9.90873  -9.90761  -9.90511
 Alpha  occ. eigenvalues --   -9.90384  -2.92022  -1.72462  -1.71892  -1.71736
 Alpha  occ. eigenvalues --   -0.98445  -0.97667  -0.91548  -0.91011  -0.89444
 Alpha  occ. eigenvalues --   -0.88619  -0.87437  -0.86868  -0.86312  -0.85033
 Alpha  occ. eigenvalues --   -0.75852  -0.73910  -0.73340  -0.73086  -0.72227
 Alpha  occ. eigenvalues --   -0.71914  -0.71772  -0.71254  -0.70843  -0.70519
 Alpha  occ. eigenvalues --   -0.69777  -0.69174  -0.68198  -0.67643  -0.67234
 Alpha  occ. eigenvalues --   -0.66616  -0.66257  -0.65570  -0.65097  -0.64458
 Alpha  occ. eigenvalues --   -0.64358  -0.62883  -0.62202  -0.61665  -0.60841
 Alpha  occ. eigenvalues --   -0.60586  -0.60338  -0.60200  -0.59754  -0.58993
 Alpha  occ. eigenvalues --   -0.58172  -0.57688  -0.56895  -0.55705  -0.54569
 Alpha  occ. eigenvalues --   -0.54178  -0.53815  -0.52791  -0.52680  -0.52023
 Alpha  occ. eigenvalues --   -0.51689  -0.50854  -0.50676  -0.50341  -0.50296
 Alpha  occ. eigenvalues --   -0.49443  -0.49187  -0.48440  -0.48414  -0.46327
 Alpha  occ. eigenvalues --   -0.46225  -0.45883  -0.45734  -0.45229  -0.44975
 Alpha  occ. eigenvalues --   -0.44607  -0.44219  -0.43234  -0.42506  -0.42326
 Alpha  occ. eigenvalues --   -0.42256  -0.42000  -0.41593  -0.41539  -0.41197
 Alpha  occ. eigenvalues --   -0.40952  -0.40738  -0.40653  -0.40346  -0.40082
 Alpha  occ. eigenvalues --   -0.39845  -0.39714  -0.39632  -0.39467  -0.39146
 Alpha  occ. eigenvalues --   -0.39016  -0.38918  -0.38701  -0.38505  -0.38272
 Alpha  occ. eigenvalues --   -0.38180  -0.37913  -0.37613  -0.37373  -0.37365
 Alpha  occ. eigenvalues --   -0.37258  -0.37142  -0.36869  -0.36672  -0.36564
 Alpha  occ. eigenvalues --   -0.36225  -0.36105  -0.35929  -0.35856  -0.35509
 Alpha  occ. eigenvalues --   -0.35213  -0.35150  -0.34974  -0.34892  -0.34786
 Alpha  occ. eigenvalues --   -0.34589  -0.34460  -0.34265  -0.34102  -0.33993
 Alpha  occ. eigenvalues --   -0.33789  -0.33683  -0.33637  -0.33523  -0.33383
 Alpha  occ. eigenvalues --   -0.33143  -0.33027  -0.32783  -0.32633  -0.32488
 Alpha  occ. eigenvalues --   -0.32325  -0.32164  -0.31790  -0.31636  -0.31539
 Alpha  occ. eigenvalues --   -0.31302  -0.31201  -0.31156  -0.31020  -0.30976
 Alpha  occ. eigenvalues --   -0.30819  -0.30726  -0.30542  -0.30282  -0.30061
 Alpha  occ. eigenvalues --   -0.29717  -0.29238  -0.29143  -0.28810  -0.28652
 Alpha  occ. eigenvalues --   -0.28543  -0.28434  -0.28356  -0.27989  -0.27482
 Alpha  occ. eigenvalues --   -0.27433  -0.27074  -0.26981  -0.26815  -0.26470
 Alpha  occ. eigenvalues --   -0.26396  -0.25967  -0.25795  -0.25424  -0.25243
 Alpha  occ. eigenvalues --   -0.25035  -0.24927  -0.24489  -0.23652  -0.23210
 Alpha  occ. eigenvalues --   -0.22773  -0.22107  -0.21706  -0.21572  -0.21185
 Alpha  occ. eigenvalues --   -0.20341  -0.19928  -0.19085  -0.18982  -0.16997
 Alpha  occ. eigenvalues --   -0.15640
 Alpha virt. eigenvalues --   -0.11335  -0.07016  -0.06107  -0.04556  -0.03273
 Alpha virt. eigenvalues --   -0.02503  -0.02334  -0.02023  -0.00541   0.00311
 Alpha virt. eigenvalues --    0.01127   0.01635   0.01827   0.02608   0.02803

 Mulliken charges:
               1
     1  Mg   0.691830
     2  C    0.029407
     3  C   -0.047854
     4  C   -0.043386
     5  C   -0.075657
     6  N   -0.164398
     7  C   -0.125871
     8  C    0.096727
     9  C   -0.043752
    10  C   -0.011660
    11  C    0.142389
    12  C    0.143561
    13  C    0.144931
    14  C    0.056148
    15  O   -0.204770
    16  O   -0.258381
    17  N   -0.268832
    18  C    0.112538
    19  C   -0.146288
    20  C    0.030440
    21  C    0.052058
    22  C    0.167765
    23  C   -0.072694
    24  O   -0.172915
    25  C    0.132656
    26  N   -0.189731
    27  C   -0.014940
    28  C    0.096872
    29  C   -0.031336
    30  C   -0.001979
    31  C    0.174880
    32  C    0.080642
    33  C    0.057119
    34  N   -0.219244
    35  C    0.107205
    36  C   -0.208642
    37  C    0.088801
    38  C    0.052596
    39  C    0.195328
    40  C   -0.059977
    41  O   -0.128169
    42  C    0.058601
    43  C    0.123293
    44  O   -0.213860
    45  O   -0.257845
    46  C    0.217135
    47  C    0.334434
    48  C   -0.062235
    49  C   -0.239696
    50  C    0.172431
    51  C    0.134309
    52  C    0.113210
    53  C    0.077502
    54  C   -0.136940
    55  C    0.127938
    56  C    0.078056
    57  C    0.053685
    58  C    0.113623
    59  C   -0.101811
    60  C    0.133616
    61  C    0.110418
    62  C    0.097685
    63  C    0.102321
    64  C   -0.098960
    65  C    0.114637
    66  C    0.085350
    67  H   -0.076280
    68  H   -0.045288
    69  H   -0.076587
    70  H   -0.027679
    71  H   -0.014430
    72  H   -0.015577
    73  H    0.013160
    74  H   -0.021986
    75  H   -0.016358
    76  H   -0.029123
    77  H    0.012385
    78  H   -0.013856
    79  H    0.009414
    80  H   -0.031006
    81  H    0.001621
    82  H    0.028419
    83  H    0.007661
    84  H   -0.006553
    85  H   -0.032591
    86  H   -0.008918
    87  H    0.016343
    88  H   -0.026605
    89  H   -0.001498
    90  H   -0.018271
    91  H   -0.009895
    92  H    0.008065
    93  H   -0.013469
    94  H   -0.025394
    95  H    0.002178
    96  H    0.016023
    97  H    0.003714
    98  H    0.002836
    99  H    0.023808
   100  H    0.020686
   101  H    0.005480
   102  H    0.009252
   103  H   -0.024017
   104  H   -0.048526
   105  H    0.022922
   106  H   -0.006724
   107  H   -0.027817
   108  H   -0.021709
   109  H   -0.026798
   110  H   -0.023339
   111  H   -0.007321
   112  H   -0.045534
   113  H   -0.033965
   114  H   -0.043721
   115  H   -0.004288
   116  H   -0.014602
   117  H   -0.012297
   118  H   -0.032575
   119  H   -0.032996
   120  H   -0.019606
   121  H   -0.039670
   122  H   -0.048090
   123  H   -0.037784
   124  H   -0.034622
   125  H   -0.009976
   126  H   -0.019428
   127  H   -0.021327
   128  H   -0.043851
   129  H   -0.032286
   130  H   -0.026836
   131  H   -0.027991
   132  H   -0.036090
   133  H   -0.042412
   134  H   -0.035799
   135  H   -0.010484
   136  H   -0.015007
   137  H   -0.020597
   138  H   -0.023784
   139  H   -0.030177
   140  H   -0.010869
 Sum of Mulliken charges =  -0.00000

 Dipole moment (field-independent basis, Debye):
    X=              3.1288    Y=              2.1196    Z=             -0.1293  Tot=              3.7814
 Quadrupole moment (field-independent basis, Debye-Ang):
   XX=           -373.6929   YY=           -427.1104   ZZ=           -419.2681
   XY=            -17.9849   XZ=             12.0635   YZ=             -5.0594

 Normal termination of Gaussian 16 at Sat Apr 30 06:40:03 2022.
