 Gaussian 16, Revision A.03,
 Gaussian 16:  ES64L-G16RevA.03 25-Dec-2016

 -----------------------------------
 #p cam-b3lyp/Def2SVP td=(nstates=5)
 -----------------------------------

 -------------------------------------------------------
 step_601_chromophore_27 TDDFT with cam-b3lyp functional
 -------------------------------------------------------
 Symbolic Z-matrix:
 Charge =  0 Multiplicity = 1

                         Standard orientation:
 ---------------------------------------------------------------------
 Center     Atomic      Atomic             Coordinates (Angstroms)
 Number     Number       Type             X           Y           Z
 ---------------------------------------------------------------------
      1         12           0       -4.647416    0.888093   -0.161496
      2          6           0       -4.049220   -2.465304    0.636864
      3          6           0       -1.251372    1.420613    0.012150
      4          6           0       -5.160923    4.063459   -0.822487
      5          6           0       -8.071599    0.272937    0.131862
      6          7           0       -2.859092   -0.409794    0.222708
      7          6           0       -2.869349   -1.726886    0.381103
      8          6           0       -1.433794   -2.280713    0.213946
      9          6           0       -0.507484   -1.044115    0.148126
     10          6           0       -1.601636    0.086026    0.135805
     11          6           0        0.245786   -0.796027    1.407433
     12          6           0       -1.252398   -3.239483   -0.987577
     13          6           0       -0.178898   -4.353614   -0.692903
     14          6           0        1.155167   -4.315292   -1.447096
     15          8           0        1.283608   -4.569824   -2.640178
     16          8           0        2.243832   -4.072931   -0.660245
     17          7           0       -3.356347    2.562243   -0.207030
     18          6           0       -2.021523    2.620234   -0.101867
     19          6           0       -1.493303    3.911094   -0.229019
     20          6           0       -2.651782    4.762977   -0.380927
     21          6           0       -3.819421    3.845414   -0.494502
     22          6           0        0.037953    4.177605   -0.052497
     23          6           0       -2.773990    6.292924   -0.394841
     24          8           0       -3.875805    6.826787   -0.581181
     25          6           0       -1.604587    7.104134   -0.096518
     26          7           0       -6.425847    1.993893   -0.391720
     27          6           0       -6.328590    3.315348   -0.696364
     28          6           0       -7.653226    3.953930   -0.672136
     29          6           0       -8.685135    2.759299   -0.273324
     30          6           0       -7.661289    1.582786   -0.230089
     31          6           0       -7.736148    5.233929    0.158007
     32          6           0       -9.721574    2.528297   -1.385130
     33          6           0      -11.098542    2.019602   -0.882853
     34          7           0       -5.874988   -0.725993    0.331534
     35          6           0       -7.221818   -0.853676    0.328370
     36          6           0       -7.632701   -2.273963    0.537100
     37          6           0       -6.401008   -2.921330    0.688822
     38          6           0       -5.362645   -1.926967    0.585448
     39          6           0       -8.983883   -2.869034    0.594177
     40          6           0       -5.768215   -4.216014    0.864836
     41          8           0       -6.175970   -5.368568    0.925677
     42          6           0       -4.249967   -3.934152    0.842393
     43          6           0       -3.684952   -4.363651    2.133410
     44          8           0       -3.654667   -3.736222    3.210411
     45          8           0       -3.060127   -5.545382    1.911493
     46          6           0       -2.392134   -6.013086    3.180558
     47          6           0        3.513980   -4.354876   -1.313099
     48          6           0        4.354386   -3.179187   -1.715640
     49          6           0        5.638241   -2.920982   -1.387501
     50          6           0        6.603605   -3.849503   -0.681851
     51          6           0        6.170808   -1.482872   -1.682191
     52          6           0        6.392403   -1.355797   -3.168831
     53          6           0        7.956882   -1.202729   -3.431499
     54          6           0        8.362683    0.133382   -4.193059
     55          6           0        8.652282   -0.169082   -5.687963
     56          6           0        9.525378    0.901581   -3.508754
     57          6           0        8.941595    1.648328   -2.272273
     58          6           0       10.026143    2.071481   -1.294752
     59          6           0        9.777681    1.518102    0.138559
     60          6           0       10.242981    0.088839    0.203954
     61          6           0       10.515591    2.505557    1.097349
     62          6           0        9.754120    2.517785    2.421532
     63          6           0       10.330643    1.598183    3.630901
     64          6           0       10.404620    2.295772    4.991090
     65          6           0       11.469795    1.777308    5.965673
     66          6           0        9.024902    2.378248    5.749456
     67          1           0       -0.192385    1.578222   -0.205190
     68          1           0       -5.287485    5.136800   -0.980510
     69          1           0       -9.153153    0.130418    0.164884
     70          1           0       -1.293996   -2.774143    1.176200
     71          1           0        0.158827   -0.929287   -0.706728
     72          1           0        0.502542   -1.736439    1.895500
     73          1           0       -0.293520   -0.090203    2.038518
     74          1           0        1.238805   -0.432628    1.142925
     75          1           0       -1.040458   -2.685248   -1.901952
     76          1           0       -2.205710   -3.699766   -1.248124
     77          1           0       -0.681154   -5.305828   -0.864803
     78          1           0        0.142180   -4.331473    0.348584
     79          1           0        0.416742    3.963720    0.947143
     80          1           0        0.201719    5.225493   -0.303728
     81          1           0        0.647571    3.577543   -0.727906
     82          1           0       -0.907895    7.073089   -0.934758
     83          1           0       -1.051286    6.802768    0.793029
     84          1           0       -1.981241    8.093508    0.161663
     85          1           0       -7.763712    4.001738   -1.755717
     86          1           0       -9.153040    2.890503    0.702908
     87          1           0       -7.083090    5.183376    1.029674
     88          1           0       -8.750129    5.468250    0.482708
     89          1           0       -7.629505    6.074802   -0.526208
     90          1           0       -9.451171    1.644032   -1.961268
     91          1           0       -9.807431    3.363869   -2.079626
     92          1           0      -11.323870    0.976319   -1.104421
     93          1           0      -11.907367    2.689456   -1.175742
     94          1           0      -11.145321    2.154443    0.197267
     95          1           0       -9.503834   -2.448606    1.454142
     96          1           0       -8.894596   -3.945163    0.745506
     97          1           0       -9.471267   -2.512638   -0.312471
     98          1           0       -3.868661   -4.534576    0.016607
     99          1           0       -3.090419   -6.321662    3.958180
    100          1           0       -1.665864   -5.333312    3.627682
    101          1           0       -1.874558   -6.888715    2.788691
    102          1           0        3.351479   -5.037767   -2.146467
    103          1           0        4.130204   -4.802021   -0.533643
    104          1           0        3.837788   -2.329724   -2.163952
    105          1           0        6.951933   -3.377252    0.237499
    106          1           0        7.378353   -4.127565   -1.396679
    107          1           0        6.169715   -4.847863   -0.629038
    108          1           0        6.979882   -1.404572   -0.956415
    109          1           0        5.405301   -0.764137   -1.388912
    110          1           0        5.969592   -0.471716   -3.646186
    111          1           0        6.106327   -2.257793   -3.709555
    112          1           0        8.384963   -1.938871   -4.111068
    113          1           0        8.479969   -1.328264   -2.483097
    114          1           0        7.566464    0.878245   -4.223643
    115          1           0        9.671785   -0.553205   -5.670169
    116          1           0        8.496989    0.827900   -6.100405
    117          1           0        7.877305   -0.861986   -6.017801
    118          1           0       10.030105    1.572449   -4.203954
    119          1           0       10.209153    0.127617   -3.159924
    120          1           0        8.066772    1.181892   -1.818722
    121          1           0        8.572308    2.549808   -2.760470
    122          1           0       10.020659    3.159508   -1.359430
    123          1           0       11.007609    1.772806   -1.662711
    124          1           0        8.689658    1.510130    0.201161
    125          1           0       10.692680   -0.229200   -0.737243
    126          1           0        9.414868   -0.580172    0.436827
    127          1           0       10.965853   -0.056788    1.007320
    128          1           0       10.486610    3.539918    0.752511
    129          1           0       11.586623    2.302380    1.114518
    130          1           0        8.745450    2.153672    2.226315
    131          1           0        9.712977    3.578746    2.668107
    132          1           0       11.263365    1.121915    3.326138
    133          1           0        9.747332    0.696862    3.820117
    134          1           0       10.576943    3.352020    4.783892
    135          1           0       11.237219    1.637443    7.020612
    136          1           0       12.303795    2.480311    5.964455
    137          1           0       11.750061    0.833859    5.498485
    138          1           0        9.105413    1.879481    6.715113
    139          1           0        8.218105    1.827618    5.264776
    140          1           0        8.650943    3.394191    5.872370
 ---------------------------------------------------------------------

 SCF Done:  E(RCAM-B3LYP) =  -3007.15311126     A.U. after   19 cycles

 Excitation energies and oscillator strengths:

 Excited State   1:      Singlet-A      1.7339 eV  715.04 nm  f=0.4061  <S**2>=0.000
     245 -> 248       -0.17876
     246 -> 247        0.68430
     245 <- 248       -0.10350
 This state for optimization and/or second-order correction.
 Total Energy, E(TD-HF/TD-DFT) =  -3007.08938999
 Copying the excited state density for this state as the 1-particle RhoCI density.

 Excited State   2:      Singlet-A      2.2197 eV  558.55 nm  f=0.1070  <S**2>=0.000
     245 -> 247        0.63983
     246 -> 248        0.28631

 Excited State   3:      Singlet-A      3.4384 eV  360.59 nm  f=0.3215  <S**2>=0.000
     244 -> 247       -0.39753
     245 -> 247       -0.21437
     246 -> 248        0.53159

 Excited State   4:      Singlet-A      3.5311 eV  351.12 nm  f=0.2486  <S**2>=0.000
     242 -> 247       -0.22034
     244 -> 247        0.54121
     245 -> 247       -0.16257
     246 -> 248        0.32087

 Excited State   5:      Singlet-A      3.5672 eV  347.57 nm  f=0.0104  <S**2>=0.000
     239 -> 247        0.51246
     239 -> 249       -0.31528
     239 -> 250       -0.15519
     240 -> 247       -0.16769
     240 -> 249        0.10923
     241 -> 247        0.10578
     242 -> 247        0.14600

 The electronic state is 1-A.
 Alpha  occ. eigenvalues --  -46.88994 -19.25859 -19.25426 -19.19681 -19.19533
 Alpha  occ. eigenvalues --  -19.19338 -19.18680 -14.41798 -14.41781 -14.39671
 Alpha  occ. eigenvalues --  -14.38819 -10.39402 -10.39119 -10.35371 -10.34855
 Alpha  occ. eigenvalues --  -10.31825 -10.31438 -10.31305 -10.30839 -10.30543
 Alpha  occ. eigenvalues --  -10.30189 -10.30085 -10.29554 -10.29387 -10.28964
 Alpha  occ. eigenvalues --  -10.28409 -10.28120 -10.28010 -10.28003 -10.27856
 Alpha  occ. eigenvalues --  -10.27853 -10.27727 -10.27696 -10.27465 -10.27358
 Alpha  occ. eigenvalues --  -10.27297 -10.27234 -10.27097 -10.27004 -10.26710
 Alpha  occ. eigenvalues --  -10.26641 -10.26284 -10.26031 -10.25998 -10.25913
 Alpha  occ. eigenvalues --  -10.25789 -10.25622 -10.25599 -10.25592 -10.25539
 Alpha  occ. eigenvalues --  -10.25517 -10.25453 -10.25429 -10.25329 -10.25288
 Alpha  occ. eigenvalues --  -10.25264 -10.25124 -10.25005 -10.24886 -10.24793
 Alpha  occ. eigenvalues --  -10.24666 -10.24564 -10.24484 -10.24330 -10.24113
 Alpha  occ. eigenvalues --  -10.24037  -3.17457  -1.92375  -1.91903  -1.91761
 Alpha  occ. eigenvalues --   -1.16923  -1.16357  -1.10265  -1.09197  -1.07329
 Alpha  occ. eigenvalues --   -1.06681  -1.05279  -1.04572  -1.04011  -1.02304
 Alpha  occ. eigenvalues --   -0.93210  -0.90810  -0.90168  -0.89859  -0.88841
 Alpha  occ. eigenvalues --   -0.88539  -0.88472  -0.87953  -0.87433  -0.87225
 Alpha  occ. eigenvalues --   -0.86195  -0.85508  -0.84446  -0.83943  -0.83375
 Alpha  occ. eigenvalues --   -0.82702  -0.82301  -0.81527  -0.80932  -0.80281
 Alpha  occ. eigenvalues --   -0.80172  -0.78647  -0.77719  -0.77154  -0.76329
 Alpha  occ. eigenvalues --   -0.75941  -0.75584  -0.75551  -0.75086  -0.74245
 Alpha  occ. eigenvalues --   -0.73225  -0.72760  -0.71746  -0.70513  -0.69161
 Alpha  occ. eigenvalues --   -0.68913  -0.68403  -0.67164  -0.67061  -0.66124
 Alpha  occ. eigenvalues --   -0.65799  -0.64892  -0.64851  -0.64374  -0.64364
 Alpha  occ. eigenvalues --   -0.63200  -0.63133  -0.62420  -0.62341  -0.59983
 Alpha  occ. eigenvalues --   -0.59859  -0.59338  -0.59268  -0.58867  -0.58446
 Alpha  occ. eigenvalues --   -0.58167  -0.57652  -0.56359  -0.55759  -0.55556
 Alpha  occ. eigenvalues --   -0.55251  -0.54945  -0.54622  -0.54467  -0.54164
 Alpha  occ. eigenvalues --   -0.53741  -0.53586  -0.53293  -0.53131  -0.53045
 Alpha  occ. eigenvalues --   -0.52424  -0.52379  -0.52197  -0.52086  -0.51922
 Alpha  occ. eigenvalues --   -0.51720  -0.51569  -0.51176  -0.51044  -0.50860
 Alpha  occ. eigenvalues --   -0.50507  -0.50183  -0.49863  -0.49751  -0.49607
 Alpha  occ. eigenvalues --   -0.49525  -0.49450  -0.49268  -0.49037  -0.48948
 Alpha  occ. eigenvalues --   -0.48749  -0.48585  -0.48091  -0.48013  -0.47674
 Alpha  occ. eigenvalues --   -0.47268  -0.47090  -0.46909  -0.46870  -0.46666
 Alpha  occ. eigenvalues --   -0.46413  -0.46339  -0.46042  -0.45792  -0.45740
 Alpha  occ. eigenvalues --   -0.45576  -0.45467  -0.45366  -0.45271  -0.45004
 Alpha  occ. eigenvalues --   -0.44948  -0.44681  -0.44629  -0.44410  -0.44209
 Alpha  occ. eigenvalues --   -0.44123  -0.44073  -0.43406  -0.43336  -0.43184
 Alpha  occ. eigenvalues --   -0.42932  -0.42877  -0.42714  -0.42558  -0.42547
 Alpha  occ. eigenvalues --   -0.42277  -0.42132  -0.42091  -0.41757  -0.41412
 Alpha  occ. eigenvalues --   -0.40836  -0.40529  -0.40285  -0.39941  -0.39764
 Alpha  occ. eigenvalues --   -0.39618  -0.39564  -0.39275  -0.38875  -0.38446
 Alpha  occ. eigenvalues --   -0.38294  -0.37924  -0.37865  -0.37607  -0.37566
 Alpha  occ. eigenvalues --   -0.37196  -0.37168  -0.36744  -0.36409  -0.35880
 Alpha  occ. eigenvalues --   -0.35823  -0.35659  -0.35295  -0.34403  -0.34113
 Alpha  occ. eigenvalues --   -0.33700  -0.33082  -0.33007  -0.31386  -0.31353
 Alpha  occ. eigenvalues --   -0.31053  -0.30689  -0.29649  -0.29423  -0.23726
 Alpha  occ. eigenvalues --   -0.20877
 Alpha virt. eigenvalues --   -0.08396  -0.01631   0.00176   0.02322   0.02870
 Alpha virt. eigenvalues --    0.04397   0.05027   0.05261   0.05985   0.07137
 Alpha virt. eigenvalues --    0.07692   0.08089   0.08586   0.08843   0.09062

 Mulliken charges:
               1
     1  Mg   0.825491
     2  C   -0.007698
     3  C   -0.060528
     4  C   -0.060407
     5  C   -0.079661
     6  N   -0.238674
     7  C   -0.069301
     8  C    0.041326
     9  C   -0.090860
    10  C    0.002284
    11  C    0.082276
    12  C    0.085064
    13  C    0.075092
    14  C    0.139474
    15  O   -0.246841
    16  O   -0.322689
    17  N   -0.354587
    18  C    0.120988
    19  C   -0.156547
    20  C   -0.039848
    21  C    0.072554
    22  C    0.117508
    23  C    0.010906
    24  O   -0.216708
    25  C    0.043605
    26  N   -0.266872
    27  C    0.013284
    28  C    0.028278
    29  C   -0.082018
    30  C    0.022884
    31  C    0.106654
    32  C    0.023727
    33  C   -0.006066
    34  N   -0.311102
    35  C    0.111687
    36  C   -0.189333
    37  C    0.000299
    38  C    0.096281
    39  C    0.139594
    40  C    0.042733
    41  O   -0.164417
    42  C   -0.019296
    43  C    0.212150
    44  O   -0.251411
    45  O   -0.319903
    46  C    0.176610
    47  C    0.294483
    48  C   -0.082495
    49  C   -0.255835
    50  C    0.106931
    51  C    0.074407
    52  C    0.053213
    53  C    0.029556
    54  C   -0.188368
    55  C    0.070890
    56  C    0.032745
    57  C   -0.000472
    58  C    0.059495
    59  C   -0.157918
    60  C    0.077123
    61  C    0.052740
    62  C    0.041468
    63  C    0.049318
    64  C   -0.156277
    65  C    0.054242
    66  C    0.027273
    67  H   -0.042343
    68  H   -0.004219
    69  H   -0.040600
    70  H    0.006091
    71  H    0.019012
    72  H    0.008314
    73  H    0.040889
    74  H    0.003890
    75  H    0.017457
    76  H    0.002337
    77  H    0.044748
    78  H    0.018788
    79  H    0.035361
    80  H   -0.006262
    81  H    0.026248
    82  H    0.054020
    83  H    0.036734
    84  H    0.028421
    85  H    0.003960
    86  H    0.024386
    87  H    0.041695
    88  H   -0.000827
    89  H    0.023696
    90  H    0.012207
    91  H    0.019869
    92  H    0.029023
    93  H    0.012725
    94  H   -0.002032
    95  H    0.030159
    96  H    0.044760
    97  H    0.028910
    98  H    0.046164
    99  H    0.047949
   100  H    0.044435
   101  H    0.030852
   102  H    0.043527
   103  H    0.005599
   104  H   -0.015471
   105  H    0.045469
   106  H    0.018407
   107  H   -0.002013
   108  H    0.002703
   109  H    0.005175
   110  H    0.006207
   111  H    0.022830
   112  H   -0.015261
   113  H   -0.009407
   114  H   -0.014636
   115  H    0.017950
   116  H    0.009215
   117  H    0.011605
   118  H   -0.002799
   119  H   -0.009408
   120  H    0.003990
   121  H   -0.009430
   122  H   -0.016385
   123  H   -0.008724
   124  H   -0.003254
   125  H    0.012365
   126  H    0.001969
   127  H    0.002702
   128  H   -0.011723
   129  H   -0.002877
   130  H    0.001263
   131  H   -0.000023
   132  H   -0.008827
   133  H   -0.014347
   134  H   -0.004141
   135  H    0.014132
   136  H    0.009013
   137  H    0.002382
   138  H    0.000228
   139  H   -0.006042
   140  H    0.012720
 Sum of Mulliken charges =  -0.00000

 Dipole moment (field-independent basis, Debye):
    X=              3.0735    Y=              1.7752    Z=             -0.0024  Tot=              3.5494
 Quadrupole moment (field-independent basis, Debye-Ang):
   XX=           -369.1528   YY=           -424.1968   ZZ=           -419.7139
   XY=            -15.3903   XZ=             11.8591   YZ=             -6.0523

 Normal termination of Gaussian 16 at Sat Apr 30 05:41:19 2022.
