 Gaussian 16, Revision A.03,
 Gaussian 16:  ES64L-G16RevA.03 25-Dec-2016

 ---------------------------------
 #p PBE1PBE/Def2SVP td=(nstates=5)
 ---------------------------------

 -----------------------------------------------------
 step_601_chromophore_27 TDDFT with PBE1PBE functional
 -----------------------------------------------------
 Symbolic Z-matrix:
 Charge =  0 Multiplicity = 1

                         Standard orientation:
 ---------------------------------------------------------------------
 Center     Atomic      Atomic             Coordinates (Angstroms)
 Number     Number       Type             X           Y           Z
 ---------------------------------------------------------------------
      1         12           0       -4.647416    0.888093   -0.161496
      2          6           0       -4.049220   -2.465304    0.636864
      3          6           0       -1.251372    1.420613    0.012150
      4          6           0       -5.160923    4.063459   -0.822487
      5          6           0       -8.071599    0.272937    0.131862
      6          7           0       -2.859092   -0.409794    0.222708
      7          6           0       -2.869349   -1.726886    0.381103
      8          6           0       -1.433794   -2.280713    0.213946
      9          6           0       -0.507484   -1.044115    0.148126
     10          6           0       -1.601636    0.086026    0.135805
     11          6           0        0.245786   -0.796027    1.407433
     12          6           0       -1.252398   -3.239483   -0.987577
     13          6           0       -0.178898   -4.353614   -0.692903
     14          6           0        1.155167   -4.315292   -1.447096
     15          8           0        1.283608   -4.569824   -2.640178
     16          8           0        2.243832   -4.072931   -0.660245
     17          7           0       -3.356347    2.562243   -0.207030
     18          6           0       -2.021523    2.620234   -0.101867
     19          6           0       -1.493303    3.911094   -0.229019
     20          6           0       -2.651782    4.762977   -0.380927
     21          6           0       -3.819421    3.845414   -0.494502
     22          6           0        0.037953    4.177605   -0.052497
     23          6           0       -2.773990    6.292924   -0.394841
     24          8           0       -3.875805    6.826787   -0.581181
     25          6           0       -1.604587    7.104134   -0.096518
     26          7           0       -6.425847    1.993893   -0.391720
     27          6           0       -6.328590    3.315348   -0.696364
     28          6           0       -7.653226    3.953930   -0.672136
     29          6           0       -8.685135    2.759299   -0.273324
     30          6           0       -7.661289    1.582786   -0.230089
     31          6           0       -7.736148    5.233929    0.158007
     32          6           0       -9.721574    2.528297   -1.385130
     33          6           0      -11.098542    2.019602   -0.882853
     34          7           0       -5.874988   -0.725993    0.331534
     35          6           0       -7.221818   -0.853676    0.328370
     36          6           0       -7.632701   -2.273963    0.537100
     37          6           0       -6.401008   -2.921330    0.688822
     38          6           0       -5.362645   -1.926967    0.585448
     39          6           0       -8.983883   -2.869034    0.594177
     40          6           0       -5.768215   -4.216014    0.864836
     41          8           0       -6.175970   -5.368568    0.925677
     42          6           0       -4.249967   -3.934152    0.842393
     43          6           0       -3.684952   -4.363651    2.133410
     44          8           0       -3.654667   -3.736222    3.210411
     45          8           0       -3.060127   -5.545382    1.911493
     46          6           0       -2.392134   -6.013086    3.180558
     47          6           0        3.513980   -4.354876   -1.313099
     48          6           0        4.354386   -3.179187   -1.715640
     49          6           0        5.638241   -2.920982   -1.387501
     50          6           0        6.603605   -3.849503   -0.681851
     51          6           0        6.170808   -1.482872   -1.682191
     52          6           0        6.392403   -1.355797   -3.168831
     53          6           0        7.956882   -1.202729   -3.431499
     54          6           0        8.362683    0.133382   -4.193059
     55          6           0        8.652282   -0.169082   -5.687963
     56          6           0        9.525378    0.901581   -3.508754
     57          6           0        8.941595    1.648328   -2.272273
     58          6           0       10.026143    2.071481   -1.294752
     59          6           0        9.777681    1.518102    0.138559
     60          6           0       10.242981    0.088839    0.203954
     61          6           0       10.515591    2.505557    1.097349
     62          6           0        9.754120    2.517785    2.421532
     63          6           0       10.330643    1.598183    3.630901
     64          6           0       10.404620    2.295772    4.991090
     65          6           0       11.469795    1.777308    5.965673
     66          6           0        9.024902    2.378248    5.749456
     67          1           0       -0.192385    1.578222   -0.205190
     68          1           0       -5.287485    5.136800   -0.980510
     69          1           0       -9.153153    0.130418    0.164884
     70          1           0       -1.293996   -2.774143    1.176200
     71          1           0        0.158827   -0.929287   -0.706728
     72          1           0        0.502542   -1.736439    1.895500
     73          1           0       -0.293520   -0.090203    2.038518
     74          1           0        1.238805   -0.432628    1.142925
     75          1           0       -1.040458   -2.685248   -1.901952
     76          1           0       -2.205710   -3.699766   -1.248124
     77          1           0       -0.681154   -5.305828   -0.864803
     78          1           0        0.142180   -4.331473    0.348584
     79          1           0        0.416742    3.963720    0.947143
     80          1           0        0.201719    5.225493   -0.303728
     81          1           0        0.647571    3.577543   -0.727906
     82          1           0       -0.907895    7.073089   -0.934758
     83          1           0       -1.051286    6.802768    0.793029
     84          1           0       -1.981241    8.093508    0.161663
     85          1           0       -7.763712    4.001738   -1.755717
     86          1           0       -9.153040    2.890503    0.702908
     87          1           0       -7.083090    5.183376    1.029674
     88          1           0       -8.750129    5.468250    0.482708
     89          1           0       -7.629505    6.074802   -0.526208
     90          1           0       -9.451171    1.644032   -1.961268
     91          1           0       -9.807431    3.363869   -2.079626
     92          1           0      -11.323870    0.976319   -1.104421
     93          1           0      -11.907367    2.689456   -1.175742
     94          1           0      -11.145321    2.154443    0.197267
     95          1           0       -9.503834   -2.448606    1.454142
     96          1           0       -8.894596   -3.945163    0.745506
     97          1           0       -9.471267   -2.512638   -0.312471
     98          1           0       -3.868661   -4.534576    0.016607
     99          1           0       -3.090419   -6.321662    3.958180
    100          1           0       -1.665864   -5.333312    3.627682
    101          1           0       -1.874558   -6.888715    2.788691
    102          1           0        3.351479   -5.037767   -2.146467
    103          1           0        4.130204   -4.802021   -0.533643
    104          1           0        3.837788   -2.329724   -2.163952
    105          1           0        6.951933   -3.377252    0.237499
    106          1           0        7.378353   -4.127565   -1.396679
    107          1           0        6.169715   -4.847863   -0.629038
    108          1           0        6.979882   -1.404572   -0.956415
    109          1           0        5.405301   -0.764137   -1.388912
    110          1           0        5.969592   -0.471716   -3.646186
    111          1           0        6.106327   -2.257793   -3.709555
    112          1           0        8.384963   -1.938871   -4.111068
    113          1           0        8.479969   -1.328264   -2.483097
    114          1           0        7.566464    0.878245   -4.223643
    115          1           0        9.671785   -0.553205   -5.670169
    116          1           0        8.496989    0.827900   -6.100405
    117          1           0        7.877305   -0.861986   -6.017801
    118          1           0       10.030105    1.572449   -4.203954
    119          1           0       10.209153    0.127617   -3.159924
    120          1           0        8.066772    1.181892   -1.818722
    121          1           0        8.572308    2.549808   -2.760470
    122          1           0       10.020659    3.159508   -1.359430
    123          1           0       11.007609    1.772806   -1.662711
    124          1           0        8.689658    1.510130    0.201161
    125          1           0       10.692680   -0.229200   -0.737243
    126          1           0        9.414868   -0.580172    0.436827
    127          1           0       10.965853   -0.056788    1.007320
    128          1           0       10.486610    3.539918    0.752511
    129          1           0       11.586623    2.302380    1.114518
    130          1           0        8.745450    2.153672    2.226315
    131          1           0        9.712977    3.578746    2.668107
    132          1           0       11.263365    1.121915    3.326138
    133          1           0        9.747332    0.696862    3.820117
    134          1           0       10.576943    3.352020    4.783892
    135          1           0       11.237219    1.637443    7.020612
    136          1           0       12.303795    2.480311    5.964455
    137          1           0       11.750061    0.833859    5.498485
    138          1           0        9.105413    1.879481    6.715113
    139          1           0        8.218105    1.827618    5.264776
    140          1           0        8.650943    3.394191    5.872370
 ---------------------------------------------------------------------

 SCF Done:  E(RPBE1PBE) =  -3005.34397404     A.U. after   15 cycles

 Excitation energies and oscillator strengths:

 Excited State   1:      Singlet-A      1.8776 eV  660.34 nm  f=0.3928  <S**2>=0.000
     245 -> 248       -0.16918
     246 -> 247        0.69116
     246 <- 247       -0.10635
 This state for optimization and/or second-order correction.
 Total Energy, E(TD-HF/TD-DFT) =  -3005.27497462
 Copying the excited state density for this state as the 1-particle RhoCI density.

 Excited State   2:      Singlet-A      2.2111 eV  560.72 nm  f=0.1042  <S**2>=0.000
     245 -> 247        0.65394
     246 -> 248        0.24545

 Excited State   3:      Singlet-A      3.1317 eV  395.90 nm  f=0.0042  <S**2>=0.000
     240 -> 247        0.10808
     241 -> 247       -0.41720
     241 -> 249        0.10997
     243 -> 247        0.51018
     246 -> 248       -0.16180

 Excited State   4:      Singlet-A      3.1428 eV  394.50 nm  f=0.0015  <S**2>=0.000
     240 -> 247       -0.21618
     241 -> 247        0.45639
     241 -> 249       -0.13529
     243 -> 247        0.44303

 Excited State   5:      Singlet-A      3.2245 eV  384.50 nm  f=0.0118  <S**2>=0.000
     241 -> 247        0.12442
     242 -> 247        0.62527
     242 -> 248        0.14432
     242 -> 249        0.11467
     242 -> 250        0.11187
     246 -> 248       -0.13446

 The electronic state is 1-A.
 Alpha  occ. eigenvalues --  -46.92391 -19.26428 -19.26139 -19.19861 -19.19645
 Alpha  occ. eigenvalues --  -19.19575 -19.19055 -14.41319 -14.41255 -14.39217
 Alpha  occ. eigenvalues --  -14.38580 -10.36447 -10.36056 -10.32351 -10.32110
 Alpha  occ. eigenvalues --  -10.28992 -10.28892 -10.28859 -10.28466 -10.28083
 Alpha  occ. eigenvalues --  -10.28054 -10.27973 -10.27519 -10.26878 -10.26351
 Alpha  occ. eigenvalues --  -10.26319 -10.25814 -10.25780 -10.25707 -10.25604
 Alpha  occ. eigenvalues --  -10.25592 -10.25524 -10.25283 -10.25250 -10.25209
 Alpha  occ. eigenvalues --  -10.25071 -10.24997 -10.24886 -10.24552 -10.24130
 Alpha  occ. eigenvalues --  -10.23917 -10.23886 -10.23772 -10.23629 -10.23312
 Alpha  occ. eigenvalues --  -10.23291 -10.23261 -10.23240 -10.23214 -10.23186
 Alpha  occ. eigenvalues --  -10.23146 -10.23008 -10.23004 -10.22983 -10.22904
 Alpha  occ. eigenvalues --  -10.22861 -10.22639 -10.22630 -10.22474 -10.22381
 Alpha  occ. eigenvalues --  -10.22132 -10.22048 -10.21901 -10.21723 -10.21634
 Alpha  occ. eigenvalues --  -10.21514  -3.14437  -1.87297  -1.86802  -1.86663
 Alpha  occ. eigenvalues --   -1.11768  -1.11041  -1.04835  -1.04052  -1.02210
 Alpha  occ. eigenvalues --   -1.01399  -0.99859  -0.99198  -0.98635  -0.97172
 Alpha  occ. eigenvalues --   -0.87469  -0.84953  -0.84294  -0.84092  -0.83239
 Alpha  occ. eigenvalues --   -0.82808  -0.82588  -0.82200  -0.81552  -0.81446
 Alpha  occ. eigenvalues --   -0.80573  -0.79817  -0.78677  -0.78185  -0.77647
 Alpha  occ. eigenvalues --   -0.76910  -0.76616  -0.75768  -0.75186  -0.74615
 Alpha  occ. eigenvalues --   -0.74355  -0.72896  -0.72105  -0.71479  -0.70610
 Alpha  occ. eigenvalues --   -0.70176  -0.69923  -0.69684  -0.69172  -0.68436
 Alpha  occ. eigenvalues --   -0.67596  -0.67118  -0.66253  -0.64814  -0.63531
 Alpha  occ. eigenvalues --   -0.63363  -0.62641  -0.61660  -0.61302  -0.60509
 Alpha  occ. eigenvalues --   -0.60270  -0.59481  -0.59073  -0.58938  -0.58486
 Alpha  occ. eigenvalues --   -0.57776  -0.57309  -0.56901  -0.56549  -0.54496
 Alpha  occ. eigenvalues --   -0.54423  -0.53886  -0.53683  -0.53290  -0.52992
 Alpha  occ. eigenvalues --   -0.52553  -0.52200  -0.50990  -0.50271  -0.50092
 Alpha  occ. eigenvalues --   -0.49787  -0.49486  -0.49096  -0.49010  -0.48637
 Alpha  occ. eigenvalues --   -0.48296  -0.48019  -0.47980  -0.47633  -0.47534
 Alpha  occ. eigenvalues --   -0.46913  -0.46831  -0.46655  -0.46640  -0.46504
 Alpha  occ. eigenvalues --   -0.46284  -0.46071  -0.45711  -0.45642  -0.45402
 Alpha  occ. eigenvalues --   -0.45058  -0.44879  -0.44487  -0.44347  -0.44207
 Alpha  occ. eigenvalues --   -0.44119  -0.44001  -0.43927  -0.43668  -0.43563
 Alpha  occ. eigenvalues --   -0.43371  -0.43180  -0.42750  -0.42646  -0.42330
 Alpha  occ. eigenvalues --   -0.41922  -0.41686  -0.41616  -0.41558  -0.41295
 Alpha  occ. eigenvalues --   -0.41160  -0.41021  -0.40808  -0.40538  -0.40449
 Alpha  occ. eigenvalues --   -0.40346  -0.40221  -0.39978  -0.39919  -0.39658
 Alpha  occ. eigenvalues --   -0.39623  -0.39537  -0.39409  -0.39112  -0.38926
 Alpha  occ. eigenvalues --   -0.38858  -0.38789  -0.38241  -0.37983  -0.37882
 Alpha  occ. eigenvalues --   -0.37755  -0.37687  -0.37592  -0.37382  -0.37293
 Alpha  occ. eigenvalues --   -0.37087  -0.37027  -0.36959  -0.36541  -0.36349
 Alpha  occ. eigenvalues --   -0.35671  -0.35415  -0.35151  -0.34790  -0.34672
 Alpha  occ. eigenvalues --   -0.34460  -0.34324  -0.34099  -0.33673  -0.33425
 Alpha  occ. eigenvalues --   -0.33098  -0.32900  -0.32719  -0.32612  -0.32415
 Alpha  occ. eigenvalues --   -0.32045  -0.32026  -0.31696  -0.31512  -0.30909
 Alpha  occ. eigenvalues --   -0.30679  -0.30518  -0.30305  -0.29361  -0.29032
 Alpha  occ. eigenvalues --   -0.28592  -0.28529  -0.28113  -0.26967  -0.26284
 Alpha  occ. eigenvalues --   -0.26039  -0.25985  -0.25199  -0.24945  -0.20666
 Alpha  occ. eigenvalues --   -0.18539
 Alpha virt. eigenvalues --   -0.10897  -0.05231  -0.03958  -0.02015  -0.00158
 Alpha virt. eigenvalues --    0.00112   0.00618   0.00721   0.02325   0.03204
 Alpha virt. eigenvalues --    0.03757   0.04430   0.04881   0.05516   0.05737

 Mulliken charges:
               1
     1  Mg   0.972895
     2  C   -0.020006
     3  C   -0.051532
     4  C   -0.057403
     5  C   -0.063703
     6  N   -0.346414
     7  C    0.008255
     8  C   -0.028568
     9  C   -0.168360
    10  C    0.034036
    11  C    0.028711
    12  C    0.033616
    13  C   -0.000650
    14  C    0.208089
    15  O   -0.278967
    16  O   -0.354183
    17  N   -0.468542
    18  C    0.150301
    19  C   -0.174308
    20  C   -0.090555
    21  C    0.109536
    22  C    0.055141
    23  C    0.061903
    24  O   -0.254053
    25  C   -0.027830
    26  N   -0.382188
    27  C    0.053081
    28  C   -0.055880
    29  C   -0.160243
    30  C    0.064651
    31  C    0.041296
    32  C   -0.030221
    33  C   -0.077022
    34  N   -0.441143
    35  C    0.126842
    36  C   -0.197819
    37  C   -0.047955
    38  C    0.151036
    39  C    0.082208
    40  C    0.133206
    41  O   -0.213068
    42  C   -0.131185
    43  C    0.303992
    44  O   -0.284770
    45  O   -0.350850
    46  C    0.118470
    47  C    0.246396
    48  C   -0.087007
    49  C   -0.297774
    50  C    0.040155
    51  C    0.005547
    52  C   -0.010607
    53  C   -0.022138
    54  C   -0.269043
    55  C    0.003014
    56  C   -0.022229
    57  C   -0.064152
    58  C    0.006185
    59  C   -0.248874
    60  C    0.021853
    61  C   -0.001100
    62  C   -0.023379
    63  C   -0.004690
    64  C   -0.246626
    65  C   -0.008513
    66  C   -0.030135
    67  H   -0.009781
    68  H    0.029793
    69  H   -0.005498
    70  H    0.046905
    71  H    0.052975
    72  H    0.037347
    73  H    0.068850
    74  H    0.031964
    75  H    0.048163
    76  H    0.036767
    77  H    0.076111
    78  H    0.050137
    79  H    0.063634
    80  H    0.024878
    81  H    0.053859
    82  H    0.079886
    83  H    0.063756
    84  H    0.056269
    85  H    0.043962
    86  H    0.059417
    87  H    0.069436
    88  H    0.029093
    89  H    0.051008
    90  H    0.045948
    91  H    0.050420
    92  H    0.054883
    93  H    0.041253
    94  H    0.025636
    95  H    0.057484
    96  H    0.071395
    97  H    0.055428
    98  H    0.083450
    99  H    0.070272
   100  H    0.065808
   101  H    0.052470
   102  H    0.070914
   103  H    0.034699
   104  H    0.014613
   105  H    0.071434
   106  H    0.047951
   107  H    0.024765
   108  H    0.035810
   109  H    0.038039
   110  H    0.037948
   111  H    0.055558
   112  H    0.018445
   113  H    0.023979
   114  H    0.023016
   115  H    0.046068
   116  H    0.037994
   117  H    0.041117
   118  H    0.029065
   119  H    0.025019
   120  H    0.037290
   121  H    0.025562
   122  H    0.016388
   123  H    0.023963
   124  H    0.034191
   125  H    0.039327
   126  H    0.029789
   127  H    0.031262
   128  H    0.021251
   129  H    0.028373
   130  H    0.034261
   131  H    0.030706
   132  H    0.022822
   133  H    0.018296
   134  H    0.034827
   135  H    0.040117
   136  H    0.036892
   137  H    0.030354
   138  H    0.027354
   139  H    0.021183
   140  H    0.039250
 Sum of Mulliken charges =  -0.00000

 Dipole moment (field-independent basis, Debye):
    X=              3.2599    Y=              2.1992    Z=             -0.0829  Tot=              3.9332
 Quadrupole moment (field-independent basis, Debye-Ang):
   XX=           -365.4097   YY=           -420.9614   ZZ=           -417.5538
   XY=            -17.7452   XZ=             12.2462   YZ=             -6.0227

 Normal termination of Gaussian 16 at Sat Apr 30 06:02:41 2022.
