 Gaussian 16, Revision A.03,
 Gaussian 16:  ES64L-G16RevA.03 25-Dec-2016

 --------------------------------
 #p wB97XD/Def2SVP td=(nstates=5)
 --------------------------------

 ----------------------------------------------------
 step_601_chromophore_27 TDDFT with wB97XD functional
 ----------------------------------------------------
 Symbolic Z-matrix:
 Charge =  0 Multiplicity = 1

                         Standard orientation:
 ---------------------------------------------------------------------
 Center     Atomic      Atomic             Coordinates (Angstroms)
 Number     Number       Type             X           Y           Z
 ---------------------------------------------------------------------
      1         12           0       -4.647416    0.888093   -0.161496
      2          6           0       -4.049220   -2.465304    0.636864
      3          6           0       -1.251372    1.420613    0.012150
      4          6           0       -5.160923    4.063459   -0.822487
      5          6           0       -8.071599    0.272937    0.131862
      6          7           0       -2.859092   -0.409794    0.222708
      7          6           0       -2.869349   -1.726886    0.381103
      8          6           0       -1.433794   -2.280713    0.213946
      9          6           0       -0.507484   -1.044115    0.148126
     10          6           0       -1.601636    0.086026    0.135805
     11          6           0        0.245786   -0.796027    1.407433
     12          6           0       -1.252398   -3.239483   -0.987577
     13          6           0       -0.178898   -4.353614   -0.692903
     14          6           0        1.155167   -4.315292   -1.447096
     15          8           0        1.283608   -4.569824   -2.640178
     16          8           0        2.243832   -4.072931   -0.660245
     17          7           0       -3.356347    2.562243   -0.207030
     18          6           0       -2.021523    2.620234   -0.101867
     19          6           0       -1.493303    3.911094   -0.229019
     20          6           0       -2.651782    4.762977   -0.380927
     21          6           0       -3.819421    3.845414   -0.494502
     22          6           0        0.037953    4.177605   -0.052497
     23          6           0       -2.773990    6.292924   -0.394841
     24          8           0       -3.875805    6.826787   -0.581181
     25          6           0       -1.604587    7.104134   -0.096518
     26          7           0       -6.425847    1.993893   -0.391720
     27          6           0       -6.328590    3.315348   -0.696364
     28          6           0       -7.653226    3.953930   -0.672136
     29          6           0       -8.685135    2.759299   -0.273324
     30          6           0       -7.661289    1.582786   -0.230089
     31          6           0       -7.736148    5.233929    0.158007
     32          6           0       -9.721574    2.528297   -1.385130
     33          6           0      -11.098542    2.019602   -0.882853
     34          7           0       -5.874988   -0.725993    0.331534
     35          6           0       -7.221818   -0.853676    0.328370
     36          6           0       -7.632701   -2.273963    0.537100
     37          6           0       -6.401008   -2.921330    0.688822
     38          6           0       -5.362645   -1.926967    0.585448
     39          6           0       -8.983883   -2.869034    0.594177
     40          6           0       -5.768215   -4.216014    0.864836
     41          8           0       -6.175970   -5.368568    0.925677
     42          6           0       -4.249967   -3.934152    0.842393
     43          6           0       -3.684952   -4.363651    2.133410
     44          8           0       -3.654667   -3.736222    3.210411
     45          8           0       -3.060127   -5.545382    1.911493
     46          6           0       -2.392134   -6.013086    3.180558
     47          6           0        3.513980   -4.354876   -1.313099
     48          6           0        4.354386   -3.179187   -1.715640
     49          6           0        5.638241   -2.920982   -1.387501
     50          6           0        6.603605   -3.849503   -0.681851
     51          6           0        6.170808   -1.482872   -1.682191
     52          6           0        6.392403   -1.355797   -3.168831
     53          6           0        7.956882   -1.202729   -3.431499
     54          6           0        8.362683    0.133382   -4.193059
     55          6           0        8.652282   -0.169082   -5.687963
     56          6           0        9.525378    0.901581   -3.508754
     57          6           0        8.941595    1.648328   -2.272273
     58          6           0       10.026143    2.071481   -1.294752
     59          6           0        9.777681    1.518102    0.138559
     60          6           0       10.242981    0.088839    0.203954
     61          6           0       10.515591    2.505557    1.097349
     62          6           0        9.754120    2.517785    2.421532
     63          6           0       10.330643    1.598183    3.630901
     64          6           0       10.404620    2.295772    4.991090
     65          6           0       11.469795    1.777308    5.965673
     66          6           0        9.024902    2.378248    5.749456
     67          1           0       -0.192385    1.578222   -0.205190
     68          1           0       -5.287485    5.136800   -0.980510
     69          1           0       -9.153153    0.130418    0.164884
     70          1           0       -1.293996   -2.774143    1.176200
     71          1           0        0.158827   -0.929287   -0.706728
     72          1           0        0.502542   -1.736439    1.895500
     73          1           0       -0.293520   -0.090203    2.038518
     74          1           0        1.238805   -0.432628    1.142925
     75          1           0       -1.040458   -2.685248   -1.901952
     76          1           0       -2.205710   -3.699766   -1.248124
     77          1           0       -0.681154   -5.305828   -0.864803
     78          1           0        0.142180   -4.331473    0.348584
     79          1           0        0.416742    3.963720    0.947143
     80          1           0        0.201719    5.225493   -0.303728
     81          1           0        0.647571    3.577543   -0.727906
     82          1           0       -0.907895    7.073089   -0.934758
     83          1           0       -1.051286    6.802768    0.793029
     84          1           0       -1.981241    8.093508    0.161663
     85          1           0       -7.763712    4.001738   -1.755717
     86          1           0       -9.153040    2.890503    0.702908
     87          1           0       -7.083090    5.183376    1.029674
     88          1           0       -8.750129    5.468250    0.482708
     89          1           0       -7.629505    6.074802   -0.526208
     90          1           0       -9.451171    1.644032   -1.961268
     91          1           0       -9.807431    3.363869   -2.079626
     92          1           0      -11.323870    0.976319   -1.104421
     93          1           0      -11.907367    2.689456   -1.175742
     94          1           0      -11.145321    2.154443    0.197267
     95          1           0       -9.503834   -2.448606    1.454142
     96          1           0       -8.894596   -3.945163    0.745506
     97          1           0       -9.471267   -2.512638   -0.312471
     98          1           0       -3.868661   -4.534576    0.016607
     99          1           0       -3.090419   -6.321662    3.958180
    100          1           0       -1.665864   -5.333312    3.627682
    101          1           0       -1.874558   -6.888715    2.788691
    102          1           0        3.351479   -5.037767   -2.146467
    103          1           0        4.130204   -4.802021   -0.533643
    104          1           0        3.837788   -2.329724   -2.163952
    105          1           0        6.951933   -3.377252    0.237499
    106          1           0        7.378353   -4.127565   -1.396679
    107          1           0        6.169715   -4.847863   -0.629038
    108          1           0        6.979882   -1.404572   -0.956415
    109          1           0        5.405301   -0.764137   -1.388912
    110          1           0        5.969592   -0.471716   -3.646186
    111          1           0        6.106327   -2.257793   -3.709555
    112          1           0        8.384963   -1.938871   -4.111068
    113          1           0        8.479969   -1.328264   -2.483097
    114          1           0        7.566464    0.878245   -4.223643
    115          1           0        9.671785   -0.553205   -5.670169
    116          1           0        8.496989    0.827900   -6.100405
    117          1           0        7.877305   -0.861986   -6.017801
    118          1           0       10.030105    1.572449   -4.203954
    119          1           0       10.209153    0.127617   -3.159924
    120          1           0        8.066772    1.181892   -1.818722
    121          1           0        8.572308    2.549808   -2.760470
    122          1           0       10.020659    3.159508   -1.359430
    123          1           0       11.007609    1.772806   -1.662711
    124          1           0        8.689658    1.510130    0.201161
    125          1           0       10.692680   -0.229200   -0.737243
    126          1           0        9.414868   -0.580172    0.436827
    127          1           0       10.965853   -0.056788    1.007320
    128          1           0       10.486610    3.539918    0.752511
    129          1           0       11.586623    2.302380    1.114518
    130          1           0        8.745450    2.153672    2.226315
    131          1           0        9.712977    3.578746    2.668107
    132          1           0       11.263365    1.121915    3.326138
    133          1           0        9.747332    0.696862    3.820117
    134          1           0       10.576943    3.352020    4.783892
    135          1           0       11.237219    1.637443    7.020612
    136          1           0       12.303795    2.480311    5.964455
    137          1           0       11.750061    0.833859    5.498485
    138          1           0        9.105413    1.879481    6.715113
    139          1           0        8.218105    1.827618    5.264776
    140          1           0        8.650943    3.394191    5.872370
 ---------------------------------------------------------------------

 SCF Done:  E(RwB97XD) =  -3007.85155390     A.U. after   19 cycles

 Excitation energies and oscillator strengths:

 Excited State   1:      Singlet-A      1.6802 eV  737.90 nm  f=0.4043  <S**2>=0.000
     245 -> 248       -0.18425
     246 -> 247        0.68203
     245 <- 248       -0.11273
 This state for optimization and/or second-order correction.
 Total Energy, E(TD-HF/TD-DFT) =  -3007.78980676
 Copying the excited state density for this state as the 1-particle RhoCI density.

 Excited State   2:      Singlet-A      2.1648 eV  572.72 nm  f=0.1043  <S**2>=0.000
     245 -> 247        0.63813
     246 -> 248        0.28944

 Excited State   3:      Singlet-A      3.4617 eV  358.16 nm  f=0.3886  <S**2>=0.000
     244 -> 247       -0.34457
     245 -> 247       -0.23041
     246 -> 248        0.55713

 Excited State   4:      Singlet-A      3.5551 eV  348.75 nm  f=0.1843  <S**2>=0.000
     241 -> 247       -0.15472
     242 -> 247        0.22632
     244 -> 247        0.55308
     245 -> 247       -0.13504
     246 -> 248        0.26043

 Excited State   5:      Singlet-A      3.5809 eV  346.23 nm  f=0.0073  <S**2>=0.000
     240 -> 247        0.51806
     240 -> 249       -0.34727
     240 -> 250        0.16639
     241 -> 247        0.15289
     242 -> 247       -0.11236

 The electronic state is 1-A.
 Alpha  occ. eigenvalues --  -46.95332 -19.31107 -19.30692 -19.24675 -19.24652
 Alpha  occ. eigenvalues --  -19.24317 -19.23662 -14.46369 -14.46353 -14.44284
 Alpha  occ. eigenvalues --  -14.43385 -10.43234 -10.42995 -10.39454 -10.38763
 Alpha  occ. eigenvalues --  -10.35609 -10.35366 -10.35340 -10.34864 -10.34651
 Alpha  occ. eigenvalues --  -10.34180 -10.34037 -10.33539 -10.33467 -10.33185
 Alpha  occ. eigenvalues --  -10.32344 -10.32081 -10.32055 -10.32004 -10.31939
 Alpha  occ. eigenvalues --  -10.31917 -10.31854 -10.31809 -10.31480 -10.31369
 Alpha  occ. eigenvalues --  -10.31287 -10.31203 -10.31107 -10.31086 -10.30566
 Alpha  occ. eigenvalues --  -10.30556 -10.30229 -10.30018 -10.29976 -10.29919
 Alpha  occ. eigenvalues --  -10.29728 -10.29564 -10.29551 -10.29534 -10.29445
 Alpha  occ. eigenvalues --  -10.29438 -10.29387 -10.29359 -10.29259 -10.29256
 Alpha  occ. eigenvalues --  -10.29221 -10.28965 -10.28962 -10.28816 -10.28737
 Alpha  occ. eigenvalues --  -10.28491 -10.28478 -10.28322 -10.28136 -10.27968
 Alpha  occ. eigenvalues --  -10.27925  -3.21237  -1.94844  -1.94352  -1.94210
 Alpha  occ. eigenvalues --   -1.19136  -1.18560  -1.12565  -1.11356  -1.09555
 Alpha  occ. eigenvalues --   -1.08900  -1.07311  -1.06574  -1.06056  -1.04303
 Alpha  occ. eigenvalues --   -0.95242  -0.92612  -0.91941  -0.91707  -0.90757
 Alpha  occ. eigenvalues --   -0.90387  -0.90246  -0.89893  -0.89226  -0.89149
 Alpha  occ. eigenvalues --   -0.88083  -0.87403  -0.86309  -0.85884  -0.85255
 Alpha  occ. eigenvalues --   -0.84552  -0.84184  -0.83458  -0.82840  -0.82224
 Alpha  occ. eigenvalues --   -0.82010  -0.80592  -0.79636  -0.79082  -0.78286
 Alpha  occ. eigenvalues --   -0.77813  -0.77478  -0.77364  -0.76865  -0.76085
 Alpha  occ. eigenvalues --   -0.75194  -0.74737  -0.73718  -0.72433  -0.71114
 Alpha  occ. eigenvalues --   -0.70920  -0.70270  -0.69115  -0.68937  -0.68023
 Alpha  occ. eigenvalues --   -0.67751  -0.66887  -0.66702  -0.66383  -0.66161
 Alpha  occ. eigenvalues --   -0.65211  -0.64946  -0.64447  -0.64186  -0.61959
 Alpha  occ. eigenvalues --   -0.61860  -0.61281  -0.61201  -0.60842  -0.60430
 Alpha  occ. eigenvalues --   -0.60057  -0.59629  -0.58345  -0.57704  -0.57521
 Alpha  occ. eigenvalues --   -0.57187  -0.56877  -0.56559  -0.56396  -0.56064
 Alpha  occ. eigenvalues --   -0.55701  -0.55438  -0.55255  -0.55029  -0.54946
 Alpha  occ. eigenvalues --   -0.54339  -0.54277  -0.54050  -0.53988  -0.53850
 Alpha  occ. eigenvalues --   -0.53688  -0.53507  -0.53129  -0.52988  -0.52748
 Alpha  occ. eigenvalues --   -0.52389  -0.52108  -0.51789  -0.51680  -0.51545
 Alpha  occ. eigenvalues --   -0.51424  -0.51305  -0.51156  -0.50975  -0.50860
 Alpha  occ. eigenvalues --   -0.50658  -0.50486  -0.49997  -0.49881  -0.49660
 Alpha  occ. eigenvalues --   -0.49218  -0.48968  -0.48834  -0.48804  -0.48530
 Alpha  occ. eigenvalues --   -0.48367  -0.48271  -0.47949  -0.47709  -0.47631
 Alpha  occ. eigenvalues --   -0.47517  -0.47374  -0.47190  -0.47186  -0.46967
 Alpha  occ. eigenvalues --   -0.46804  -0.46628  -0.46515  -0.46353  -0.46151
 Alpha  occ. eigenvalues --   -0.46034  -0.45945  -0.45389  -0.45354  -0.45036
 Alpha  occ. eigenvalues --   -0.44893  -0.44793  -0.44596  -0.44477  -0.44410
 Alpha  occ. eigenvalues --   -0.44142  -0.44062  -0.43989  -0.43632  -0.43412
 Alpha  occ. eigenvalues --   -0.42735  -0.42394  -0.42193  -0.41821  -0.41664
 Alpha  occ. eigenvalues --   -0.41479  -0.41429  -0.41134  -0.40723  -0.40344
 Alpha  occ. eigenvalues --   -0.40136  -0.39787  -0.39765  -0.39500  -0.39456
 Alpha  occ. eigenvalues --   -0.39246  -0.39009  -0.38697  -0.38566  -0.37734
 Alpha  occ. eigenvalues --   -0.37711  -0.37513  -0.37213  -0.36362  -0.36082
 Alpha  occ. eigenvalues --   -0.35639  -0.35284  -0.34915  -0.33539  -0.33416
 Alpha  occ. eigenvalues --   -0.33029  -0.32877  -0.31667  -0.31563  -0.25651
 Alpha  occ. eigenvalues --   -0.22686
 Alpha virt. eigenvalues --   -0.06758   0.00307   0.02200   0.04479   0.05947
 Alpha virt. eigenvalues --    0.06700   0.07297   0.07408   0.08887   0.09587
 Alpha virt. eigenvalues --    0.10454   0.11152   0.11727   0.12284   0.12493

 Mulliken charges:
               1
     1  Mg   0.963716
     2  C   -0.023275
     3  C   -0.068917
     4  C   -0.066506
     5  C   -0.083802
     6  N   -0.311187
     7  C   -0.022398
     8  C   -0.001297
     9  C   -0.146052
    10  C    0.026313
    11  C    0.038110
    12  C    0.042444
    13  C    0.016492
    14  C    0.196307
    15  O   -0.276899
    16  O   -0.353687
    17  N   -0.435421
    18  C    0.138227
    19  C   -0.171968
    20  C   -0.084344
    21  C    0.095307
    22  C    0.071738
    23  C    0.059091
    24  O   -0.249026
    25  C   -0.021308
    26  N   -0.344570
    27  C    0.036875
    28  C   -0.026719
    29  C   -0.135108
    30  C    0.052869
    31  C    0.053236
    32  C   -0.018190
    33  C   -0.062373
    34  N   -0.401425
    35  C    0.121650
    36  C   -0.193039
    37  C   -0.047515
    38  C    0.133728
    39  C    0.092461
    40  C    0.118133
    41  O   -0.200817
    42  C   -0.089920
    43  C    0.279992
    44  O   -0.279581
    45  O   -0.350404
    46  C    0.134147
    47  C    0.266650
    48  C   -0.103944
    49  C   -0.279798
    50  C    0.054795
    51  C    0.027021
    52  C    0.005649
    53  C   -0.004826
    54  C   -0.237666
    55  C    0.018760
    56  C   -0.005276
    57  C   -0.044907
    58  C    0.023154
    59  C   -0.214340
    60  C    0.030704
    61  C    0.010265
    62  C   -0.004249
    63  C    0.008950
    64  C   -0.216998
    65  C    0.005093
    66  C   -0.019057
    67  H   -0.018596
    68  H    0.020692
    69  H   -0.013655
    70  H    0.030058
    71  H    0.045418
    72  H    0.030113
    73  H    0.062373
    74  H    0.026825
    75  H    0.043221
    76  H    0.026791
    77  H    0.072359
    78  H    0.043053
    79  H    0.058359
    80  H    0.016081
    81  H    0.048176
    82  H    0.075510
    83  H    0.058719
    84  H    0.054415
    85  H    0.031057
    86  H    0.049321
    87  H    0.063818
    88  H    0.022450
    89  H    0.045834
    90  H    0.035732
    91  H    0.044281
    92  H    0.049757
    93  H    0.036502
    94  H    0.017853
    95  H    0.053721
    96  H    0.069596
    97  H    0.050957
    98  H    0.075870
    99  H    0.066502
   100  H    0.061993
   101  H    0.049732
   102  H    0.066295
   103  H    0.026921
   104  H    0.011205
   105  H    0.067245
   106  H    0.041124
   107  H    0.018842
   108  H    0.023312
   109  H    0.031500
   110  H    0.030298
   111  H    0.046343
   112  H    0.009267
   113  H    0.008503
   114  H    0.007213
   115  H    0.039222
   116  H    0.032024
   117  H    0.034318
   118  H    0.022654
   119  H    0.010153
   120  H    0.022338
   121  H    0.016572
   122  H    0.008192
   123  H    0.013419
   124  H    0.019512
   125  H    0.031267
   126  H    0.024083
   127  H    0.024482
   128  H    0.013072
   129  H    0.020992
   130  H    0.024585
   131  H    0.023395
   132  H    0.012194
   133  H    0.008745
   134  H    0.021990
   135  H    0.034962
   136  H    0.031349
   137  H    0.022993
   138  H    0.020398
   139  H    0.014545
   140  H    0.034519
 Sum of Mulliken charges =  -0.00000

 Dipole moment (field-independent basis, Debye):
    X=              3.0574    Y=              1.6993    Z=              0.0277  Tot=              3.4980
 Quadrupole moment (field-independent basis, Debye-Ang):
   XX=           -363.3537   YY=           -420.1875   ZZ=           -417.0032
   XY=            -14.9097   XZ=             11.8233   YZ=             -6.3279

 Normal termination of Gaussian 16 at Sat Apr 30 06:28:07 2022.
