 Gaussian 16, Revision A.03,
 Gaussian 16:  ES64L-G16RevA.03 25-Dec-2016

 --------------------
 #p ZINDO=(nstates=5)
 --------------------

 -----------------------------
 step_601_chromophore_27 ZINDO
 -----------------------------
 Symbolic Z-matrix:
 Charge =  0 Multiplicity = 1

                         Standard orientation:
 ---------------------------------------------------------------------
 Center     Atomic      Atomic             Coordinates (Angstroms)
 Number     Number       Type             X           Y           Z
 ---------------------------------------------------------------------
      1         12           0       -4.647416    0.888093   -0.161496
      2          6           0       -4.049220   -2.465304    0.636864
      3          6           0       -1.251372    1.420613    0.012150
      4          6           0       -5.160923    4.063459   -0.822487
      5          6           0       -8.071599    0.272937    0.131862
      6          7           0       -2.859092   -0.409794    0.222708
      7          6           0       -2.869349   -1.726886    0.381103
      8          6           0       -1.433794   -2.280713    0.213946
      9          6           0       -0.507484   -1.044115    0.148126
     10          6           0       -1.601636    0.086026    0.135805
     11          6           0        0.245786   -0.796027    1.407433
     12          6           0       -1.252398   -3.239483   -0.987577
     13          6           0       -0.178898   -4.353614   -0.692903
     14          6           0        1.155167   -4.315292   -1.447096
     15          8           0        1.283608   -4.569824   -2.640178
     16          8           0        2.243832   -4.072931   -0.660245
     17          7           0       -3.356347    2.562243   -0.207030
     18          6           0       -2.021523    2.620234   -0.101867
     19          6           0       -1.493303    3.911094   -0.229019
     20          6           0       -2.651782    4.762977   -0.380927
     21          6           0       -3.819421    3.845414   -0.494502
     22          6           0        0.037953    4.177605   -0.052497
     23          6           0       -2.773990    6.292924   -0.394841
     24          8           0       -3.875805    6.826787   -0.581181
     25          6           0       -1.604587    7.104134   -0.096518
     26          7           0       -6.425847    1.993893   -0.391720
     27          6           0       -6.328590    3.315348   -0.696364
     28          6           0       -7.653226    3.953930   -0.672136
     29          6           0       -8.685135    2.759299   -0.273324
     30          6           0       -7.661289    1.582786   -0.230089
     31          6           0       -7.736148    5.233929    0.158007
     32          6           0       -9.721574    2.528297   -1.385130
     33          6           0      -11.098542    2.019602   -0.882853
     34          7           0       -5.874988   -0.725993    0.331534
     35          6           0       -7.221818   -0.853676    0.328370
     36          6           0       -7.632701   -2.273963    0.537100
     37          6           0       -6.401008   -2.921330    0.688822
     38          6           0       -5.362645   -1.926967    0.585448
     39          6           0       -8.983883   -2.869034    0.594177
     40          6           0       -5.768215   -4.216014    0.864836
     41          8           0       -6.175970   -5.368568    0.925677
     42          6           0       -4.249967   -3.934152    0.842393
     43          6           0       -3.684952   -4.363651    2.133410
     44          8           0       -3.654667   -3.736222    3.210411
     45          8           0       -3.060127   -5.545382    1.911493
     46          6           0       -2.392134   -6.013086    3.180558
     47          6           0        3.513980   -4.354876   -1.313099
     48          6           0        4.354386   -3.179187   -1.715640
     49          6           0        5.638241   -2.920982   -1.387501
     50          6           0        6.603605   -3.849503   -0.681851
     51          6           0        6.170808   -1.482872   -1.682191
     52          6           0        6.392403   -1.355797   -3.168831
     53          6           0        7.956882   -1.202729   -3.431499
     54          6           0        8.362683    0.133382   -4.193059
     55          6           0        8.652282   -0.169082   -5.687963
     56          6           0        9.525378    0.901581   -3.508754
     57          6           0        8.941595    1.648328   -2.272273
     58          6           0       10.026143    2.071481   -1.294752
     59          6           0        9.777681    1.518102    0.138559
     60          6           0       10.242981    0.088839    0.203954
     61          6           0       10.515591    2.505557    1.097349
     62          6           0        9.754120    2.517785    2.421532
     63          6           0       10.330643    1.598183    3.630901
     64          6           0       10.404620    2.295772    4.991090
     65          6           0       11.469795    1.777308    5.965673
     66          6           0        9.024902    2.378248    5.749456
     67          1           0       -0.192385    1.578222   -0.205190
     68          1           0       -5.287485    5.136800   -0.980510
     69          1           0       -9.153153    0.130418    0.164884
     70          1           0       -1.293996   -2.774143    1.176200
     71          1           0        0.158827   -0.929287   -0.706728
     72          1           0        0.502542   -1.736439    1.895500
     73          1           0       -0.293520   -0.090203    2.038518
     74          1           0        1.238805   -0.432628    1.142925
     75          1           0       -1.040458   -2.685248   -1.901952
     76          1           0       -2.205710   -3.699766   -1.248124
     77          1           0       -0.681154   -5.305828   -0.864803
     78          1           0        0.142180   -4.331473    0.348584
     79          1           0        0.416742    3.963720    0.947143
     80          1           0        0.201719    5.225493   -0.303728
     81          1           0        0.647571    3.577543   -0.727906
     82          1           0       -0.907895    7.073089   -0.934758
     83          1           0       -1.051286    6.802768    0.793029
     84          1           0       -1.981241    8.093508    0.161663
     85          1           0       -7.763712    4.001738   -1.755717
     86          1           0       -9.153040    2.890503    0.702908
     87          1           0       -7.083090    5.183376    1.029674
     88          1           0       -8.750129    5.468250    0.482708
     89          1           0       -7.629505    6.074802   -0.526208
     90          1           0       -9.451171    1.644032   -1.961268
     91          1           0       -9.807431    3.363869   -2.079626
     92          1           0      -11.323870    0.976319   -1.104421
     93          1           0      -11.907367    2.689456   -1.175742
     94          1           0      -11.145321    2.154443    0.197267
     95          1           0       -9.503834   -2.448606    1.454142
     96          1           0       -8.894596   -3.945163    0.745506
     97          1           0       -9.471267   -2.512638   -0.312471
     98          1           0       -3.868661   -4.534576    0.016607
     99          1           0       -3.090419   -6.321662    3.958180
    100          1           0       -1.665864   -5.333312    3.627682
    101          1           0       -1.874558   -6.888715    2.788691
    102          1           0        3.351479   -5.037767   -2.146467
    103          1           0        4.130204   -4.802021   -0.533643
    104          1           0        3.837788   -2.329724   -2.163952
    105          1           0        6.951933   -3.377252    0.237499
    106          1           0        7.378353   -4.127565   -1.396679
    107          1           0        6.169715   -4.847863   -0.629038
    108          1           0        6.979882   -1.404572   -0.956415
    109          1           0        5.405301   -0.764137   -1.388912
    110          1           0        5.969592   -0.471716   -3.646186
    111          1           0        6.106327   -2.257793   -3.709555
    112          1           0        8.384963   -1.938871   -4.111068
    113          1           0        8.479969   -1.328264   -2.483097
    114          1           0        7.566464    0.878245   -4.223643
    115          1           0        9.671785   -0.553205   -5.670169
    116          1           0        8.496989    0.827900   -6.100405
    117          1           0        7.877305   -0.861986   -6.017801
    118          1           0       10.030105    1.572449   -4.203954
    119          1           0       10.209153    0.127617   -3.159924
    120          1           0        8.066772    1.181892   -1.818722
    121          1           0        8.572308    2.549808   -2.760470
    122          1           0       10.020659    3.159508   -1.359430
    123          1           0       11.007609    1.772806   -1.662711
    124          1           0        8.689658    1.510130    0.201161
    125          1           0       10.692680   -0.229200   -0.737243
    126          1           0        9.414868   -0.580172    0.436827
    127          1           0       10.965853   -0.056788    1.007320
    128          1           0       10.486610    3.539918    0.752511
    129          1           0       11.586623    2.302380    1.114518
    130          1           0        8.745450    2.153672    2.226315
    131          1           0        9.712977    3.578746    2.668107
    132          1           0       11.263365    1.121915    3.326138
    133          1           0        9.747332    0.696862    3.820117
    134          1           0       10.576943    3.352020    4.783892
    135          1           0       11.237219    1.637443    7.020612
    136          1           0       12.303795    2.480311    5.964455
    137          1           0       11.750061    0.833859    5.498485
    138          1           0        9.105413    1.879481    6.715113
    139          1           0        8.218105    1.827618    5.264776
    140          1           0        8.650943    3.394191    5.872370
 ---------------------------------------------------------------------

 SCF Done:  E(RZINDO/S) =  -474.462932287     A.U. after   19 cycles

 Excitation energies and oscillator strengths:

 Excited State   1:      Singlet-A      1.2615 eV  982.81 nm  f=0.6154  <S**2>=0.000
     175 ->178         0.19075
     176 ->177         0.66324
 This state for optimization and/or second-order correction.
 Total Energy, E(CIS/TDA) =  -474.416572030
 Copying the excited state density for this state as the 1-particle RhoCI density.

 Excited State   2:      Singlet-A      1.9072 eV  650.10 nm  f=0.0404  <S**2>=0.000
     175 ->177         0.54511
     176 ->178        -0.42442

 Excited State   3:      Singlet-A      2.9418 eV  421.45 nm  f=0.5853  <S**2>=0.000
     175 ->177        -0.28670
     176 ->178        -0.35723
     176 ->179         0.44021
     176 ->180         0.20770

 Excited State   4:      Singlet-A      2.9588 eV  419.03 nm  f=0.0735  <S**2>=0.000
     168 ->177         0.31224
     168 ->179        -0.37705
     168 ->180         0.10361
     168 ->182        -0.14962
     168 ->186        -0.14397
     175 ->177        -0.10831
     176 ->178        -0.16040
     176 ->179        -0.27373

 Excited State   5:      Singlet-A      2.9896 eV  414.72 nm  f=0.4568  <S**2>=0.000
     168 ->177         0.17533
     168 ->179        -0.21754
     175 ->177         0.24912
     176 ->178         0.35261
     176 ->179         0.39540

 The electronic state is 1-A.
 Alpha  occ. eigenvalues --   -1.85690  -1.82728  -1.80788  -1.74650  -1.73928
 Alpha  occ. eigenvalues --   -1.71852  -1.66356  -1.60384  -1.59865  -1.57999
 Alpha  occ. eigenvalues --   -1.55293  -1.52137  -1.49187  -1.48367  -1.47141
 Alpha  occ. eigenvalues --   -1.44304  -1.42902  -1.41624  -1.39379  -1.38899
 Alpha  occ. eigenvalues --   -1.36529  -1.35620  -1.32899  -1.30845  -1.27629
 Alpha  occ. eigenvalues --   -1.26585  -1.25567  -1.22520  -1.20871  -1.18500
 Alpha  occ. eigenvalues --   -1.18078  -1.16199  -1.15683  -1.14935  -1.13801
 Alpha  occ. eigenvalues --   -1.12236  -1.10539  -1.09503  -1.05555  -1.04068
 Alpha  occ. eigenvalues --   -1.01823  -1.01042  -0.98229  -0.97750  -0.96621
 Alpha  occ. eigenvalues --   -0.96187  -0.95085  -0.94140  -0.93739  -0.92688
 Alpha  occ. eigenvalues --   -0.90953  -0.90048  -0.89751  -0.89253  -0.86845
 Alpha  occ. eigenvalues --   -0.85058  -0.83987  -0.83128  -0.82616  -0.79773
 Alpha  occ. eigenvalues --   -0.79245  -0.78813  -0.77722  -0.77038  -0.76740
 Alpha  occ. eigenvalues --   -0.76261  -0.75929  -0.75645  -0.74721  -0.74032
 Alpha  occ. eigenvalues --   -0.73179  -0.72912  -0.72087  -0.71743  -0.71096
 Alpha  occ. eigenvalues --   -0.70705  -0.69217  -0.68954  -0.68148  -0.67977
 Alpha  occ. eigenvalues --   -0.67282  -0.67037  -0.66823  -0.66060  -0.65318
 Alpha  occ. eigenvalues --   -0.65123  -0.64713  -0.64396  -0.64147  -0.63849
 Alpha  occ. eigenvalues --   -0.63438  -0.63150  -0.62737  -0.62361  -0.62203
 Alpha  occ. eigenvalues --   -0.61450  -0.61129  -0.61081  -0.60794  -0.59734
 Alpha  occ. eigenvalues --   -0.59434  -0.58629  -0.58336  -0.58225  -0.58184
 Alpha  occ. eigenvalues --   -0.57416  -0.57143  -0.56915  -0.56605  -0.56464
 Alpha  occ. eigenvalues --   -0.56008  -0.55921  -0.55650  -0.55441  -0.54974
 Alpha  occ. eigenvalues --   -0.54597  -0.53770  -0.53415  -0.52930  -0.52661
 Alpha  occ. eigenvalues --   -0.52609  -0.52507  -0.52334  -0.52236  -0.52002
 Alpha  occ. eigenvalues --   -0.51622  -0.51277  -0.51038  -0.50634  -0.50585
 Alpha  occ. eigenvalues --   -0.50441  -0.49711  -0.49403  -0.49300  -0.49152
 Alpha  occ. eigenvalues --   -0.48768  -0.48258  -0.48016  -0.47914  -0.47715
 Alpha  occ. eigenvalues --   -0.47231  -0.47114  -0.46989  -0.46584  -0.46338
 Alpha  occ. eigenvalues --   -0.46041  -0.45902  -0.45785  -0.45469  -0.45039
 Alpha  occ. eigenvalues --   -0.44925  -0.44508  -0.44250  -0.43862  -0.43796
 Alpha  occ. eigenvalues --   -0.43662  -0.43549  -0.42847  -0.42574  -0.41984
 Alpha  occ. eigenvalues --   -0.41395  -0.41289  -0.40332  -0.38978  -0.38742
 Alpha  occ. eigenvalues --   -0.38168  -0.36750  -0.35779  -0.34766  -0.34417
 Alpha  occ. eigenvalues --   -0.33817  -0.32114  -0.31891  -0.31566  -0.26347
 Alpha  occ. eigenvalues --   -0.21487
 Alpha virt. eigenvalues --   -0.08262  -0.01889  -0.00897   0.01388   0.01635
 Alpha virt. eigenvalues --    0.02163   0.02595   0.03544   0.04632   0.04797
 Alpha virt. eigenvalues --    0.06363   0.06908   0.07359   0.07403   0.07951

 Mulliken charges:
               1
     1  Mg   0.425769
     2  C   -0.067897
     3  C   -0.088523
     4  C   -0.054941
     5  C   -0.085906
     6  N   -0.278103
     7  C    0.152470
     8  C    0.010410
     9  C   -0.000391
    10  C    0.109557
    11  C   -0.047370
    12  C   -0.016049
    13  C    0.005105
    14  C    0.466901
    15  O   -0.522442
    16  O   -0.262072
    17  N   -0.326012
    18  C    0.108150
    19  C   -0.025305
    20  C   -0.058001
    21  C    0.108931
    22  C   -0.044435
    23  C    0.333052
    24  O   -0.540232
    25  C   -0.025858
    26  N   -0.250885
    27  C    0.123381
    28  C   -0.001967
    29  C   -0.006364
    30  C    0.146211
    31  C   -0.045717
    32  C   -0.031114
    33  C   -0.063948
    34  N   -0.310584
    35  C    0.113184
    36  C    0.052644
    37  C   -0.058281
    38  C    0.127657
    39  C   -0.030709
    40  C    0.339122
    41  O   -0.520437
    42  C    0.062090
    43  C    0.494209
    44  O   -0.539943
    45  O   -0.259612
    46  C    0.073173
    47  C    0.105001
    48  C   -0.093695
    49  C   -0.010815
    50  C   -0.047548
    51  C   -0.019787
    52  C   -0.025541
    53  C   -0.051117
    54  C   -0.030948
    55  C   -0.068856
    56  C   -0.036383
    57  C   -0.044168
    58  C   -0.041243
    59  C   -0.009758
    60  C   -0.051308
    61  C   -0.030627
    62  C   -0.040124
    63  C   -0.034451
    64  C   -0.006243
    65  C   -0.057268
    66  C   -0.063145
    67  H    0.014591
    68  H    0.040121
    69  H    0.027311
    70  H    0.035301
    71  H    0.041237
    72  H    0.012912
    73  H    0.038312
    74  H    0.012428
    75  H    0.034715
    76  H    0.021721
    77  H    0.047086
    78  H    0.030284
    79  H    0.031954
    80  H    0.017215
    81  H    0.027606
    82  H    0.045398
    83  H    0.031302
    84  H    0.034276
    85  H    0.040447
    86  H    0.043651
    87  H    0.040970
    88  H    0.008087
    89  H    0.029398
    90  H    0.018465
    91  H    0.030120
    92  H    0.027440
    93  H    0.017748
    94  H    0.011034
    95  H    0.035071
    96  H    0.044444
    97  H    0.037966
    98  H    0.056606
    99  H    0.052737
   100  H    0.049211
   101  H    0.020732
   102  H    0.062989
   103  H    0.028144
   104  H    0.026429
   105  H    0.042657
   106  H    0.028343
   107  H    0.022349
   108  H    0.029364
   109  H    0.018062
   110  H    0.029059
   111  H    0.029173
   112  H    0.017082
   113  H    0.018545
   114  H    0.013111
   115  H    0.031049
   116  H    0.022050
   117  H    0.023779
   118  H    0.025544
   119  H    0.013977
   120  H    0.029286
   121  H    0.006996
   122  H    0.010460
   123  H    0.017538
   124  H    0.027616
   125  H    0.022713
   126  H    0.012694
   127  H    0.016097
   128  H    0.012766
   129  H    0.026715
   130  H    0.021271
   131  H    0.020529
   132  H    0.017275
   133  H    0.015178
   134  H    0.013399
   135  H    0.027272
   136  H    0.013602
   137  H    0.019120
   138  H    0.016734
   139  H    0.011784
   140  H    0.020457
 Sum of Mulliken charges =  -0.00000

 Dipole moment (field-independent basis, Debye):
    X=              2.9635    Y=             -0.1687    Z=             -0.2068  Tot=              2.9755
 N-N= 4.370644474326D+03 E-N= 0.000000000000D+00  KE=-9.415617600747D+03
 Leave Link  601 at Sat Apr 30 06:40:09 2022, MaxMem=  6710886400 cpu:               0.8 elap:               0.1
 (Enter /sw/apps/gaussian-16.0/g16/l9999.exe)
 1\1\GINC-BP1-COMPUTE070\SP\RZINDO CIS\STO-3G\C55H74Mg1N4O6\OF15641\30-
 Apr-2022\0\\#p ZINDO=(nstates=5)\\step_601_chromophore_27 ZINDO\\0,1\M
 g,0,-4.537,24.651,26.966\C,0,-2.913,26.529,29.431\C,0,-5.477,22.437,29
 .428\C,0,-6.003,22.806,24.679\C,0,-3.139,26.747,24.549\N,0,-4.266,24.5
 48,29.19\C,0,-3.702,25.476,29.952\C,0,-4.071,25.225,31.434\C,0,-4.776,
 23.849,31.468\C,0,-4.846,23.567,29.922\C,0,-3.917,22.752,31.991\C,0,-4
 .908,26.352,32.086\C,0,-4.581,26.515,33.618\C,0,-5.643,26.116,34.649\O

 Normal termination of Gaussian 16 at Sat Apr 30 06:40:09 2022.
