 Gaussian 16, Revision A.03,
 Gaussian 16:  ES64L-G16RevA.03 25-Dec-2016

 ------------------------------
 #p blyp/Def2SVP td=(nstates=5)
 ------------------------------

 --------------------------------------------------
 step_851_chromophore_12 TDDFT with blyp functional
 --------------------------------------------------
 Symbolic Z-matrix:
 Charge =  0 Multiplicity = 1

                         Standard orientation:
 ---------------------------------------------------------------------
 Center     Atomic      Atomic             Coordinates (Angstroms)
 Number     Number       Type             X           Y           Z
 ---------------------------------------------------------------------
      1         12           0       -4.432022    0.743513   -0.325672
      2          6           0       -3.692025   -2.611388    0.264870
      3          6           0       -1.116489    1.494261    0.001680
      4          6           0       -5.215288    4.031204   -0.560546
      5          6           0       -7.841073   -0.008010    0.230309
      6          7           0       -2.641438   -0.465090    0.007754
      7          6           0       -2.528218   -1.764446    0.092808
      8          6           0       -1.020883   -2.233382    0.199229
      9          6           0       -0.276643   -0.896755    0.350371
     10          6           0       -1.395737    0.106127    0.107746
     11          6           0        0.562384   -0.845512    1.660031
     12          6           0       -0.461270   -3.256569   -0.915453
     13          6           0        0.621462   -4.236264   -0.441451
     14          6           0        1.690745   -4.438772   -1.607951
     15          8           0        1.446504   -4.811841   -2.741399
     16          8           0        2.936603   -4.326939   -1.158053
     17          7           0       -3.390514    2.522587   -0.327401
     18          6           0       -2.046310    2.590894   -0.260254
     19          6           0       -1.602068    3.991594   -0.301940
     20          6           0       -2.756752    4.807585   -0.543713
     21          6           0       -3.864539    3.796387   -0.482118
     22          6           0       -0.146588    4.382420   -0.135631
     23          6           0       -2.990146    6.380323   -0.511561
     24          8           0       -4.130576    6.811195   -0.605732
     25          6           0       -1.829850    7.408862   -0.517156
     26          7           0       -6.257555    1.782371   -0.191661
     27          6           0       -6.292504    3.173598   -0.535284
     28          6           0       -7.729100    3.694211   -0.348898
     29          6           0       -8.607616    2.347392   -0.206515
     30          6           0       -7.510298    1.313316   -0.042241
     31          6           0       -7.967776    4.566251    0.855245
     32          6           0       -9.558703    2.064361   -1.407773
     33          6           0       -8.866430    1.649948   -2.707411
     34          7           0       -5.641825   -0.984962    0.146421
     35          6           0       -6.959948   -1.121964    0.261787
     36          6           0       -7.250813   -2.477955    0.419204
     37          6           0       -6.025645   -3.150046    0.431310
     38          6           0       -5.070325   -2.164997    0.271919
     39          6           0       -8.562479   -3.047641    0.404108
     40          6           0       -5.374970   -4.456068    0.427975
     41          8           0       -5.801590   -5.586266    0.450712
     42          6           0       -3.778900   -4.146519    0.467251
     43          6           0       -3.110923   -4.652202    1.715062
     44          8           0       -2.606628   -3.906343    2.521106
     45          8           0       -3.151475   -5.996785    1.789039
     46          6           0       -2.450198   -6.493100    2.987440
     47          6           0        3.957734   -4.805757   -2.024166
     48          6           0        5.234755   -4.868887   -1.205705
     49          6           0        6.237434   -3.970146   -1.117261
     50          6           0        6.342777   -2.699741   -2.011602
     51          6           0        7.453006   -4.318013   -0.179261
     52          6           0        8.802082   -3.634231   -0.411715
     53          6           0        8.934941   -2.225320    0.245845
     54          6           0        9.870822   -1.230742   -0.526942
     55          6           0       11.344236   -1.747704   -0.459145
     56          6           0        9.711202    0.220805   -0.046817
     57          6           0        8.621825    1.021056   -0.791983
     58          6           0        9.197438    2.277369   -1.611847
     59          6           0        8.446415    3.551462   -1.182196
     60          6           0        8.615563    4.685339   -2.279658
     61          6           0        9.059281    4.067583    0.203411
     62          6           0        8.056327    4.903955    1.061098
     63          6           0        8.065738    4.460867    2.573716
     64          6           0        6.729362    3.602019    2.753974
     65          6           0        5.610468    4.469419    3.394071
     66          6           0        7.137465    2.324665    3.532277
     67          1           0       -0.044301    1.644400    0.137384
     68          1           0       -5.640075    4.978900   -0.898145
     69          1           0       -8.907565   -0.241088    0.223641
     70          1           0       -0.872241   -2.691181    1.176767
     71          1           0        0.385961   -0.830933   -0.512948
     72          1           0        0.262360    0.080511    2.150471
     73          1           0        1.617235   -1.011389    1.441585
     74          1           0        0.309178   -1.602864    2.402808
     75          1           0       -0.120787   -2.688379   -1.780972
     76          1           0       -1.223693   -3.995405   -1.163674
     77          1           0        0.226267   -5.188246   -0.085869
     78          1           0        1.131104   -3.841317    0.437046
     79          1           0        0.137362    5.343057   -0.566063
     80          1           0        0.560949    3.614857   -0.449539
     81          1           0       -0.033982    4.413529    0.947853
     82          1           0       -2.148056    8.428431   -0.735378
     83          1           0       -1.022998    7.065932   -1.165105
     84          1           0       -1.282254    7.305104    0.418824
     85          1           0       -7.906836    4.238951   -1.275989
     86          1           0       -9.230490    2.370575    0.687684
     87          1           0       -8.840533    4.318093    1.459547
     88          1           0       -8.091609    5.554348    0.411781
     89          1           0       -7.126480    4.626262    1.544783
     90          1           0      -10.062432    2.958124   -1.775041
     91          1           0      -10.267233    1.324461   -1.035096
     92          1           0       -9.164201    2.292269   -3.537095
     93          1           0       -8.984618    0.590125   -2.933510
     94          1           0       -7.777177    1.620917   -2.714778
     95          1           0       -8.539640   -4.063961    0.011197
     96          1           0       -9.154660   -2.452306   -0.291148
     97          1           0       -8.904050   -3.064906    1.439421
     98          1           0       -3.398638   -4.642481   -0.426112
     99          1           0       -2.452991   -7.582679    2.974798
    100          1           0       -3.026587   -6.242159    3.877418
    101          1           0       -1.409167   -6.177048    3.049144
    102          1           0        4.106832   -4.266450   -2.959481
    103          1           0        3.705037   -5.831308   -2.292626
    104          1           0        5.288163   -5.751192   -0.568681
    105          1           0        5.366412   -2.466816   -2.435865
    106          1           0        7.061553   -2.897309   -2.807138
    107          1           0        6.701809   -1.788248   -1.534370
    108          1           0        7.625500   -5.393861   -0.144248
    109          1           0        7.081245   -3.997032    0.793619
    110          1           0        9.054870   -3.627249   -1.472362
    111          1           0        9.680793   -4.056052    0.075160
    112          1           0        9.352176   -2.398271    1.238915
    113          1           0        7.963669   -1.778249    0.458811
    114          1           0        9.500725   -1.191732   -1.551503
    115          1           0       11.985853   -1.049089    0.077143
    116          1           0       11.673474   -1.787500   -1.498064
    117          1           0       11.348581   -2.746209   -0.022490
    118          1           0       10.615677    0.821263    0.056111
    119          1           0        9.454595    0.196455    1.011647
    120          1           0        7.804061    1.421389   -0.193631
    121          1           0        8.163439    0.469593   -1.613413
    122          1           0        8.905027    2.099942   -2.647246
    123          1           0       10.266716    2.488258   -1.621331
    124          1           0        7.384360    3.309634   -1.143513
    125          1           0        7.612726    4.924155   -2.632566
    126          1           0        9.166482    4.425013   -3.184169
    127          1           0        9.094248    5.596577   -1.920862
    128          1           0        9.920038    4.725911    0.085075
    129          1           0        9.545038    3.235780    0.713827
    130          1           0        7.050617    4.889444    0.641205
    131          1           0        8.328484    5.959421    1.028693
    132          1           0        7.931140    5.321573    3.228855
    133          1           0        8.964592    3.930979    2.886991
    134          1           0        6.319647    3.163064    1.844639
    135          1           0        5.440923    4.085004    4.400344
    136          1           0        4.703299    4.400029    2.794526
    137          1           0        5.884243    5.524007    3.422153
    138          1           0        6.287476    1.693562    3.793066
    139          1           0        7.643075    2.609673    4.455115
    140          1           0        7.763422    1.625805    2.977610
 ---------------------------------------------------------------------

 SCF Done:  E(RB-LYP) =  -3007.37440768     A.U. after   21 cycles

 Excitation energies and oscillator strengths:

 Excited State   1:      Singlet-A      1.8177 eV  682.10 nm  f=0.2995  <S**2>=0.000
     245 -> 248       -0.18724
     246 -> 247        0.68711
     246 <- 247       -0.14717
 This state for optimization and/or second-order correction.
 Total Energy, E(TD-HF/TD-DFT) =  -3007.30760858
 Copying the excited state density for this state as the 1-particle RhoCI density.

 Excited State   2:      Singlet-A      2.0200 eV  613.79 nm  f=0.0508  <S**2>=0.000
     244 -> 247       -0.39494
     245 -> 247        0.53727
     246 -> 248        0.17981

 Excited State   3:      Singlet-A      2.0585 eV  602.31 nm  f=0.0268  <S**2>=0.000
     244 -> 247        0.58396
     245 -> 247        0.35340
     246 -> 248        0.13658

 Excited State   4:      Singlet-A      2.1785 eV  569.12 nm  f=0.0038  <S**2>=0.000
     243 -> 247        0.69623
     245 -> 247       -0.10078

 Excited State   5:      Singlet-A      2.5578 eV  484.73 nm  f=0.0006  <S**2>=0.000
     241 -> 247        0.70484

 The electronic state is 1-A.
 Alpha  occ. eigenvalues --  -46.27151 -18.82648 -18.82490 -18.76650 -18.76489
 Alpha  occ. eigenvalues --  -18.76141 -18.75872 -14.03589 -14.02425 -14.01508
 Alpha  occ. eigenvalues --  -13.99663 -10.04163 -10.03646 -10.01110  -9.99756
 Alpha  occ. eigenvalues --   -9.97847  -9.97790  -9.96780  -9.96364  -9.95907
 Alpha  occ. eigenvalues --   -9.95641  -9.95606  -9.95425  -9.94219  -9.94110
 Alpha  occ. eigenvalues --   -9.94052  -9.93890  -9.93723  -9.93690  -9.93660
 Alpha  occ. eigenvalues --   -9.93618  -9.93482  -9.93396  -9.93395  -9.93240
 Alpha  occ. eigenvalues --   -9.93232  -9.93185  -9.93088  -9.92899  -9.92847
 Alpha  occ. eigenvalues --   -9.92826  -9.92540  -9.92509  -9.92479  -9.92452
 Alpha  occ. eigenvalues --   -9.92234  -9.92109  -9.92028  -9.91922  -9.91800
 Alpha  occ. eigenvalues --   -9.91763  -9.91640  -9.91490  -9.91457  -9.91434
 Alpha  occ. eigenvalues --   -9.91419  -9.91387  -9.91345  -9.91245  -9.91231
 Alpha  occ. eigenvalues --   -9.91223  -9.91216  -9.91204  -9.90812  -9.90792
 Alpha  occ. eigenvalues --   -9.90223  -2.91760  -1.72188  -1.71601  -1.71502
 Alpha  occ. eigenvalues --   -1.00114  -0.98659  -0.91926  -0.91903  -0.90461
 Alpha  occ. eigenvalues --   -0.90320  -0.87708  -0.86923  -0.85742  -0.83991
 Alpha  occ. eigenvalues --   -0.74156  -0.73460  -0.72659  -0.72370  -0.71771
 Alpha  occ. eigenvalues --   -0.71682  -0.71344  -0.70860  -0.70631  -0.70383
 Alpha  occ. eigenvalues --   -0.69777  -0.68982  -0.68034  -0.67225  -0.66818
 Alpha  occ. eigenvalues --   -0.66248  -0.65385  -0.65183  -0.65004  -0.64039
 Alpha  occ. eigenvalues --   -0.63863  -0.62328  -0.61795  -0.61516  -0.61035
 Alpha  occ. eigenvalues --   -0.60464  -0.60410  -0.59679  -0.59635  -0.58707
 Alpha  occ. eigenvalues --   -0.58314  -0.57464  -0.56336  -0.55198  -0.54574
 Alpha  occ. eigenvalues --   -0.53876  -0.53471  -0.52510  -0.52177  -0.51406
 Alpha  occ. eigenvalues --   -0.51310  -0.50537  -0.50429  -0.50325  -0.49940
 Alpha  occ. eigenvalues --   -0.49891  -0.49851  -0.49074  -0.48272  -0.46649
 Alpha  occ. eigenvalues --   -0.46175  -0.45833  -0.45458  -0.44692  -0.44506
 Alpha  occ. eigenvalues --   -0.44432  -0.43641  -0.43145  -0.42646  -0.42448
 Alpha  occ. eigenvalues --   -0.41807  -0.41575  -0.41529  -0.41281  -0.40881
 Alpha  occ. eigenvalues --   -0.40641  -0.40538  -0.40455  -0.40197  -0.40161
 Alpha  occ. eigenvalues --   -0.39976  -0.39829  -0.39676  -0.39371  -0.38910
 Alpha  occ. eigenvalues --   -0.38745  -0.38529  -0.38399  -0.38200  -0.38081
 Alpha  occ. eigenvalues --   -0.37901  -0.37886  -0.37440  -0.37331  -0.37262
 Alpha  occ. eigenvalues --   -0.36861  -0.36749  -0.36567  -0.36541  -0.36265
 Alpha  occ. eigenvalues --   -0.36167  -0.36037  -0.36007  -0.35927  -0.35718
 Alpha  occ. eigenvalues --   -0.35492  -0.35356  -0.35131  -0.34961  -0.34596
 Alpha  occ. eigenvalues --   -0.34511  -0.34306  -0.34144  -0.34083  -0.33831
 Alpha  occ. eigenvalues --   -0.33693  -0.33472  -0.33200  -0.33036  -0.32914
 Alpha  occ. eigenvalues --   -0.32883  -0.32720  -0.32645  -0.32441  -0.32403
 Alpha  occ. eigenvalues --   -0.32279  -0.32140  -0.31957  -0.31705  -0.31484
 Alpha  occ. eigenvalues --   -0.31094  -0.31020  -0.30937  -0.30612  -0.30485
 Alpha  occ. eigenvalues --   -0.30476  -0.30363  -0.30173  -0.30030  -0.29827
 Alpha  occ. eigenvalues --   -0.29752  -0.29536  -0.29468  -0.29301  -0.29065
 Alpha  occ. eigenvalues --   -0.28907  -0.28835  -0.28334  -0.28279  -0.28019
 Alpha  occ. eigenvalues --   -0.27645  -0.27440  -0.27344  -0.26467  -0.26410
 Alpha  occ. eigenvalues --   -0.26166  -0.26058  -0.25890  -0.25627  -0.25596
 Alpha  occ. eigenvalues --   -0.25075  -0.24833  -0.24210  -0.23444  -0.23102
 Alpha  occ. eigenvalues --   -0.22874  -0.22511  -0.22041  -0.21720  -0.20836
 Alpha  occ. eigenvalues --   -0.20606  -0.20054  -0.19125  -0.18620  -0.16849
 Alpha  occ. eigenvalues --   -0.15531
 Alpha virt. eigenvalues --   -0.11207  -0.06750  -0.05711  -0.04374  -0.03272
 Alpha virt. eigenvalues --   -0.02479  -0.01947  -0.01873  -0.00937   0.00188
 Alpha virt. eigenvalues --    0.01604   0.01648   0.01821   0.02343   0.02440

 Mulliken charges:
               1
     1  Mg   0.698332
     2  C   -0.001848
     3  C   -0.060998
     4  C   -0.043914
     5  C   -0.080620
     6  N   -0.181756
     7  C   -0.050960
     8  C    0.002839
     9  C    0.009980
    10  C   -0.030521
    11  C    0.134125
    12  C    0.114899
    13  C    0.093390
    14  C    0.053004
    15  O   -0.198007
    16  O   -0.210245
    17  N   -0.270373
    18  C    0.167670
    19  C   -0.155669
    20  C    0.008210
    21  C    0.119761
    22  C    0.171843
    23  C   -0.034244
    24  O   -0.160698
    25  C    0.120130
    26  N   -0.249205
    27  C   -0.008746
    28  C    0.007086
    29  C    0.038000
    30  C    0.029876
    31  C    0.143649
    32  C    0.089081
    33  C    0.047068
    34  N   -0.171304
    35  C    0.082188
    36  C   -0.191906
    37  C    0.107996
    38  C    0.022175
    39  C    0.185334
    40  C   -0.072725
    41  O   -0.102693
    42  C   -0.004531
    43  C    0.122488
    44  O   -0.181435
    45  O   -0.236167
    46  C    0.226452
    47  C    0.319039
    48  C   -0.122956
    49  C   -0.120517
    50  C    0.130305
    51  C    0.135678
    52  C    0.074910
    53  C    0.034210
    54  C   -0.068972
    55  C    0.118190
    56  C    0.130469
    57  C    0.058016
    58  C    0.064567
    59  C   -0.087144
    60  C    0.098435
    61  C    0.095706
    62  C    0.082621
    63  C    0.100895
    64  C   -0.110067
    65  C    0.121460
    66  C    0.071320
    67  H   -0.069865
    68  H   -0.034209
    69  H   -0.074596
    70  H   -0.007985
    71  H   -0.031888
    72  H   -0.010506
    73  H    0.002716
    74  H   -0.001564
    75  H   -0.003607
    76  H   -0.009498
    77  H    0.012665
    78  H   -0.021310
    79  H   -0.012382
    80  H   -0.000450
    81  H    0.001225
    82  H    0.014552
    83  H    0.002850
    84  H   -0.002291
    85  H   -0.023629
    86  H   -0.027692
    87  H   -0.009065
    88  H   -0.008429
    89  H   -0.002224
    90  H   -0.019090
    91  H   -0.013364
    92  H   -0.006611
    93  H   -0.017822
    94  H   -0.009892
    95  H   -0.001307
    96  H   -0.004731
    97  H    0.006159
    98  H    0.015681
    99  H    0.005526
   100  H    0.014979
   101  H    0.015020
   102  H   -0.002731
   103  H   -0.020360
   104  H   -0.037376
   105  H   -0.006138
   106  H    0.006146
   107  H   -0.004139
   108  H   -0.014278
   109  H   -0.012386
   110  H   -0.027391
   111  H   -0.026456
   112  H   -0.036431
   113  H   -0.029907
   114  H   -0.036047
   115  H   -0.010084
   116  H   -0.013352
   117  H   -0.013172
   118  H   -0.035233
   119  H   -0.047248
   120  H   -0.017311
   121  H   -0.021379
   122  H   -0.045097
   123  H   -0.023574
   124  H   -0.030032
   125  H   -0.023468
   126  H   -0.021171
   127  H   -0.015657
   128  H   -0.033579
   129  H   -0.033388
   130  H   -0.025961
   131  H   -0.040640
   132  H   -0.039520
   133  H   -0.021969
   134  H   -0.024586
   135  H   -0.014018
   136  H   -0.018985
   137  H   -0.014374
   138  H   -0.032421
   139  H   -0.016152
   140  H   -0.010677
 Sum of Mulliken charges =  -0.00000

 Dipole moment (field-independent basis, Debye):
    X=              4.6684    Y=              1.7522    Z=              0.6390  Tot=              5.0271
 Quadrupole moment (field-independent basis, Debye-Ang):
   XX=           -379.6932   YY=           -425.8052   ZZ=           -410.0516
   XY=            -14.5596   XZ=              3.6334   YZ=            -11.6740

 Normal termination of Gaussian 16 at Thu May  5 12:11:41 2022.
