 Gaussian 16, Revision A.03,
 Gaussian 16:  ES64L-G16RevA.03 25-Dec-2016

 -----------------------------------
 #p cam-b3lyp/Def2SVP td=(nstates=5)
 -----------------------------------

 -------------------------------------------------------
 step_851_chromophore_12 TDDFT with cam-b3lyp functional
 -------------------------------------------------------
 Symbolic Z-matrix:
 Charge =  0 Multiplicity = 1

                         Standard orientation:
 ---------------------------------------------------------------------
 Center     Atomic      Atomic             Coordinates (Angstroms)
 Number     Number       Type             X           Y           Z
 ---------------------------------------------------------------------
      1         12           0       -4.432022    0.743513   -0.325672
      2          6           0       -3.692025   -2.611388    0.264870
      3          6           0       -1.116489    1.494261    0.001680
      4          6           0       -5.215288    4.031204   -0.560546
      5          6           0       -7.841073   -0.008010    0.230309
      6          7           0       -2.641438   -0.465090    0.007754
      7          6           0       -2.528218   -1.764446    0.092808
      8          6           0       -1.020883   -2.233382    0.199229
      9          6           0       -0.276643   -0.896755    0.350371
     10          6           0       -1.395737    0.106127    0.107746
     11          6           0        0.562384   -0.845512    1.660031
     12          6           0       -0.461270   -3.256569   -0.915453
     13          6           0        0.621462   -4.236264   -0.441451
     14          6           0        1.690745   -4.438772   -1.607951
     15          8           0        1.446504   -4.811841   -2.741399
     16          8           0        2.936603   -4.326939   -1.158053
     17          7           0       -3.390514    2.522587   -0.327401
     18          6           0       -2.046310    2.590894   -0.260254
     19          6           0       -1.602068    3.991594   -0.301940
     20          6           0       -2.756752    4.807585   -0.543713
     21          6           0       -3.864539    3.796387   -0.482118
     22          6           0       -0.146588    4.382420   -0.135631
     23          6           0       -2.990146    6.380323   -0.511561
     24          8           0       -4.130576    6.811195   -0.605732
     25          6           0       -1.829850    7.408862   -0.517156
     26          7           0       -6.257555    1.782371   -0.191661
     27          6           0       -6.292504    3.173598   -0.535284
     28          6           0       -7.729100    3.694211   -0.348898
     29          6           0       -8.607616    2.347392   -0.206515
     30          6           0       -7.510298    1.313316   -0.042241
     31          6           0       -7.967776    4.566251    0.855245
     32          6           0       -9.558703    2.064361   -1.407773
     33          6           0       -8.866430    1.649948   -2.707411
     34          7           0       -5.641825   -0.984962    0.146421
     35          6           0       -6.959948   -1.121964    0.261787
     36          6           0       -7.250813   -2.477955    0.419204
     37          6           0       -6.025645   -3.150046    0.431310
     38          6           0       -5.070325   -2.164997    0.271919
     39          6           0       -8.562479   -3.047641    0.404108
     40          6           0       -5.374970   -4.456068    0.427975
     41          8           0       -5.801590   -5.586266    0.450712
     42          6           0       -3.778900   -4.146519    0.467251
     43          6           0       -3.110923   -4.652202    1.715062
     44          8           0       -2.606628   -3.906343    2.521106
     45          8           0       -3.151475   -5.996785    1.789039
     46          6           0       -2.450198   -6.493100    2.987440
     47          6           0        3.957734   -4.805757   -2.024166
     48          6           0        5.234755   -4.868887   -1.205705
     49          6           0        6.237434   -3.970146   -1.117261
     50          6           0        6.342777   -2.699741   -2.011602
     51          6           0        7.453006   -4.318013   -0.179261
     52          6           0        8.802082   -3.634231   -0.411715
     53          6           0        8.934941   -2.225320    0.245845
     54          6           0        9.870822   -1.230742   -0.526942
     55          6           0       11.344236   -1.747704   -0.459145
     56          6           0        9.711202    0.220805   -0.046817
     57          6           0        8.621825    1.021056   -0.791983
     58          6           0        9.197438    2.277369   -1.611847
     59          6           0        8.446415    3.551462   -1.182196
     60          6           0        8.615563    4.685339   -2.279658
     61          6           0        9.059281    4.067583    0.203411
     62          6           0        8.056327    4.903955    1.061098
     63          6           0        8.065738    4.460867    2.573716
     64          6           0        6.729362    3.602019    2.753974
     65          6           0        5.610468    4.469419    3.394071
     66          6           0        7.137465    2.324665    3.532277
     67          1           0       -0.044301    1.644400    0.137384
     68          1           0       -5.640075    4.978900   -0.898145
     69          1           0       -8.907565   -0.241088    0.223641
     70          1           0       -0.872241   -2.691181    1.176767
     71          1           0        0.385961   -0.830933   -0.512948
     72          1           0        0.262360    0.080511    2.150471
     73          1           0        1.617235   -1.011389    1.441585
     74          1           0        0.309178   -1.602864    2.402808
     75          1           0       -0.120787   -2.688379   -1.780972
     76          1           0       -1.223693   -3.995405   -1.163674
     77          1           0        0.226267   -5.188246   -0.085869
     78          1           0        1.131104   -3.841317    0.437046
     79          1           0        0.137362    5.343057   -0.566063
     80          1           0        0.560949    3.614857   -0.449539
     81          1           0       -0.033982    4.413529    0.947853
     82          1           0       -2.148056    8.428431   -0.735378
     83          1           0       -1.022998    7.065932   -1.165105
     84          1           0       -1.282254    7.305104    0.418824
     85          1           0       -7.906836    4.238951   -1.275989
     86          1           0       -9.230490    2.370575    0.687684
     87          1           0       -8.840533    4.318093    1.459547
     88          1           0       -8.091609    5.554348    0.411781
     89          1           0       -7.126480    4.626262    1.544783
     90          1           0      -10.062432    2.958124   -1.775041
     91          1           0      -10.267233    1.324461   -1.035096
     92          1           0       -9.164201    2.292269   -3.537095
     93          1           0       -8.984618    0.590125   -2.933510
     94          1           0       -7.777177    1.620917   -2.714778
     95          1           0       -8.539640   -4.063961    0.011197
     96          1           0       -9.154660   -2.452306   -0.291148
     97          1           0       -8.904050   -3.064906    1.439421
     98          1           0       -3.398638   -4.642481   -0.426112
     99          1           0       -2.452991   -7.582679    2.974798
    100          1           0       -3.026587   -6.242159    3.877418
    101          1           0       -1.409167   -6.177048    3.049144
    102          1           0        4.106832   -4.266450   -2.959481
    103          1           0        3.705037   -5.831308   -2.292626
    104          1           0        5.288163   -5.751192   -0.568681
    105          1           0        5.366412   -2.466816   -2.435865
    106          1           0        7.061553   -2.897309   -2.807138
    107          1           0        6.701809   -1.788248   -1.534370
    108          1           0        7.625500   -5.393861   -0.144248
    109          1           0        7.081245   -3.997032    0.793619
    110          1           0        9.054870   -3.627249   -1.472362
    111          1           0        9.680793   -4.056052    0.075160
    112          1           0        9.352176   -2.398271    1.238915
    113          1           0        7.963669   -1.778249    0.458811
    114          1           0        9.500725   -1.191732   -1.551503
    115          1           0       11.985853   -1.049089    0.077143
    116          1           0       11.673474   -1.787500   -1.498064
    117          1           0       11.348581   -2.746209   -0.022490
    118          1           0       10.615677    0.821263    0.056111
    119          1           0        9.454595    0.196455    1.011647
    120          1           0        7.804061    1.421389   -0.193631
    121          1           0        8.163439    0.469593   -1.613413
    122          1           0        8.905027    2.099942   -2.647246
    123          1           0       10.266716    2.488258   -1.621331
    124          1           0        7.384360    3.309634   -1.143513
    125          1           0        7.612726    4.924155   -2.632566
    126          1           0        9.166482    4.425013   -3.184169
    127          1           0        9.094248    5.596577   -1.920862
    128          1           0        9.920038    4.725911    0.085075
    129          1           0        9.545038    3.235780    0.713827
    130          1           0        7.050617    4.889444    0.641205
    131          1           0        8.328484    5.959421    1.028693
    132          1           0        7.931140    5.321573    3.228855
    133          1           0        8.964592    3.930979    2.886991
    134          1           0        6.319647    3.163064    1.844639
    135          1           0        5.440923    4.085004    4.400344
    136          1           0        4.703299    4.400029    2.794526
    137          1           0        5.884243    5.524007    3.422153
    138          1           0        6.287476    1.693562    3.793066
    139          1           0        7.643075    2.609673    4.455115
    140          1           0        7.763422    1.625805    2.977610
 ---------------------------------------------------------------------

 SCF Done:  E(RCAM-B3LYP) =  -3007.16768662     A.U. after   19 cycles

 Excitation energies and oscillator strengths:

 Excited State   1:      Singlet-A      1.7149 eV  723.00 nm  f=0.3780  <S**2>=0.000
     245 -> 248       -0.18074
     246 -> 247        0.68505
     245 <- 248       -0.10675
 This state for optimization and/or second-order correction.
 Total Energy, E(TD-HF/TD-DFT) =  -3007.10466670
 Copying the excited state density for this state as the 1-particle RhoCI density.

 Excited State   2:      Singlet-A      2.2139 eV  560.04 nm  f=0.1256  <S**2>=0.000
     245 -> 247        0.64436
     246 -> 248        0.27973

 Excited State   3:      Singlet-A      3.3507 eV  370.02 nm  f=0.0159  <S**2>=0.000
     244 -> 247        0.65837
     246 -> 248       -0.21461

 Excited State   4:      Singlet-A      3.5221 eV  352.01 nm  f=0.2337  <S**2>=0.000
     242 -> 247        0.47155
     242 -> 249        0.18238
     242 -> 250       -0.12316
     242 -> 251        0.12511
     244 -> 247        0.10502
     245 -> 247       -0.16932
     246 -> 248        0.38100

 Excited State   5:      Singlet-A      3.5602 eV  348.25 nm  f=0.3882  <S**2>=0.000
     242 -> 247       -0.32821
     242 -> 249       -0.14673
     243 -> 247       -0.20807
     244 -> 247        0.18951
     245 -> 247       -0.20548
     246 -> 248        0.45263

 The electronic state is 1-A.
 Alpha  occ. eigenvalues --  -46.88693 -19.25586 -19.25532 -19.19737 -19.19610
 Alpha  occ. eigenvalues --  -19.19305 -19.19137 -14.42498 -14.41255 -14.40002
 Alpha  occ. eigenvalues --  -14.37984 -10.39437 -10.39177 -10.36323 -10.35237
 Alpha  occ. eigenvalues --  -10.31897 -10.31895 -10.31414 -10.30775 -10.30129
 Alpha  occ. eigenvalues --  -10.30007 -10.29885 -10.29790 -10.28569 -10.28466
 Alpha  occ. eigenvalues --  -10.28310 -10.28174 -10.28100 -10.28061 -10.28033
 Alpha  occ. eigenvalues --  -10.27782 -10.27647 -10.27562 -10.27450 -10.27427
 Alpha  occ. eigenvalues --  -10.27085 -10.27084 -10.26938 -10.26867 -10.26611
 Alpha  occ. eigenvalues --  -10.26587 -10.26462 -10.26329 -10.26235 -10.26211
 Alpha  occ. eigenvalues --  -10.26193 -10.26006 -10.25953 -10.25834 -10.25701
 Alpha  occ. eigenvalues --  -10.25556 -10.25388 -10.25230 -10.25193 -10.25173
 Alpha  occ. eigenvalues --  -10.25142 -10.25081 -10.25048 -10.25043 -10.24953
 Alpha  occ. eigenvalues --  -10.24863 -10.24762 -10.24722 -10.24454 -10.24433
 Alpha  occ. eigenvalues --  -10.24349  -3.17204  -1.92110  -1.91626  -1.91532
 Alpha  occ. eigenvalues --   -1.18637  -1.17378  -1.10414  -1.10278  -1.08574
 Alpha  occ. eigenvalues --   -1.08240  -1.05496  -1.04642  -1.03266  -1.01496
 Alpha  occ. eigenvalues --   -0.91318  -0.90325  -0.89468  -0.89152  -0.88474
 Alpha  occ. eigenvalues --   -0.88369  -0.87879  -0.87523  -0.87204  -0.86945
 Alpha  occ. eigenvalues --   -0.86330  -0.85332  -0.84300  -0.83412  -0.82905
 Alpha  occ. eigenvalues --   -0.82286  -0.81490  -0.81118  -0.80820  -0.79906
 Alpha  occ. eigenvalues --   -0.79641  -0.78023  -0.77382  -0.77003  -0.76449
 Alpha  occ. eigenvalues --   -0.75865  -0.75829  -0.74993  -0.74891  -0.73934
 Alpha  occ. eigenvalues --   -0.73370  -0.72472  -0.71244  -0.69988  -0.69169
 Alpha  occ. eigenvalues --   -0.68465  -0.68077  -0.66880  -0.66613  -0.65618
 Alpha  occ. eigenvalues --   -0.65499  -0.64575  -0.64340  -0.64191  -0.63976
 Alpha  occ. eigenvalues --   -0.63935  -0.63845  -0.63028  -0.62050  -0.60222
 Alpha  occ. eigenvalues --   -0.59786  -0.59527  -0.59016  -0.58309  -0.58065
 Alpha  occ. eigenvalues --   -0.57979  -0.57101  -0.56425  -0.55972  -0.55635
 Alpha  occ. eigenvalues --   -0.54958  -0.54740  -0.54465  -0.54308  -0.53951
 Alpha  occ. eigenvalues --   -0.53686  -0.53353  -0.53244  -0.53164  -0.52898
 Alpha  occ. eigenvalues --   -0.52628  -0.52511  -0.52221  -0.52003  -0.51427
 Alpha  occ. eigenvalues --   -0.51213  -0.50962  -0.50857  -0.50830  -0.50571
 Alpha  occ. eigenvalues --   -0.50413  -0.50256  -0.49942  -0.49585  -0.49507
 Alpha  occ. eigenvalues --   -0.49463  -0.49139  -0.48968  -0.48958  -0.48616
 Alpha  occ. eigenvalues --   -0.48438  -0.48148  -0.48097  -0.47983  -0.47861
 Alpha  occ. eigenvalues --   -0.47604  -0.47482  -0.47178  -0.46864  -0.46397
 Alpha  occ. eigenvalues --   -0.46303  -0.46160  -0.45966  -0.45921  -0.45881
 Alpha  occ. eigenvalues --   -0.45418  -0.45303  -0.45012  -0.44923  -0.44840
 Alpha  occ. eigenvalues --   -0.44700  -0.44510  -0.44400  -0.44196  -0.43929
 Alpha  occ. eigenvalues --   -0.43872  -0.43661  -0.43508  -0.43362  -0.42937
 Alpha  occ. eigenvalues --   -0.42706  -0.42561  -0.42474  -0.42245  -0.42103
 Alpha  occ. eigenvalues --   -0.41920  -0.41798  -0.41692  -0.41567  -0.40975
 Alpha  occ. eigenvalues --   -0.40943  -0.40900  -0.40642  -0.40443  -0.40349
 Alpha  occ. eigenvalues --   -0.39935  -0.39855  -0.39376  -0.39298  -0.38952
 Alpha  occ. eigenvalues --   -0.38793  -0.38311  -0.38109  -0.37543  -0.37369
 Alpha  occ. eigenvalues --   -0.37201  -0.37063  -0.36885  -0.36855  -0.36529
 Alpha  occ. eigenvalues --   -0.35701  -0.35373  -0.34632  -0.34602  -0.34425
 Alpha  occ. eigenvalues --   -0.33696  -0.33488  -0.32778  -0.31279  -0.30878
 Alpha  occ. eigenvalues --   -0.30623  -0.30432  -0.30142  -0.29378  -0.23483
 Alpha  occ. eigenvalues --   -0.20883
 Alpha virt. eigenvalues --   -0.08343  -0.01386   0.00762   0.02590   0.02626
 Alpha virt. eigenvalues --    0.04284   0.05451   0.05787   0.06095   0.07209
 Alpha virt. eigenvalues --    0.07640   0.08342   0.08537   0.08609   0.08993

 Mulliken charges:
               1
     1  Mg   0.830464
     2  C   -0.018291
     3  C   -0.071155
     4  C   -0.062609
     5  C   -0.081160
     6  N   -0.255414
     7  C   -0.008064
     8  C   -0.041772
     9  C   -0.044335
    10  C   -0.013457
    11  C    0.071975
    12  C    0.058705
    13  C    0.035636
    14  C    0.130994
    15  O   -0.240050
    16  O   -0.272933
    17  N   -0.356454
    18  C    0.173304
    19  C   -0.166303
    20  C   -0.040294
    21  C    0.131735
    22  C    0.112153
    23  C    0.036450
    24  O   -0.201312
    25  C    0.044813
    26  N   -0.319296
    27  C    0.017331
    28  C   -0.051029
    29  C   -0.016607
    30  C    0.045172
    31  C    0.082318
    32  C    0.038575
    33  C   -0.017171
    34  N   -0.263893
    35  C    0.085893
    36  C   -0.182866
    37  C    0.028901
    38  C    0.054059
    39  C    0.124242
    40  C    0.031029
    41  O   -0.140355
    42  C   -0.076760
    43  C    0.208478
    44  O   -0.218955
    45  O   -0.297563
    46  C    0.183503
    47  C    0.280787
    48  C   -0.145174
    49  C   -0.137681
    50  C    0.072690
    51  C    0.078748
    52  C    0.017578
    53  C   -0.016543
    54  C   -0.117195
    55  C    0.058621
    56  C    0.075482
    57  C    0.006846
    58  C    0.014183
    59  C   -0.141673
    60  C    0.040657
    61  C    0.045377
    62  C    0.029610
    63  C    0.043325
    64  C   -0.165135
    65  C    0.060874
    66  C    0.018305
    67  H   -0.034103
    68  H    0.003742
    69  H   -0.039005
    70  H    0.026097
    71  H    0.003602
    72  H    0.015687
    73  H    0.026948
    74  H    0.023711
    75  H    0.027181
    76  H    0.018818
    77  H    0.041576
    78  H    0.012776
    79  H    0.012670
    80  H    0.025510
    81  H    0.028493
    82  H    0.046974
    83  H    0.027613
    84  H    0.024407
    85  H    0.009693
    86  H    0.008731
    87  H    0.015115
    88  H    0.015518
    89  H    0.024657
    90  H    0.010134
    91  H    0.012762
    92  H    0.017723
    93  H    0.006961
    94  H    0.012633
    95  H    0.027723
    96  H    0.019207
    97  H    0.034202
    98  H    0.054978
    99  H    0.031155
   100  H    0.039258
   101  H    0.037400
   102  H    0.024724
   103  H    0.011815
   104  H   -0.004626
   105  H    0.018616
   106  H    0.029115
   107  H    0.016585
   108  H    0.015492
   109  H    0.016606
   110  H    0.000292
   111  H    0.002517
   112  H   -0.006923
   113  H   -0.004689
   114  H   -0.007411
   115  H    0.014291
   116  H    0.011107
   117  H    0.008577
   118  H   -0.006195
   119  H   -0.019564
   120  H    0.007130
   121  H    0.004631
   122  H   -0.014167
   123  H    0.003602
   124  H   -0.000179
   125  H    0.000399
   126  H    0.003854
   127  H    0.007864
   128  H   -0.004198
   129  H   -0.009393
   130  H    0.000169
   131  H   -0.010998
   132  H   -0.009444
   133  H    0.006663
   134  H    0.002571
   135  H    0.010517
   136  H    0.004938
   137  H    0.008993
   138  H   -0.006677
   139  H    0.006240
   140  H    0.009296
 Sum of Mulliken charges =  -0.00000

 Dipole moment (field-independent basis, Debye):
    X=              5.0044    Y=              1.8268    Z=              0.7443  Tot=              5.3792
 Quadrupole moment (field-independent basis, Debye-Ang):
   XX=           -379.2530   YY=           -422.3753   ZZ=           -410.1120
   XY=            -13.5665   XZ=              4.0135   YZ=            -13.1643

 Normal termination of Gaussian 16 at Thu May  5 10:45:42 2022.
