 Gaussian 16, Revision A.03,
 Gaussian 16:  ES64L-G16RevA.03 25-Dec-2016

 ---------------------------------
 #p PBE1PBE/Def2SVP td=(nstates=5)
 ---------------------------------

 -----------------------------------------------------
 step_851_chromophore_12 TDDFT with PBE1PBE functional
 -----------------------------------------------------
 Symbolic Z-matrix:
 Charge =  0 Multiplicity = 1

                         Standard orientation:
 ---------------------------------------------------------------------
 Center     Atomic      Atomic             Coordinates (Angstroms)
 Number     Number       Type             X           Y           Z
 ---------------------------------------------------------------------
      1         12           0       -4.432022    0.743513   -0.325672
      2          6           0       -3.692025   -2.611388    0.264870
      3          6           0       -1.116489    1.494261    0.001680
      4          6           0       -5.215288    4.031204   -0.560546
      5          6           0       -7.841073   -0.008010    0.230309
      6          7           0       -2.641438   -0.465090    0.007754
      7          6           0       -2.528218   -1.764446    0.092808
      8          6           0       -1.020883   -2.233382    0.199229
      9          6           0       -0.276643   -0.896755    0.350371
     10          6           0       -1.395737    0.106127    0.107746
     11          6           0        0.562384   -0.845512    1.660031
     12          6           0       -0.461270   -3.256569   -0.915453
     13          6           0        0.621462   -4.236264   -0.441451
     14          6           0        1.690745   -4.438772   -1.607951
     15          8           0        1.446504   -4.811841   -2.741399
     16          8           0        2.936603   -4.326939   -1.158053
     17          7           0       -3.390514    2.522587   -0.327401
     18          6           0       -2.046310    2.590894   -0.260254
     19          6           0       -1.602068    3.991594   -0.301940
     20          6           0       -2.756752    4.807585   -0.543713
     21          6           0       -3.864539    3.796387   -0.482118
     22          6           0       -0.146588    4.382420   -0.135631
     23          6           0       -2.990146    6.380323   -0.511561
     24          8           0       -4.130576    6.811195   -0.605732
     25          6           0       -1.829850    7.408862   -0.517156
     26          7           0       -6.257555    1.782371   -0.191661
     27          6           0       -6.292504    3.173598   -0.535284
     28          6           0       -7.729100    3.694211   -0.348898
     29          6           0       -8.607616    2.347392   -0.206515
     30          6           0       -7.510298    1.313316   -0.042241
     31          6           0       -7.967776    4.566251    0.855245
     32          6           0       -9.558703    2.064361   -1.407773
     33          6           0       -8.866430    1.649948   -2.707411
     34          7           0       -5.641825   -0.984962    0.146421
     35          6           0       -6.959948   -1.121964    0.261787
     36          6           0       -7.250813   -2.477955    0.419204
     37          6           0       -6.025645   -3.150046    0.431310
     38          6           0       -5.070325   -2.164997    0.271919
     39          6           0       -8.562479   -3.047641    0.404108
     40          6           0       -5.374970   -4.456068    0.427975
     41          8           0       -5.801590   -5.586266    0.450712
     42          6           0       -3.778900   -4.146519    0.467251
     43          6           0       -3.110923   -4.652202    1.715062
     44          8           0       -2.606628   -3.906343    2.521106
     45          8           0       -3.151475   -5.996785    1.789039
     46          6           0       -2.450198   -6.493100    2.987440
     47          6           0        3.957734   -4.805757   -2.024166
     48          6           0        5.234755   -4.868887   -1.205705
     49          6           0        6.237434   -3.970146   -1.117261
     50          6           0        6.342777   -2.699741   -2.011602
     51          6           0        7.453006   -4.318013   -0.179261
     52          6           0        8.802082   -3.634231   -0.411715
     53          6           0        8.934941   -2.225320    0.245845
     54          6           0        9.870822   -1.230742   -0.526942
     55          6           0       11.344236   -1.747704   -0.459145
     56          6           0        9.711202    0.220805   -0.046817
     57          6           0        8.621825    1.021056   -0.791983
     58          6           0        9.197438    2.277369   -1.611847
     59          6           0        8.446415    3.551462   -1.182196
     60          6           0        8.615563    4.685339   -2.279658
     61          6           0        9.059281    4.067583    0.203411
     62          6           0        8.056327    4.903955    1.061098
     63          6           0        8.065738    4.460867    2.573716
     64          6           0        6.729362    3.602019    2.753974
     65          6           0        5.610468    4.469419    3.394071
     66          6           0        7.137465    2.324665    3.532277
     67          1           0       -0.044301    1.644400    0.137384
     68          1           0       -5.640075    4.978900   -0.898145
     69          1           0       -8.907565   -0.241088    0.223641
     70          1           0       -0.872241   -2.691181    1.176767
     71          1           0        0.385961   -0.830933   -0.512948
     72          1           0        0.262360    0.080511    2.150471
     73          1           0        1.617235   -1.011389    1.441585
     74          1           0        0.309178   -1.602864    2.402808
     75          1           0       -0.120787   -2.688379   -1.780972
     76          1           0       -1.223693   -3.995405   -1.163674
     77          1           0        0.226267   -5.188246   -0.085869
     78          1           0        1.131104   -3.841317    0.437046
     79          1           0        0.137362    5.343057   -0.566063
     80          1           0        0.560949    3.614857   -0.449539
     81          1           0       -0.033982    4.413529    0.947853
     82          1           0       -2.148056    8.428431   -0.735378
     83          1           0       -1.022998    7.065932   -1.165105
     84          1           0       -1.282254    7.305104    0.418824
     85          1           0       -7.906836    4.238951   -1.275989
     86          1           0       -9.230490    2.370575    0.687684
     87          1           0       -8.840533    4.318093    1.459547
     88          1           0       -8.091609    5.554348    0.411781
     89          1           0       -7.126480    4.626262    1.544783
     90          1           0      -10.062432    2.958124   -1.775041
     91          1           0      -10.267233    1.324461   -1.035096
     92          1           0       -9.164201    2.292269   -3.537095
     93          1           0       -8.984618    0.590125   -2.933510
     94          1           0       -7.777177    1.620917   -2.714778
     95          1           0       -8.539640   -4.063961    0.011197
     96          1           0       -9.154660   -2.452306   -0.291148
     97          1           0       -8.904050   -3.064906    1.439421
     98          1           0       -3.398638   -4.642481   -0.426112
     99          1           0       -2.452991   -7.582679    2.974798
    100          1           0       -3.026587   -6.242159    3.877418
    101          1           0       -1.409167   -6.177048    3.049144
    102          1           0        4.106832   -4.266450   -2.959481
    103          1           0        3.705037   -5.831308   -2.292626
    104          1           0        5.288163   -5.751192   -0.568681
    105          1           0        5.366412   -2.466816   -2.435865
    106          1           0        7.061553   -2.897309   -2.807138
    107          1           0        6.701809   -1.788248   -1.534370
    108          1           0        7.625500   -5.393861   -0.144248
    109          1           0        7.081245   -3.997032    0.793619
    110          1           0        9.054870   -3.627249   -1.472362
    111          1           0        9.680793   -4.056052    0.075160
    112          1           0        9.352176   -2.398271    1.238915
    113          1           0        7.963669   -1.778249    0.458811
    114          1           0        9.500725   -1.191732   -1.551503
    115          1           0       11.985853   -1.049089    0.077143
    116          1           0       11.673474   -1.787500   -1.498064
    117          1           0       11.348581   -2.746209   -0.022490
    118          1           0       10.615677    0.821263    0.056111
    119          1           0        9.454595    0.196455    1.011647
    120          1           0        7.804061    1.421389   -0.193631
    121          1           0        8.163439    0.469593   -1.613413
    122          1           0        8.905027    2.099942   -2.647246
    123          1           0       10.266716    2.488258   -1.621331
    124          1           0        7.384360    3.309634   -1.143513
    125          1           0        7.612726    4.924155   -2.632566
    126          1           0        9.166482    4.425013   -3.184169
    127          1           0        9.094248    5.596577   -1.920862
    128          1           0        9.920038    4.725911    0.085075
    129          1           0        9.545038    3.235780    0.713827
    130          1           0        7.050617    4.889444    0.641205
    131          1           0        8.328484    5.959421    1.028693
    132          1           0        7.931140    5.321573    3.228855
    133          1           0        8.964592    3.930979    2.886991
    134          1           0        6.319647    3.163064    1.844639
    135          1           0        5.440923    4.085004    4.400344
    136          1           0        4.703299    4.400029    2.794526
    137          1           0        5.884243    5.524007    3.422153
    138          1           0        6.287476    1.693562    3.793066
    139          1           0        7.643075    2.609673    4.455115
    140          1           0        7.763422    1.625805    2.977610
 ---------------------------------------------------------------------

 SCF Done:  E(RPBE1PBE) =  -3005.35608209     A.U. after   15 cycles

 Excitation energies and oscillator strengths:

 Excited State   1:      Singlet-A      1.8693 eV  663.26 nm  f=0.3651  <S**2>=0.000
     245 -> 248       -0.17339
     246 -> 247        0.69162
     246 <- 247       -0.10578
 This state for optimization and/or second-order correction.
 Total Energy, E(TD-HF/TD-DFT) =  -3005.28738600
 Copying the excited state density for this state as the 1-particle RhoCI density.

 Excited State   2:      Singlet-A      2.2366 eV  554.34 nm  f=0.1172  <S**2>=0.000
     245 -> 247        0.65340
     246 -> 248        0.25466

 Excited State   3:      Singlet-A      3.0224 eV  410.21 nm  f=0.0005  <S**2>=0.000
     243 -> 247        0.49689
     243 -> 249        0.10881
     244 -> 247        0.46966

 Excited State   4:      Singlet-A      3.0832 eV  402.13 nm  f=0.0006  <S**2>=0.000
     243 -> 247       -0.46251
     244 -> 247        0.50192
     246 -> 248       -0.14319

 Excited State   5:      Singlet-A      3.2972 eV  376.02 nm  f=0.1196  <S**2>=0.000
     239 -> 247       -0.14309
     240 -> 247        0.12105
     242 -> 247        0.44943
     245 -> 247        0.12861
     246 -> 248       -0.43795
     246 -> 249        0.14621

 The electronic state is 1-A.
 Alpha  occ. eigenvalues --  -46.92095 -19.26208 -19.26138 -19.19921 -19.19889
 Alpha  occ. eigenvalues --  -19.19576 -19.19292 -14.41950 -14.40825 -14.39651
 Alpha  occ. eigenvalues --  -14.37593 -10.36504 -10.36072 -10.33560 -10.32323
 Alpha  occ. eigenvalues --  -10.29287 -10.29082 -10.29062 -10.28554 -10.27940
 Alpha  occ. eigenvalues --  -10.27698 -10.27649 -10.27626 -10.26335 -10.26182
 Alpha  occ. eigenvalues --  -10.25917 -10.25911 -10.25756 -10.25661 -10.25623
 Alpha  occ. eigenvalues --  -10.25493 -10.25466 -10.25362 -10.25121 -10.25020
 Alpha  occ. eigenvalues --  -10.24948 -10.24793 -10.24549 -10.24197 -10.24170
 Alpha  occ. eigenvalues --  -10.24069 -10.24012 -10.23997 -10.23952 -10.23852
 Alpha  occ. eigenvalues --  -10.23709 -10.23687 -10.23588 -10.23402 -10.23278
 Alpha  occ. eigenvalues --  -10.23146 -10.22976 -10.22845 -10.22811 -10.22794
 Alpha  occ. eigenvalues --  -10.22694 -10.22619 -10.22554 -10.22460 -10.22436
 Alpha  occ. eigenvalues --  -10.22252 -10.22231 -10.22180 -10.21999 -10.21869
 Alpha  occ. eigenvalues --  -10.21825  -3.14187  -1.87034  -1.86528  -1.86437
 Alpha  occ. eigenvalues --   -1.13504  -1.12072  -1.05113  -1.05078  -1.03318
 Alpha  occ. eigenvalues --   -1.03122  -1.00160  -0.99289  -0.98000  -0.96104
 Alpha  occ. eigenvalues --   -0.85601  -0.84431  -0.83657  -0.83287  -0.82791
 Alpha  occ. eigenvalues --   -0.82501  -0.82183  -0.81801  -0.81372  -0.81182
 Alpha  occ. eigenvalues --   -0.80628  -0.79606  -0.78507  -0.77674  -0.77202
 Alpha  occ. eigenvalues --   -0.76463  -0.75664  -0.75353  -0.75065  -0.74202
 Alpha  occ. eigenvalues --   -0.73806  -0.72358  -0.71614  -0.71314  -0.70618
 Alpha  occ. eigenvalues --   -0.70163  -0.69949  -0.69242  -0.69132  -0.68091
 Alpha  occ. eigenvalues --   -0.67684  -0.66923  -0.65645  -0.64327  -0.63525
 Alpha  occ. eigenvalues --   -0.62756  -0.62513  -0.61244  -0.60949  -0.60022
 Alpha  occ. eigenvalues --   -0.59796  -0.59081  -0.58818  -0.58713  -0.58518
 Alpha  occ. eigenvalues --   -0.58062  -0.58010  -0.57229  -0.56612  -0.54596
 Alpha  occ. eigenvalues --   -0.54368  -0.54024  -0.53590  -0.52837  -0.52506
 Alpha  occ. eigenvalues --   -0.52359  -0.51647  -0.50867  -0.50370  -0.50214
 Alpha  occ. eigenvalues --   -0.49542  -0.49323  -0.49008  -0.48821  -0.48509
 Alpha  occ. eigenvalues --   -0.48163  -0.47876  -0.47758  -0.47627  -0.47418
 Alpha  occ. eigenvalues --   -0.47111  -0.47075  -0.46719  -0.46538  -0.45996
 Alpha  occ. eigenvalues --   -0.45701  -0.45517  -0.45454  -0.45339  -0.45123
 Alpha  occ. eigenvalues --   -0.44974  -0.44855  -0.44454  -0.44098  -0.44087
 Alpha  occ. eigenvalues --   -0.44062  -0.43763  -0.43547  -0.43511  -0.43214
 Alpha  occ. eigenvalues --   -0.43100  -0.42777  -0.42735  -0.42549  -0.42534
 Alpha  occ. eigenvalues --   -0.42295  -0.42187  -0.41813  -0.41514  -0.41111
 Alpha  occ. eigenvalues --   -0.40936  -0.40840  -0.40754  -0.40580  -0.40430
 Alpha  occ. eigenvalues --   -0.40140  -0.39990  -0.39680  -0.39647  -0.39594
 Alpha  occ. eigenvalues --   -0.39418  -0.39246  -0.39193  -0.38931  -0.38633
 Alpha  occ. eigenvalues --   -0.38615  -0.38430  -0.38225  -0.38144  -0.37805
 Alpha  occ. eigenvalues --   -0.37489  -0.37404  -0.37216  -0.36989  -0.36938
 Alpha  occ. eigenvalues --   -0.36734  -0.36640  -0.36431  -0.36383  -0.35793
 Alpha  occ. eigenvalues --   -0.35718  -0.35671  -0.35480  -0.35378  -0.35272
 Alpha  occ. eigenvalues --   -0.34730  -0.34621  -0.34280  -0.34165  -0.33744
 Alpha  occ. eigenvalues --   -0.33695  -0.33069  -0.32969  -0.32494  -0.32300
 Alpha  occ. eigenvalues --   -0.32143  -0.32043  -0.31929  -0.31821  -0.31421
 Alpha  occ. eigenvalues --   -0.30792  -0.30269  -0.29612  -0.29329  -0.29260
 Alpha  occ. eigenvalues --   -0.28854  -0.28429  -0.28414  -0.26658  -0.26083
 Alpha  occ. eigenvalues --   -0.25907  -0.25772  -0.25339  -0.24957  -0.20462
 Alpha  occ. eigenvalues --   -0.18482
 Alpha virt. eigenvalues --   -0.10791  -0.04953  -0.03441  -0.01783  -0.00241
 Alpha virt. eigenvalues --   -0.00182   0.01081   0.01268   0.01860   0.03274
 Alpha virt. eigenvalues --    0.04393   0.04448   0.04792   0.05245   0.05349

 Mulliken charges:
               1
     1  Mg   0.976775
     2  C   -0.015728
     3  C   -0.061650
     4  C   -0.065196
     5  C   -0.060330
     6  N   -0.366074
     7  C    0.063609
     8  C   -0.104560
     9  C   -0.117943
    10  C    0.023024
    11  C    0.012296
    12  C    0.000116
    13  C   -0.035864
    14  C    0.196223
    15  O   -0.271483
    16  O   -0.305138
    17  N   -0.474688
    18  C    0.200591
    19  C   -0.205008
    20  C   -0.059985
    21  C    0.148406
    22  C    0.049504
    23  C    0.081503
    24  O   -0.235281
    25  C   -0.027714
    26  N   -0.419948
    27  C    0.056592
    28  C   -0.130708
    29  C   -0.092707
    30  C    0.083304
    31  C    0.028115
    32  C   -0.023152
    33  C   -0.086996
    34  N   -0.398014
    35  C    0.112511
    36  C   -0.214960
    37  C   -0.012689
    38  C    0.099203
    39  C    0.068064
    40  C    0.127856
    41  O   -0.186807
    42  C   -0.178091
    43  C    0.294646
    44  O   -0.252728
    45  O   -0.330879
    46  C    0.126181
    47  C    0.235118
    48  C   -0.157756
    49  C   -0.174084
    50  C    0.003964
    51  C    0.017974
    52  C   -0.047948
    53  C   -0.073012
    54  C   -0.202749
    55  C   -0.002911
    56  C    0.023709
    57  C   -0.059531
    58  C   -0.038136
    59  C   -0.232217
    60  C   -0.014504
    61  C   -0.003174
    62  C   -0.033331
    63  C   -0.014287
    64  C   -0.253576
    65  C    0.001341
    66  C   -0.048213
    67  H   -0.002416
    68  H    0.035026
    69  H   -0.007369
    70  H    0.067424
    71  H    0.042477
    72  H    0.043337
    73  H    0.053640
    74  H    0.049718
    75  H    0.058139
    76  H    0.055211
    77  H    0.071976
    78  H    0.046266
    79  H    0.041202
    80  H    0.052444
    81  H    0.058131
    82  H    0.073181
    83  H    0.054816
    84  H    0.051933
    85  H    0.046079
    86  H    0.045076
    87  H    0.042360
    88  H    0.042746
    89  H    0.052681
    90  H    0.043473
    91  H    0.044234
    92  H    0.044775
    93  H    0.035313
    94  H    0.042738
    95  H    0.055851
    96  H    0.045098
    97  H    0.062774
    98  H    0.091712
    99  H    0.053136
   100  H    0.061642
   101  H    0.058768
   102  H    0.050130
   103  H    0.040308
   104  H    0.024985
   105  H    0.046509
   106  H    0.056762
   107  H    0.047999
   108  H    0.046668
   109  H    0.050670
   110  H    0.033066
   111  H    0.035315
   112  H    0.027419
   113  H    0.027219
   114  H    0.031153
   115  H    0.041395
   116  H    0.039024
   117  H    0.036362
   118  H    0.023828
   119  H    0.015591
   120  H    0.041120
   121  H    0.037434
   122  H    0.020483
   123  H    0.034653
   124  H    0.035563
   125  H    0.028010
   126  H    0.030147
   127  H    0.034577
   128  H    0.027841
   129  H    0.024507
   130  H    0.031880
   131  H    0.021769
   132  H    0.023735
   133  H    0.037063
   134  H    0.040203
   135  H    0.037948
   136  H    0.032142
   137  H    0.035335
   138  H    0.021996
   139  H    0.034481
   140  H    0.040241
 Sum of Mulliken charges =  -0.00000

 Dipole moment (field-independent basis, Debye):
    X=              5.0352    Y=              2.0076    Z=              0.7176  Tot=              5.4680
 Quadrupole moment (field-independent basis, Debye-Ang):
   XX=           -373.5825   YY=           -419.4617   ZZ=           -407.7347
   XY=            -14.8094   XZ=              4.5005   YZ=            -13.2026

 Normal termination of Gaussian 16 at Thu May  5 11:16:12 2022.
