 Gaussian 16, Revision A.03,
 Gaussian 16:  ES64L-G16RevA.03 25-Dec-2016

 --------------------------------
 #p wB97XD/Def2SVP td=(nstates=5)
 --------------------------------

 ----------------------------------------------------
 step_851_chromophore_12 TDDFT with wB97XD functional
 ----------------------------------------------------
 Symbolic Z-matrix:
 Charge =  0 Multiplicity = 1

                         Standard orientation:
 ---------------------------------------------------------------------
 Center     Atomic      Atomic             Coordinates (Angstroms)
 Number     Number       Type             X           Y           Z
 ---------------------------------------------------------------------
      1         12           0       -4.432022    0.743513   -0.325672
      2          6           0       -3.692025   -2.611388    0.264870
      3          6           0       -1.116489    1.494261    0.001680
      4          6           0       -5.215288    4.031204   -0.560546
      5          6           0       -7.841073   -0.008010    0.230309
      6          7           0       -2.641438   -0.465090    0.007754
      7          6           0       -2.528218   -1.764446    0.092808
      8          6           0       -1.020883   -2.233382    0.199229
      9          6           0       -0.276643   -0.896755    0.350371
     10          6           0       -1.395737    0.106127    0.107746
     11          6           0        0.562384   -0.845512    1.660031
     12          6           0       -0.461270   -3.256569   -0.915453
     13          6           0        0.621462   -4.236264   -0.441451
     14          6           0        1.690745   -4.438772   -1.607951
     15          8           0        1.446504   -4.811841   -2.741399
     16          8           0        2.936603   -4.326939   -1.158053
     17          7           0       -3.390514    2.522587   -0.327401
     18          6           0       -2.046310    2.590894   -0.260254
     19          6           0       -1.602068    3.991594   -0.301940
     20          6           0       -2.756752    4.807585   -0.543713
     21          6           0       -3.864539    3.796387   -0.482118
     22          6           0       -0.146588    4.382420   -0.135631
     23          6           0       -2.990146    6.380323   -0.511561
     24          8           0       -4.130576    6.811195   -0.605732
     25          6           0       -1.829850    7.408862   -0.517156
     26          7           0       -6.257555    1.782371   -0.191661
     27          6           0       -6.292504    3.173598   -0.535284
     28          6           0       -7.729100    3.694211   -0.348898
     29          6           0       -8.607616    2.347392   -0.206515
     30          6           0       -7.510298    1.313316   -0.042241
     31          6           0       -7.967776    4.566251    0.855245
     32          6           0       -9.558703    2.064361   -1.407773
     33          6           0       -8.866430    1.649948   -2.707411
     34          7           0       -5.641825   -0.984962    0.146421
     35          6           0       -6.959948   -1.121964    0.261787
     36          6           0       -7.250813   -2.477955    0.419204
     37          6           0       -6.025645   -3.150046    0.431310
     38          6           0       -5.070325   -2.164997    0.271919
     39          6           0       -8.562479   -3.047641    0.404108
     40          6           0       -5.374970   -4.456068    0.427975
     41          8           0       -5.801590   -5.586266    0.450712
     42          6           0       -3.778900   -4.146519    0.467251
     43          6           0       -3.110923   -4.652202    1.715062
     44          8           0       -2.606628   -3.906343    2.521106
     45          8           0       -3.151475   -5.996785    1.789039
     46          6           0       -2.450198   -6.493100    2.987440
     47          6           0        3.957734   -4.805757   -2.024166
     48          6           0        5.234755   -4.868887   -1.205705
     49          6           0        6.237434   -3.970146   -1.117261
     50          6           0        6.342777   -2.699741   -2.011602
     51          6           0        7.453006   -4.318013   -0.179261
     52          6           0        8.802082   -3.634231   -0.411715
     53          6           0        8.934941   -2.225320    0.245845
     54          6           0        9.870822   -1.230742   -0.526942
     55          6           0       11.344236   -1.747704   -0.459145
     56          6           0        9.711202    0.220805   -0.046817
     57          6           0        8.621825    1.021056   -0.791983
     58          6           0        9.197438    2.277369   -1.611847
     59          6           0        8.446415    3.551462   -1.182196
     60          6           0        8.615563    4.685339   -2.279658
     61          6           0        9.059281    4.067583    0.203411
     62          6           0        8.056327    4.903955    1.061098
     63          6           0        8.065738    4.460867    2.573716
     64          6           0        6.729362    3.602019    2.753974
     65          6           0        5.610468    4.469419    3.394071
     66          6           0        7.137465    2.324665    3.532277
     67          1           0       -0.044301    1.644400    0.137384
     68          1           0       -5.640075    4.978900   -0.898145
     69          1           0       -8.907565   -0.241088    0.223641
     70          1           0       -0.872241   -2.691181    1.176767
     71          1           0        0.385961   -0.830933   -0.512948
     72          1           0        0.262360    0.080511    2.150471
     73          1           0        1.617235   -1.011389    1.441585
     74          1           0        0.309178   -1.602864    2.402808
     75          1           0       -0.120787   -2.688379   -1.780972
     76          1           0       -1.223693   -3.995405   -1.163674
     77          1           0        0.226267   -5.188246   -0.085869
     78          1           0        1.131104   -3.841317    0.437046
     79          1           0        0.137362    5.343057   -0.566063
     80          1           0        0.560949    3.614857   -0.449539
     81          1           0       -0.033982    4.413529    0.947853
     82          1           0       -2.148056    8.428431   -0.735378
     83          1           0       -1.022998    7.065932   -1.165105
     84          1           0       -1.282254    7.305104    0.418824
     85          1           0       -7.906836    4.238951   -1.275989
     86          1           0       -9.230490    2.370575    0.687684
     87          1           0       -8.840533    4.318093    1.459547
     88          1           0       -8.091609    5.554348    0.411781
     89          1           0       -7.126480    4.626262    1.544783
     90          1           0      -10.062432    2.958124   -1.775041
     91          1           0      -10.267233    1.324461   -1.035096
     92          1           0       -9.164201    2.292269   -3.537095
     93          1           0       -8.984618    0.590125   -2.933510
     94          1           0       -7.777177    1.620917   -2.714778
     95          1           0       -8.539640   -4.063961    0.011197
     96          1           0       -9.154660   -2.452306   -0.291148
     97          1           0       -8.904050   -3.064906    1.439421
     98          1           0       -3.398638   -4.642481   -0.426112
     99          1           0       -2.452991   -7.582679    2.974798
    100          1           0       -3.026587   -6.242159    3.877418
    101          1           0       -1.409167   -6.177048    3.049144
    102          1           0        4.106832   -4.266450   -2.959481
    103          1           0        3.705037   -5.831308   -2.292626
    104          1           0        5.288163   -5.751192   -0.568681
    105          1           0        5.366412   -2.466816   -2.435865
    106          1           0        7.061553   -2.897309   -2.807138
    107          1           0        6.701809   -1.788248   -1.534370
    108          1           0        7.625500   -5.393861   -0.144248
    109          1           0        7.081245   -3.997032    0.793619
    110          1           0        9.054870   -3.627249   -1.472362
    111          1           0        9.680793   -4.056052    0.075160
    112          1           0        9.352176   -2.398271    1.238915
    113          1           0        7.963669   -1.778249    0.458811
    114          1           0        9.500725   -1.191732   -1.551503
    115          1           0       11.985853   -1.049089    0.077143
    116          1           0       11.673474   -1.787500   -1.498064
    117          1           0       11.348581   -2.746209   -0.022490
    118          1           0       10.615677    0.821263    0.056111
    119          1           0        9.454595    0.196455    1.011647
    120          1           0        7.804061    1.421389   -0.193631
    121          1           0        8.163439    0.469593   -1.613413
    122          1           0        8.905027    2.099942   -2.647246
    123          1           0       10.266716    2.488258   -1.621331
    124          1           0        7.384360    3.309634   -1.143513
    125          1           0        7.612726    4.924155   -2.632566
    126          1           0        9.166482    4.425013   -3.184169
    127          1           0        9.094248    5.596577   -1.920862
    128          1           0        9.920038    4.725911    0.085075
    129          1           0        9.545038    3.235780    0.713827
    130          1           0        7.050617    4.889444    0.641205
    131          1           0        8.328484    5.959421    1.028693
    132          1           0        7.931140    5.321573    3.228855
    133          1           0        8.964592    3.930979    2.886991
    134          1           0        6.319647    3.163064    1.844639
    135          1           0        5.440923    4.085004    4.400344
    136          1           0        4.703299    4.400029    2.794526
    137          1           0        5.884243    5.524007    3.422153
    138          1           0        6.287476    1.693562    3.793066
    139          1           0        7.643075    2.609673    4.455115
    140          1           0        7.763422    1.625805    2.977610
 ---------------------------------------------------------------------

 SCF Done:  E(RwB97XD) =  -3007.86804508     A.U. after   19 cycles

 Excitation energies and oscillator strengths:

 Excited State   1:      Singlet-A      1.6574 eV  748.06 nm  f=0.3765  <S**2>=0.000
     245 -> 248       -0.18640
     246 -> 247        0.68296
     245 <- 248       -0.11648
 This state for optimization and/or second-order correction.
 Total Energy, E(TD-HF/TD-DFT) =  -3007.80713620
 Copying the excited state density for this state as the 1-particle RhoCI density.

 Excited State   2:      Singlet-A      2.1583 eV  574.46 nm  f=0.1233  <S**2>=0.000
     245 -> 247        0.64291
     246 -> 248        0.28205

 Excited State   3:      Singlet-A      3.3622 eV  368.76 nm  f=0.0203  <S**2>=0.000
     244 -> 247        0.64892
     246 -> 248       -0.22862

 Excited State   4:      Singlet-A      3.5499 eV  349.26 nm  f=0.2415  <S**2>=0.000
     242 -> 247        0.44749
     242 -> 249        0.18548
     242 -> 250       -0.17151
     243 -> 247        0.13830
     244 -> 247        0.11706
     245 -> 247       -0.16974
     246 -> 248        0.37320

 Excited State   5:      Singlet-A      3.5934 eV  345.04 nm  f=0.4288  <S**2>=0.000
     242 -> 247       -0.27577
     242 -> 249       -0.15973
     242 -> 250        0.11533
     243 -> 247       -0.26734
     244 -> 247        0.19930
     245 -> 247       -0.21212
     246 -> 248        0.45389

 The electronic state is 1-A.
 Alpha  occ. eigenvalues --  -46.95037 -19.30814 -19.30781 -19.24670 -19.24581
 Alpha  occ. eigenvalues --  -19.24299 -19.24215 -14.47077 -14.45863 -14.44581
 Alpha  occ. eigenvalues --  -14.42574 -10.43272 -10.42997 -10.40299 -10.39290
 Alpha  occ. eigenvalues --  -10.35806 -10.35645 -10.35466 -10.34790 -10.34144
 Alpha  occ. eigenvalues --  -10.34016 -10.33889 -10.33809 -10.32685 -10.32525
 Alpha  occ. eigenvalues --  -10.32339 -10.32281 -10.32250 -10.32097 -10.31945
 Alpha  occ. eigenvalues --  -10.31879 -10.31745 -10.31592 -10.31524 -10.31416
 Alpha  occ. eigenvalues --  -10.31140 -10.30985 -10.30965 -10.30716 -10.30587
 Alpha  occ. eigenvalues --  -10.30549 -10.30480 -10.30332 -10.30237 -10.30153
 Alpha  occ. eigenvalues --  -10.30054 -10.29995 -10.29959 -10.29789 -10.29662
 Alpha  occ. eigenvalues --  -10.29500 -10.29351 -10.29174 -10.29169 -10.29125
 Alpha  occ. eigenvalues --  -10.29056 -10.28981 -10.28965 -10.28893 -10.28889
 Alpha  occ. eigenvalues --  -10.28665 -10.28585 -10.28559 -10.28432 -10.28284
 Alpha  occ. eigenvalues --  -10.28245  -3.20989  -1.94584  -1.94078  -1.93986
 Alpha  occ. eigenvalues --   -1.20862  -1.19556  -1.12690  -1.12472  -1.10766
 Alpha  occ. eigenvalues --   -1.10456  -1.07557  -1.06675  -1.05281  -1.03488
 Alpha  occ. eigenvalues --   -0.93307  -0.92120  -0.91303  -0.90952  -0.90376
 Alpha  occ. eigenvalues --   -0.90166  -0.89743  -0.89474  -0.89015  -0.88816
 Alpha  occ. eigenvalues --   -0.88241  -0.87233  -0.86161  -0.85336  -0.84796
 Alpha  occ. eigenvalues --   -0.84122  -0.83379  -0.83036  -0.82715  -0.81847
 Alpha  occ. eigenvalues --   -0.81480  -0.79978  -0.79271  -0.78930  -0.78308
 Alpha  occ. eigenvalues --   -0.77781  -0.77640  -0.76818  -0.76808  -0.75759
 Alpha  occ. eigenvalues --   -0.75298  -0.74466  -0.73201  -0.71928  -0.71097
 Alpha  occ. eigenvalues --   -0.70367  -0.70079  -0.68804  -0.68547  -0.67533
 Alpha  occ. eigenvalues --   -0.67412  -0.66549  -0.66311  -0.66160  -0.65963
 Alpha  occ. eigenvalues --   -0.65742  -0.65673  -0.64856  -0.64054  -0.62135
 Alpha  occ. eigenvalues --   -0.61778  -0.61505  -0.61006  -0.60288  -0.60020
 Alpha  occ. eigenvalues --   -0.59879  -0.59073  -0.58346  -0.57867  -0.57605
 Alpha  occ. eigenvalues --   -0.56934  -0.56731  -0.56413  -0.56224  -0.55905
 Alpha  occ. eigenvalues --   -0.55587  -0.55280  -0.55168  -0.55066  -0.54803
 Alpha  occ. eigenvalues --   -0.54494  -0.54430  -0.54128  -0.53955  -0.53348
 Alpha  occ. eigenvalues --   -0.53098  -0.52889  -0.52836  -0.52694  -0.52483
 Alpha  occ. eigenvalues --   -0.52315  -0.52167  -0.51865  -0.51463  -0.51417
 Alpha  occ. eigenvalues --   -0.51385  -0.51048  -0.50892  -0.50866  -0.50529
 Alpha  occ. eigenvalues --   -0.50344  -0.50034  -0.50013  -0.49850  -0.49780
 Alpha  occ. eigenvalues --   -0.49535  -0.49398  -0.49129  -0.48778  -0.48302
 Alpha  occ. eigenvalues --   -0.48170  -0.48064  -0.47885  -0.47850  -0.47702
 Alpha  occ. eigenvalues --   -0.47305  -0.47192  -0.46959  -0.46841  -0.46731
 Alpha  occ. eigenvalues --   -0.46649  -0.46459  -0.46305  -0.46123  -0.45781
 Alpha  occ. eigenvalues --   -0.45755  -0.45563  -0.45398  -0.45268  -0.44886
 Alpha  occ. eigenvalues --   -0.44605  -0.44501  -0.44438  -0.44125  -0.44017
 Alpha  occ. eigenvalues --   -0.43873  -0.43762  -0.43530  -0.43482  -0.42831
 Alpha  occ. eigenvalues --   -0.42814  -0.42771  -0.42561  -0.42357  -0.42261
 Alpha  occ. eigenvalues --   -0.41776  -0.41690  -0.41278  -0.41178  -0.40787
 Alpha  occ. eigenvalues --   -0.40698  -0.40134  -0.39958  -0.39529  -0.39338
 Alpha  occ. eigenvalues --   -0.39168  -0.39026  -0.38875  -0.38818  -0.38389
 Alpha  occ. eigenvalues --   -0.37717  -0.37213  -0.36527  -0.36490  -0.36368
 Alpha  occ. eigenvalues --   -0.35686  -0.35323  -0.35063  -0.33296  -0.33005
 Alpha  occ. eigenvalues --   -0.32674  -0.32464  -0.32302  -0.31586  -0.25400
 Alpha  occ. eigenvalues --   -0.22696
 Alpha virt. eigenvalues --   -0.06692   0.00554   0.02840   0.04704   0.05719
 Alpha virt. eigenvalues --    0.06550   0.07763   0.08055   0.08516   0.09911
 Alpha virt. eigenvalues --    0.10825   0.11098   0.11656   0.11981   0.12079

 Mulliken charges:
               1
     1  Mg   0.966630
     2  C   -0.022509
     3  C   -0.077249
     4  C   -0.075306
     5  C   -0.081893
     6  N   -0.330235
     7  C    0.031562
     8  C   -0.074895
     9  C   -0.095178
    10  C    0.008915
    11  C    0.023413
    12  C    0.014457
    13  C   -0.020495
    14  C    0.187070
    15  O   -0.269791
    16  O   -0.303750
    17  N   -0.439857
    18  C    0.188931
    19  C   -0.190628
    20  C   -0.065889
    21  C    0.145597
    22  C    0.064186
    23  C    0.078463
    24  O   -0.231431
    25  C   -0.015670
    26  N   -0.390241
    27  C    0.039675
    28  C   -0.104149
    29  C   -0.064097
    30  C    0.069980
    31  C    0.035263
    32  C   -0.010275
    33  C   -0.070135
    34  N   -0.355181
    35  C    0.103427
    36  C   -0.200539
    37  C   -0.013911
    38  C    0.086357
    39  C    0.076044
    40  C    0.110193
    41  O   -0.176633
    42  C   -0.144885
    43  C    0.275777
    44  O   -0.247666
    45  O   -0.330207
    46  C    0.141706
    47  C    0.248645
    48  C   -0.164633
    49  C   -0.166169
    50  C    0.024472
    51  C    0.034872
    52  C   -0.029482
    53  C   -0.055695
    54  C   -0.169698
    55  C    0.009898
    56  C    0.037203
    57  C   -0.038124
    58  C   -0.024844
    59  C   -0.198123
    60  C   -0.005538
    61  C    0.008984
    62  C   -0.015223
    63  C    0.000814
    64  C   -0.225243
    65  C    0.011648
    66  C   -0.031633
    67  H   -0.009515
    68  H    0.029763
    69  H   -0.014644
    70  H    0.046991
    71  H    0.031275
    72  H    0.036863
    73  H    0.049140
    74  H    0.045111
    75  H    0.051505
    76  H    0.043546
    77  H    0.067542
    78  H    0.038856
    79  H    0.034830
    80  H    0.047103
    81  H    0.051906
    82  H    0.072654
    83  H    0.047583
    84  H    0.046475
    85  H    0.035679
    86  H    0.035513
    87  H    0.036510
    88  H    0.037521
    89  H    0.046740
    90  H    0.035972
    91  H    0.036998
    92  H    0.040755
    93  H    0.029076
    94  H    0.031397
    95  H    0.052821
    96  H    0.039522
    97  H    0.058951
    98  H    0.084606
    99  H    0.050173
   100  H    0.057499
   101  H    0.054717
   102  H    0.045248
   103  H    0.035701
   104  H    0.022301
   105  H    0.041303
   106  H    0.050490
   107  H    0.036328
   108  H    0.040764
   109  H    0.041608
   110  H    0.023234
   111  H    0.026440
   112  H    0.017783
   113  H    0.015479
   114  H    0.014335
   115  H    0.036274
   116  H    0.033723
   117  H    0.028456
   118  H    0.014939
   119  H    0.004659
   120  H    0.029458
   121  H    0.026830
   122  H    0.011420
   123  H    0.026040
   124  H    0.022966
   125  H    0.022490
   126  H    0.024777
   127  H    0.028462
   128  H    0.019919
   129  H    0.010092
   130  H    0.020830
   131  H    0.014958
   132  H    0.014912
   133  H    0.029393
   134  H    0.026319
   135  H    0.032333
   136  H    0.027276
   137  H    0.028869
   138  H    0.016219
   139  H    0.026876
   140  H    0.031978
 Sum of Mulliken charges =  -0.00000

 Dipole moment (field-independent basis, Debye):
    X=              5.0461    Y=              1.8186    Z=              0.7612  Tot=              5.4175
 Quadrupole moment (field-independent basis, Debye-Ang):
   XX=           -373.8398   YY=           -418.1397   ZZ=           -407.3427
   XY=            -13.3679   XZ=              4.3608   YZ=            -13.5735

 Normal termination of Gaussian 16 at Thu May  5 11:53:55 2022.
