 Gaussian 16, Revision A.03,
 Gaussian 16:  ES64L-G16RevA.03 25-Dec-2016

 --------------------
 #p ZINDO=(nstates=5)
 --------------------

 -----------------------------
 step_851_chromophore_12 ZINDO
 -----------------------------
 Symbolic Z-matrix:
 Charge =  0 Multiplicity = 1

                         Standard orientation:
 ---------------------------------------------------------------------
 Center     Atomic      Atomic             Coordinates (Angstroms)
 Number     Number       Type             X           Y           Z
 ---------------------------------------------------------------------
      1         12           0       -4.432022    0.743513   -0.325672
      2          6           0       -3.692025   -2.611388    0.264870
      3          6           0       -1.116489    1.494261    0.001680
      4          6           0       -5.215288    4.031204   -0.560546
      5          6           0       -7.841073   -0.008010    0.230309
      6          7           0       -2.641438   -0.465090    0.007754
      7          6           0       -2.528218   -1.764446    0.092808
      8          6           0       -1.020883   -2.233382    0.199229
      9          6           0       -0.276643   -0.896755    0.350371
     10          6           0       -1.395737    0.106127    0.107746
     11          6           0        0.562384   -0.845512    1.660031
     12          6           0       -0.461270   -3.256569   -0.915453
     13          6           0        0.621462   -4.236264   -0.441451
     14          6           0        1.690745   -4.438772   -1.607951
     15          8           0        1.446504   -4.811841   -2.741399
     16          8           0        2.936603   -4.326939   -1.158053
     17          7           0       -3.390514    2.522587   -0.327401
     18          6           0       -2.046310    2.590894   -0.260254
     19          6           0       -1.602068    3.991594   -0.301940
     20          6           0       -2.756752    4.807585   -0.543713
     21          6           0       -3.864539    3.796387   -0.482118
     22          6           0       -0.146588    4.382420   -0.135631
     23          6           0       -2.990146    6.380323   -0.511561
     24          8           0       -4.130576    6.811195   -0.605732
     25          6           0       -1.829850    7.408862   -0.517156
     26          7           0       -6.257555    1.782371   -0.191661
     27          6           0       -6.292504    3.173598   -0.535284
     28          6           0       -7.729100    3.694211   -0.348898
     29          6           0       -8.607616    2.347392   -0.206515
     30          6           0       -7.510298    1.313316   -0.042241
     31          6           0       -7.967776    4.566251    0.855245
     32          6           0       -9.558703    2.064361   -1.407773
     33          6           0       -8.866430    1.649948   -2.707411
     34          7           0       -5.641825   -0.984962    0.146421
     35          6           0       -6.959948   -1.121964    0.261787
     36          6           0       -7.250813   -2.477955    0.419204
     37          6           0       -6.025645   -3.150046    0.431310
     38          6           0       -5.070325   -2.164997    0.271919
     39          6           0       -8.562479   -3.047641    0.404108
     40          6           0       -5.374970   -4.456068    0.427975
     41          8           0       -5.801590   -5.586266    0.450712
     42          6           0       -3.778900   -4.146519    0.467251
     43          6           0       -3.110923   -4.652202    1.715062
     44          8           0       -2.606628   -3.906343    2.521106
     45          8           0       -3.151475   -5.996785    1.789039
     46          6           0       -2.450198   -6.493100    2.987440
     47          6           0        3.957734   -4.805757   -2.024166
     48          6           0        5.234755   -4.868887   -1.205705
     49          6           0        6.237434   -3.970146   -1.117261
     50          6           0        6.342777   -2.699741   -2.011602
     51          6           0        7.453006   -4.318013   -0.179261
     52          6           0        8.802082   -3.634231   -0.411715
     53          6           0        8.934941   -2.225320    0.245845
     54          6           0        9.870822   -1.230742   -0.526942
     55          6           0       11.344236   -1.747704   -0.459145
     56          6           0        9.711202    0.220805   -0.046817
     57          6           0        8.621825    1.021056   -0.791983
     58          6           0        9.197438    2.277369   -1.611847
     59          6           0        8.446415    3.551462   -1.182196
     60          6           0        8.615563    4.685339   -2.279658
     61          6           0        9.059281    4.067583    0.203411
     62          6           0        8.056327    4.903955    1.061098
     63          6           0        8.065738    4.460867    2.573716
     64          6           0        6.729362    3.602019    2.753974
     65          6           0        5.610468    4.469419    3.394071
     66          6           0        7.137465    2.324665    3.532277
     67          1           0       -0.044301    1.644400    0.137384
     68          1           0       -5.640075    4.978900   -0.898145
     69          1           0       -8.907565   -0.241088    0.223641
     70          1           0       -0.872241   -2.691181    1.176767
     71          1           0        0.385961   -0.830933   -0.512948
     72          1           0        0.262360    0.080511    2.150471
     73          1           0        1.617235   -1.011389    1.441585
     74          1           0        0.309178   -1.602864    2.402808
     75          1           0       -0.120787   -2.688379   -1.780972
     76          1           0       -1.223693   -3.995405   -1.163674
     77          1           0        0.226267   -5.188246   -0.085869
     78          1           0        1.131104   -3.841317    0.437046
     79          1           0        0.137362    5.343057   -0.566063
     80          1           0        0.560949    3.614857   -0.449539
     81          1           0       -0.033982    4.413529    0.947853
     82          1           0       -2.148056    8.428431   -0.735378
     83          1           0       -1.022998    7.065932   -1.165105
     84          1           0       -1.282254    7.305104    0.418824
     85          1           0       -7.906836    4.238951   -1.275989
     86          1           0       -9.230490    2.370575    0.687684
     87          1           0       -8.840533    4.318093    1.459547
     88          1           0       -8.091609    5.554348    0.411781
     89          1           0       -7.126480    4.626262    1.544783
     90          1           0      -10.062432    2.958124   -1.775041
     91          1           0      -10.267233    1.324461   -1.035096
     92          1           0       -9.164201    2.292269   -3.537095
     93          1           0       -8.984618    0.590125   -2.933510
     94          1           0       -7.777177    1.620917   -2.714778
     95          1           0       -8.539640   -4.063961    0.011197
     96          1           0       -9.154660   -2.452306   -0.291148
     97          1           0       -8.904050   -3.064906    1.439421
     98          1           0       -3.398638   -4.642481   -0.426112
     99          1           0       -2.452991   -7.582679    2.974798
    100          1           0       -3.026587   -6.242159    3.877418
    101          1           0       -1.409167   -6.177048    3.049144
    102          1           0        4.106832   -4.266450   -2.959481
    103          1           0        3.705037   -5.831308   -2.292626
    104          1           0        5.288163   -5.751192   -0.568681
    105          1           0        5.366412   -2.466816   -2.435865
    106          1           0        7.061553   -2.897309   -2.807138
    107          1           0        6.701809   -1.788248   -1.534370
    108          1           0        7.625500   -5.393861   -0.144248
    109          1           0        7.081245   -3.997032    0.793619
    110          1           0        9.054870   -3.627249   -1.472362
    111          1           0        9.680793   -4.056052    0.075160
    112          1           0        9.352176   -2.398271    1.238915
    113          1           0        7.963669   -1.778249    0.458811
    114          1           0        9.500725   -1.191732   -1.551503
    115          1           0       11.985853   -1.049089    0.077143
    116          1           0       11.673474   -1.787500   -1.498064
    117          1           0       11.348581   -2.746209   -0.022490
    118          1           0       10.615677    0.821263    0.056111
    119          1           0        9.454595    0.196455    1.011647
    120          1           0        7.804061    1.421389   -0.193631
    121          1           0        8.163439    0.469593   -1.613413
    122          1           0        8.905027    2.099942   -2.647246
    123          1           0       10.266716    2.488258   -1.621331
    124          1           0        7.384360    3.309634   -1.143513
    125          1           0        7.612726    4.924155   -2.632566
    126          1           0        9.166482    4.425013   -3.184169
    127          1           0        9.094248    5.596577   -1.920862
    128          1           0        9.920038    4.725911    0.085075
    129          1           0        9.545038    3.235780    0.713827
    130          1           0        7.050617    4.889444    0.641205
    131          1           0        8.328484    5.959421    1.028693
    132          1           0        7.931140    5.321573    3.228855
    133          1           0        8.964592    3.930979    2.886991
    134          1           0        6.319647    3.163064    1.844639
    135          1           0        5.440923    4.085004    4.400344
    136          1           0        4.703299    4.400029    2.794526
    137          1           0        5.884243    5.524007    3.422153
    138          1           0        6.287476    1.693562    3.793066
    139          1           0        7.643075    2.609673    4.455115
    140          1           0        7.763422    1.625805    2.977610
 ---------------------------------------------------------------------

 SCF Done:  E(RZINDO/S) =  -474.226710031     A.U. after   20 cycles

 Excitation energies and oscillator strengths:

 Excited State   1:      Singlet-A      1.2559 eV  987.24 nm  f=0.5954  <S**2>=0.000
     175 ->178        -0.19355
     176 ->177         0.66218
 This state for optimization and/or second-order correction.
 Total Energy, E(CIS/TDA) =  -474.180557584
 Copying the excited state density for this state as the 1-particle RhoCI density.

 Excited State   2:      Singlet-A      1.8867 eV  657.16 nm  f=0.0679  <S**2>=0.000
     175 ->177         0.56425
     176 ->178         0.40133

 Excited State   3:      Singlet-A      2.9873 eV  415.04 nm  f=0.8157  <S**2>=0.000
     173 ->177         0.12255
     175 ->177        -0.32311
     176 ->178         0.48592
     176 ->179         0.24991
     176 ->180         0.12002

 Excited State   4:      Singlet-A      3.0631 eV  404.77 nm  f=0.0313  <S**2>=0.000
     168 ->177        -0.11507
     168 ->180        -0.13695
     169 ->177         0.25141
     169 ->179        -0.28185
     169 ->180         0.17786
     169 ->183        -0.12448
     169 ->186        -0.15042
     173 ->177        -0.24472
     176 ->179         0.27296

 Excited State   5:      Singlet-A      3.0735 eV  403.40 nm  f=0.1781  <S**2>=0.000
     168 ->179        -0.24174
     168 ->180        -0.11686
     168 ->186        -0.15912
     169 ->177        -0.23175
     169 ->179         0.15955
     169 ->180        -0.19593
     169 ->183         0.11308
     175 ->177         0.13062
     176 ->178        -0.18860
     176 ->179         0.34193

 The electronic state is 1-A.
 Alpha  occ. eigenvalues --   -1.87520  -1.80280  -1.79937  -1.76753  -1.74074
 Alpha  occ. eigenvalues --   -1.71126  -1.63893  -1.59775  -1.58317  -1.57043
 Alpha  occ. eigenvalues --   -1.53777  -1.51121  -1.50225  -1.47492  -1.45514
 Alpha  occ. eigenvalues --   -1.45030  -1.42757  -1.41102  -1.38171  -1.37038
 Alpha  occ. eigenvalues --   -1.36440  -1.35421  -1.31858  -1.30545  -1.28545
 Alpha  occ. eigenvalues --   -1.26721  -1.24965  -1.21700  -1.19364  -1.17605
 Alpha  occ. eigenvalues --   -1.17262  -1.16674  -1.15816  -1.13645  -1.13545
 Alpha  occ. eigenvalues --   -1.12455  -1.10211  -1.10067  -1.05144  -1.04177
 Alpha  occ. eigenvalues --   -1.02617  -1.00808  -0.98437  -0.97366  -0.96981
 Alpha  occ. eigenvalues --   -0.96364  -0.93487  -0.92621  -0.92229  -0.92014
 Alpha  occ. eigenvalues --   -0.91123  -0.90391  -0.89606  -0.87622  -0.87389
 Alpha  occ. eigenvalues --   -0.85278  -0.84259  -0.83359  -0.81323  -0.80037
 Alpha  occ. eigenvalues --   -0.79685  -0.78370  -0.77227  -0.77054  -0.76319
 Alpha  occ. eigenvalues --   -0.75677  -0.75110  -0.74610  -0.73843  -0.73644
 Alpha  occ. eigenvalues --   -0.73216  -0.72854  -0.71967  -0.71312  -0.71061
 Alpha  occ. eigenvalues --   -0.69769  -0.69557  -0.69422  -0.68610  -0.67991
 Alpha  occ. eigenvalues --   -0.67585  -0.66926  -0.66006  -0.65832  -0.65628
 Alpha  occ. eigenvalues --   -0.65395  -0.64688  -0.64579  -0.64325  -0.63935
 Alpha  occ. eigenvalues --   -0.63519  -0.62490  -0.62371  -0.62026  -0.61702
 Alpha  occ. eigenvalues --   -0.61322  -0.60818  -0.60531  -0.60356  -0.59722
 Alpha  occ. eigenvalues --   -0.59454  -0.59329  -0.58931  -0.58760  -0.58167
 Alpha  occ. eigenvalues --   -0.58018  -0.57815  -0.57551  -0.56986  -0.56827
 Alpha  occ. eigenvalues --   -0.56213  -0.55872  -0.55381  -0.54984  -0.54729
 Alpha  occ. eigenvalues --   -0.54288  -0.53831  -0.53407  -0.52980  -0.52855
 Alpha  occ. eigenvalues --   -0.52577  -0.52050  -0.51551  -0.51375  -0.51325
 Alpha  occ. eigenvalues --   -0.50923  -0.50698  -0.50638  -0.50561  -0.50484
 Alpha  occ. eigenvalues --   -0.50383  -0.49900  -0.49559  -0.49303  -0.49253
 Alpha  occ. eigenvalues --   -0.48999  -0.48911  -0.48262  -0.48125  -0.47749
 Alpha  occ. eigenvalues --   -0.47544  -0.47173  -0.47039  -0.46841  -0.46656
 Alpha  occ. eigenvalues --   -0.46489  -0.46397  -0.46190  -0.45618  -0.45389
 Alpha  occ. eigenvalues --   -0.45234  -0.45064  -0.44757  -0.44273  -0.43754
 Alpha  occ. eigenvalues --   -0.43204  -0.43103  -0.42606  -0.42381  -0.42246
 Alpha  occ. eigenvalues --   -0.42087  -0.41871  -0.41258  -0.39109  -0.39020
 Alpha  occ. eigenvalues --   -0.38408  -0.36553  -0.35494  -0.35203  -0.34520
 Alpha  occ. eigenvalues --   -0.33119  -0.32961  -0.32448  -0.32160  -0.26116
 Alpha  occ. eigenvalues --   -0.21683
 Alpha virt. eigenvalues --   -0.08362  -0.01773  -0.00177   0.01375   0.01891
 Alpha virt. eigenvalues --    0.02152   0.02615   0.03542   0.04443   0.04773
 Alpha virt. eigenvalues --    0.06187   0.06761   0.06872   0.07804   0.07966

 Mulliken charges:
               1
     1  Mg   0.426139
     2  C   -0.066438
     3  C   -0.085476
     4  C   -0.040026
     5  C   -0.087350
     6  N   -0.247026
     7  C    0.142822
     8  C   -0.011940
     9  C    0.003490
    10  C    0.103029
    11  C   -0.051448
    12  C   -0.025644
    13  C    0.005211
    14  C    0.460789
    15  O   -0.522208
    16  O   -0.248331
    17  N   -0.295190
    18  C    0.091942
    19  C    0.004005
    20  C   -0.072606
    21  C    0.132715
    22  C   -0.044470
    23  C    0.325331
    24  O   -0.512990
    25  C   -0.029112
    26  N   -0.286251
    27  C    0.091589
    28  C    0.006082
    29  C   -0.003170
    30  C    0.157406
    31  C   -0.045809
    32  C   -0.025877
    33  C   -0.060403
    34  N   -0.319001
    35  C    0.115613
    36  C    0.050033
    37  C   -0.061084
    38  C    0.120853
    39  C   -0.037816
    40  C    0.331253
    41  O   -0.507259
    42  C    0.044134
    43  C    0.493248
    44  O   -0.524971
    45  O   -0.245743
    46  C    0.076649
    47  C    0.112383
    48  C   -0.085959
    49  C   -0.010172
    50  C   -0.043897
    51  C   -0.018743
    52  C   -0.039436
    53  C   -0.035630
    54  C   -0.011056
    55  C   -0.059576
    56  C   -0.031794
    57  C   -0.042890
    58  C   -0.044705
    59  C   -0.014011
    60  C   -0.067046
    61  C   -0.037600
    62  C   -0.036390
    63  C   -0.038577
    64  C   -0.017840
    65  C   -0.055233
    66  C   -0.059497
    67  H    0.030921
    68  H    0.040907
    69  H    0.021897
    70  H    0.040045
    71  H    0.024618
    72  H    0.026453
    73  H    0.025923
    74  H    0.024757
    75  H    0.039356
    76  H    0.027311
    77  H    0.049092
    78  H    0.026951
    79  H    0.026994
    80  H    0.026782
    81  H    0.029284
    82  H    0.049876
    83  H    0.030648
    84  H    0.034500
    85  H    0.031639
    86  H    0.030093
    87  H    0.020537
    88  H    0.017217
    89  H    0.026391
    90  H    0.021546
    91  H    0.022942
    92  H    0.020326
    93  H    0.015597
    94  H    0.021472
    95  H    0.029458
    96  H    0.027154
    97  H    0.041482
    98  H    0.057655
    99  H    0.025976
   100  H    0.045941
   101  H    0.045624
   102  H    0.051635
   103  H    0.039515
   104  H    0.026924
   105  H    0.022215
   106  H    0.029336
   107  H    0.028442
   108  H    0.024388
   109  H    0.025766
   110  H    0.019894
   111  H    0.021056
   112  H    0.012755
   113  H    0.013823
   114  H    0.020481
   115  H    0.024999
   116  H    0.016430
   117  H    0.026344
   118  H    0.022422
   119  H    0.007090
   120  H    0.026589
   121  H    0.017869
   122  H    0.006532
   123  H    0.029893
   124  H    0.029477
   125  H    0.010835
   126  H    0.018782
   127  H    0.019683
   128  H    0.017031
   129  H    0.020451
   130  H    0.023569
   131  H    0.010434
   132  H    0.018863
   133  H    0.030050
   134  H    0.021772
   135  H    0.022585
   136  H    0.016167
   137  H    0.022330
   138  H    0.006382
   139  H    0.016100
   140  H    0.016700
 Sum of Mulliken charges =  -0.00000

 Dipole moment (field-independent basis, Debye):
    X=              5.7551    Y=              1.5481    Z=              0.6808  Tot=              5.9984
 N-N= 4.425912406254D+03 E-N= 0.000000000000D+00  KE=-9.526149304567D+03
 Leave Link  601 at Thu May  5 12:11:48 2022, MaxMem=  6710886400 cpu:               1.7 elap:               0.1
 (Enter /sw/apps/gaussian-16.0/g16/l9999.exe)
 1\1\GINC-BP1-COMPUTE132\SP\RZINDO CIS\STO-3G\C55H74Mg1N4O6\OF15641\05-
 May-2022\0\\#p ZINDO=(nstates=5)\\step_851_chromophore_12 ZINDO\\0,1\M
 g,0,47.153,15.278,27.354\C,0,45.404,14.903,30.346\C,0,49.198,17.55,28.
 877\C,0,48.616,15.879,24.358\C,0,44.494,13.635,25.703\N,0,47.298,16.03
 9,29.398\C,0,46.615,15.692,30.457\C,0,47.14,16.398,31.772\C,0,48.172,1
 7.392,31.215\C,0,48.235,16.98,29.751\C,0,47.836,18.859,31.611\C,0,47.6
 16,15.465,32.999\C,0,47.398,16.044,34.404\C,0,48.629,15.638,35.334\O,0

 Normal termination of Gaussian 16 at Thu May  5 12:11:48 2022.
