 Gaussian 16, Revision A.03,
 Gaussian 16:  ES64L-G16RevA.03 25-Dec-2016

 ------------------------------
 #p blyp/Def2SVP td=(nstates=5)
 ------------------------------

 --------------------------------------------------
 step_851_chromophore_18 TDDFT with blyp functional
 --------------------------------------------------
 Symbolic Z-matrix:
 Charge =  0 Multiplicity = 1

                         Standard orientation:
 ---------------------------------------------------------------------
 Center     Atomic      Atomic             Coordinates (Angstroms)
 Number     Number       Type             X           Y           Z
 ---------------------------------------------------------------------
      1         12           0        5.227409    1.140009    0.229721
      2          6           0        4.629862   -2.280778    0.314585
      3          6           0        1.717898    1.593333   -0.088935
      4          6           0        5.700115    4.459108   -0.291536
      5          6           0        8.624791    0.594128    0.111852
      6          7           0        3.426480   -0.153550    0.102414
      7          6           0        3.450823   -1.536029    0.339849
      8          6           0        2.045993   -2.092770    0.454363
      9          6           0        1.161852   -0.877685    0.095190
     10          6           0        2.150249    0.282573    0.041323
     11          6           0        0.191855   -0.953302   -1.065808
     12          6           0        1.761851   -2.819232    1.826756
     13          6           0        0.759895   -4.008129    1.828682
     14          6           0        0.071510   -4.450323    0.472853
     15          8           0        0.619236   -5.171100   -0.311562
     16          8           0       -1.163305   -3.875143    0.465706
     17          7           0        3.953276    2.779696   -0.246071
     18          6           0        2.555226    2.776709   -0.290713
     19          6           0        2.037870    4.140914   -0.289883
     20          6           0        3.203419    4.950701   -0.402004
     21          6           0        4.381350    4.040283   -0.295706
     22          6           0        0.576342    4.445713   -0.273015
     23          6           0        3.252384    6.552218   -0.405717
     24          8           0        4.279209    7.156047   -0.389187
     25          6           0        1.929606    7.340662   -0.383754
     26          7           0        6.965986    2.426825    0.173082
     27          6           0        6.887777    3.737400   -0.203130
     28          6           0        8.308472    4.335049   -0.467864
     29          6           0        9.231579    3.170128    0.007921
     30          6           0        8.255022    1.977945    0.191159
     31          6           0        8.675359    4.737218   -1.922799
     32          6           0        9.956138    3.192334    1.358909
     33          6           0        9.254641    3.820044    2.578430
     34          7           0        6.421698   -0.484046    0.126557
     35          6           0        7.796399   -0.559608    0.004304
     36          6           0        8.072983   -2.012017   -0.021330
     37          6           0        6.911902   -2.755499    0.129902
     38          6           0        5.917605   -1.732953    0.208077
     39          6           0        9.473837   -2.581144   -0.240640
     40          6           0        6.366732   -4.011420    0.186815
     41          8           0        6.892736   -5.106650    0.092891
     42          6           0        4.815927   -3.804478    0.458294
     43          6           0        4.163431   -4.571998   -0.579075
     44          8           0        3.979847   -4.239428   -1.712962
     45          8           0        3.937816   -5.807615   -0.052701
     46          6           0        3.550377   -6.820732   -1.056824
     47          6           0       -1.908449   -4.243358   -0.747139
     48          6           0       -2.917349   -3.063187   -0.976292
     49          6           0       -4.193522   -3.155115   -1.480395
     50          6           0       -4.737650   -4.440005   -2.115475
     51          6           0       -5.103496   -1.884538   -1.526949
     52          6           0       -6.117706   -1.901062   -0.379408
     53          6           0       -6.138707   -0.700095    0.537734
     54          6           0       -7.489710   -0.660806    1.244553
     55          6           0       -7.341478   -0.507286    2.769803
     56          6           0       -8.463672    0.444358    0.760239
     57          6           0       -9.788335   -0.017850    0.156369
     58          6           0      -10.879993   -0.463027    1.173174
     59          6           0      -12.175341    0.427951    1.080462
     60          6           0      -12.899799    0.418807    2.425473
     61          6           0      -13.216713    0.054053    0.020080
     62          6           0      -13.572159    1.354667   -0.867930
     63          6           0      -15.137881    1.461811   -1.103085
     64          6           0      -15.498874    2.788627   -0.491907
     65          6           0      -17.025527    2.853607   -0.031559
     66          6           0      -15.264389    3.976956   -1.526271
     67          1           0        0.644413    1.790513   -0.044289
     68          1           0        5.851941    5.503104   -0.572380
     69          1           0        9.676987    0.375490   -0.081320
     70          1           0        1.935308   -2.814506   -0.354528
     71          1           0        0.439461   -0.720575    0.895664
     72          1           0        0.469243   -0.286749   -1.883517
     73          1           0       -0.842307   -0.678544   -0.860175
     74          1           0        0.156805   -1.924327   -1.559773
     75          1           0        1.148714   -2.163783    2.444154
     76          1           0        2.661723   -3.115401    2.366338
     77          1           0        0.065041   -3.963193    2.666527
     78          1           0        1.532855   -4.769251    1.932115
     79          1           0       -0.010731    3.619930   -0.675050
     80          1           0        0.387971    5.202140   -1.035410
     81          1           0        0.271960    4.819273    0.705107
     82          1           0        2.180488    8.400688   -0.325858
     83          1           0        1.254211    7.023714    0.411258
     84          1           0        1.469424    7.055093   -1.328792
     85          1           0        8.328224    5.216559    0.171958
     86          1           0        9.803117    2.882235   -0.874974
     87          1           0        8.832873    5.801642   -2.098837
     88          1           0        7.882169    4.470059   -2.621391
     89          1           0        9.669115    4.389026   -2.205328
     90          1           0       10.925709    3.681054    1.263042
     91          1           0       10.166888    2.165164    1.655753
     92          1           0        9.349684    3.192612    3.463907
     93          1           0        8.198883    4.066710    2.465310
     94          1           0        9.784116    4.749422    2.787693
     95          1           0        9.383474   -3.667631   -0.229490
     96          1           0       10.119476   -2.277137    0.583617
     97          1           0        9.992177   -2.370331   -1.177329
     98          1           0        4.619406   -4.123379    1.481948
     99          1           0        4.460670   -6.940372   -1.645461
    100          1           0        2.757915   -6.547813   -1.753630
    101          1           0        3.287269   -7.812232   -0.688374
    102          1           0       -2.391346   -5.212042   -0.620639
    103          1           0       -1.196002   -4.354651   -1.563579
    104          1           0       -2.628694   -2.169737   -0.422834
    105          1           0       -5.583219   -4.763668   -1.508198
    106          1           0       -3.948496   -5.186762   -2.201368
    107          1           0       -5.070053   -4.205339   -3.126655
    108          1           0       -5.664423   -2.024814   -2.451215
    109          1           0       -4.464691   -1.001271   -1.515403
    110          1           0       -5.905252   -2.803172    0.193885
    111          1           0       -7.095745   -1.938766   -0.858660
    112          1           0       -5.933200    0.233333    0.013902
    113          1           0       -5.231076   -0.781823    1.134176
    114          1           0       -8.016525   -1.601627    1.090922
    115          1           0       -8.264325   -0.218725    3.272527
    116          1           0       -6.580407    0.249247    2.957947
    117          1           0       -6.995231   -1.446594    3.201444
    118          1           0       -7.982076    1.018826   -0.031837
    119          1           0       -8.587143    1.182066    1.553736
    120          1           0       -9.585777   -0.884981   -0.471728
    121          1           0      -10.216550    0.726551   -0.514706
    122          1           0      -10.490921   -0.620930    2.179064
    123          1           0      -11.244450   -1.469198    0.962136
    124          1           0      -11.776612    1.438271    0.992579
    125          1           0      -13.939999    0.744667    2.432335
    126          1           0      -12.329288    1.187573    2.947843
    127          1           0      -12.788221   -0.497845    3.004643
    128          1           0      -14.128218   -0.331002    0.477406
    129          1           0      -12.894348   -0.745434   -0.648113
    130          1           0      -13.195475    1.261110   -1.886642
    131          1           0      -13.139806    2.258915   -0.439932
    132          1           0      -15.557098    0.590277   -0.600738
    133          1           0      -15.249829    1.329868   -2.178717
    134          1           0      -14.902010    3.040062    0.384985
    135          1           0      -17.152775    3.377879    0.915799
    136          1           0      -17.458426    1.863046    0.109314
    137          1           0      -17.727746    3.300543   -0.735531
    138          1           0      -14.660591    3.577222   -2.340962
    139          1           0      -14.949046    4.934955   -1.112036
    140          1           0      -16.216822    4.266074   -1.971679
 ---------------------------------------------------------------------

 SCF Done:  E(RB-LYP) =  -3007.37514216     A.U. after   20 cycles

 Excitation energies and oscillator strengths:

 Excited State   1:      Singlet-A      1.8047 eV  687.01 nm  f=0.3006  <S**2>=0.000
     245 -> 248       -0.19118
     246 -> 247        0.68993
     246 <- 247       -0.15062
 This state for optimization and/or second-order correction.
 Total Energy, E(TD-HF/TD-DFT) =  -3007.30882123
 Copying the excited state density for this state as the 1-particle RhoCI density.

 Excited State   2:      Singlet-A      2.0344 eV  609.44 nm  f=0.0665  <S**2>=0.000
     244 -> 247        0.14449
     245 -> 247        0.62943
     246 -> 248        0.24928

 Excited State   3:      Singlet-A      2.1161 eV  585.91 nm  f=0.0022  <S**2>=0.000
     244 -> 247        0.68959
     245 -> 247       -0.11830

 Excited State   4:      Singlet-A      2.1537 eV  575.69 nm  f=0.0035  <S**2>=0.000
     243 -> 247        0.69709

 Excited State   5:      Singlet-A      2.5181 eV  492.38 nm  f=0.0001  <S**2>=0.000
     242 -> 247        0.70520

 The electronic state is 1-A.
 Alpha  occ. eigenvalues --  -46.26824 -18.83384 -18.80680 -18.78146 -18.76298
 Alpha  occ. eigenvalues --  -18.75546 -18.75499 -14.02993 -14.02921 -14.00945
 Alpha  occ. eigenvalues --  -14.00913 -10.04628 -10.02179 -10.00405  -9.99061
 Alpha  occ. eigenvalues --   -9.98432  -9.96636  -9.96182  -9.96164  -9.95936
 Alpha  occ. eigenvalues --   -9.95759  -9.95744  -9.95646  -9.95326  -9.94409
 Alpha  occ. eigenvalues --   -9.94043  -9.93836  -9.93750  -9.93625  -9.93577
 Alpha  occ. eigenvalues --   -9.93559  -9.93516  -9.93295  -9.93284  -9.93265
 Alpha  occ. eigenvalues --   -9.93089  -9.93040  -9.92985  -9.92754  -9.92727
 Alpha  occ. eigenvalues --   -9.92719  -9.92671  -9.92586  -9.92534  -9.92528
 Alpha  occ. eigenvalues --   -9.92292  -9.92167  -9.92107  -9.91858  -9.91815
 Alpha  occ. eigenvalues --   -9.91713  -9.91683  -9.91602  -9.91594  -9.91478
 Alpha  occ. eigenvalues --   -9.91458  -9.91444  -9.91314  -9.91284  -9.91260
 Alpha  occ. eigenvalues --   -9.91147  -9.91026  -9.91015  -9.90521  -9.90503
 Alpha  occ. eigenvalues --   -9.90489  -2.91450  -1.71882  -1.71306  -1.71185
 Alpha  occ. eigenvalues --   -0.99172  -0.97094  -0.93622  -0.92285  -0.91453
 Alpha  occ. eigenvalues --   -0.89424  -0.86158  -0.85414  -0.85209  -0.84458
 Alpha  occ. eigenvalues --   -0.75530  -0.74133  -0.72882  -0.72399  -0.72140
 Alpha  occ. eigenvalues --   -0.72043  -0.71416  -0.70918  -0.70560  -0.70147
 Alpha  occ. eigenvalues --   -0.69198  -0.68825  -0.68144  -0.67363  -0.67011
 Alpha  occ. eigenvalues --   -0.66220  -0.65435  -0.65013  -0.64695  -0.64317
 Alpha  occ. eigenvalues --   -0.64012  -0.62289  -0.62017  -0.61580  -0.60966
 Alpha  occ. eigenvalues --   -0.59939  -0.59766  -0.59598  -0.59548  -0.59028
 Alpha  occ. eigenvalues --   -0.58474  -0.57257  -0.56634  -0.55189  -0.54774
 Alpha  occ. eigenvalues --   -0.54249  -0.53384  -0.52287  -0.52003  -0.51665
 Alpha  occ. eigenvalues --   -0.51154  -0.50585  -0.50531  -0.50263  -0.50033
 Alpha  occ. eigenvalues --   -0.49995  -0.49908  -0.49000  -0.47551  -0.46416
 Alpha  occ. eigenvalues --   -0.46241  -0.46008  -0.45274  -0.44789  -0.44481
 Alpha  occ. eigenvalues --   -0.44015  -0.43380  -0.42845  -0.42627  -0.42317
 Alpha  occ. eigenvalues --   -0.42277  -0.42109  -0.41755  -0.41466  -0.41257
 Alpha  occ. eigenvalues --   -0.40736  -0.40590  -0.40384  -0.40087  -0.40034
 Alpha  occ. eigenvalues --   -0.39800  -0.39604  -0.39476  -0.39330  -0.39121
 Alpha  occ. eigenvalues --   -0.38927  -0.38768  -0.38359  -0.38059  -0.37896
 Alpha  occ. eigenvalues --   -0.37790  -0.37521  -0.37485  -0.37355  -0.37239
 Alpha  occ. eigenvalues --   -0.37028  -0.36869  -0.36772  -0.36627  -0.36406
 Alpha  occ. eigenvalues --   -0.36094  -0.36066  -0.35883  -0.35851  -0.35550
 Alpha  occ. eigenvalues --   -0.35314  -0.35187  -0.35002  -0.34898  -0.34566
 Alpha  occ. eigenvalues --   -0.34370  -0.34325  -0.34061  -0.33977  -0.33646
 Alpha  occ. eigenvalues --   -0.33625  -0.33523  -0.33278  -0.33160  -0.33037
 Alpha  occ. eigenvalues --   -0.32896  -0.32652  -0.32474  -0.32390  -0.32164
 Alpha  occ. eigenvalues --   -0.31980  -0.31930  -0.31839  -0.31626  -0.31573
 Alpha  occ. eigenvalues --   -0.31381  -0.31266  -0.30987  -0.30912  -0.30804
 Alpha  occ. eigenvalues --   -0.30488  -0.30332  -0.30245  -0.29899  -0.29772
 Alpha  occ. eigenvalues --   -0.29615  -0.29535  -0.29035  -0.29030  -0.28495
 Alpha  occ. eigenvalues --   -0.28412  -0.28363  -0.28199  -0.28026  -0.27944
 Alpha  occ. eigenvalues --   -0.27689  -0.27138  -0.26833  -0.26589  -0.26539
 Alpha  occ. eigenvalues --   -0.26327  -0.26041  -0.25934  -0.25764  -0.25469
 Alpha  occ. eigenvalues --   -0.25395  -0.24841  -0.23872  -0.23755  -0.23499
 Alpha  occ. eigenvalues --   -0.23282  -0.22824  -0.21848  -0.21226  -0.20935
 Alpha  occ. eigenvalues --   -0.20518  -0.20433  -0.19003  -0.18830  -0.17027
 Alpha  occ. eigenvalues --   -0.15436
 Alpha virt. eigenvalues --   -0.11180  -0.06652  -0.06001  -0.04142  -0.02841
 Alpha virt. eigenvalues --   -0.02488  -0.02113  -0.00900  -0.00635   0.00633
 Alpha virt. eigenvalues --    0.01685   0.01777   0.02286   0.02534   0.03048

 Mulliken charges:
               1
     1  Mg   0.698068
     2  C   -0.012174
     3  C   -0.076449
     4  C   -0.034597
     5  C   -0.035743
     6  N   -0.212198
     7  C   -0.081203
     8  C    0.040571
     9  C    0.011725
    10  C    0.067476
    11  C    0.113776
    12  C    0.107375
    13  C    0.104678
    14  C    0.062282
    15  O   -0.156383
    16  O   -0.264887
    17  N   -0.255938
    18  C    0.096463
    19  C   -0.159441
    20  C   -0.010713
    21  C    0.100605
    22  C    0.182712
    23  C   -0.065553
    24  O   -0.125760
    25  C    0.120370
    26  N   -0.217192
    27  C   -0.016217
    28  C    0.045852
    29  C    0.055093
    30  C   -0.027344
    31  C    0.125173
    32  C    0.112469
    33  C    0.057023
    34  N   -0.298073
    35  C    0.109138
    36  C   -0.188921
    37  C    0.192631
    38  C    0.091655
    39  C    0.138047
    40  C   -0.128634
    41  O   -0.121911
    42  C    0.062043
    43  C    0.108637
    44  O   -0.163969
    45  O   -0.265847
    46  C    0.231845
    47  C    0.264438
    48  C   -0.084020
    49  C   -0.203774
    50  C    0.147413
    51  C    0.173458
    52  C    0.031255
    53  C    0.129290
    54  C   -0.053664
    55  C    0.089323
    56  C    0.126173
    57  C    0.080381
    58  C    0.090588
    59  C   -0.090957
    60  C    0.093199
    61  C    0.143074
    62  C    0.010035
    63  C    0.110714
    64  C   -0.076361
    65  C    0.085540
    66  C    0.092734
    67  H   -0.068869
    68  H   -0.045298
    69  H   -0.050339
    70  H    0.011157
    71  H   -0.035367
    72  H   -0.021168
    73  H   -0.013177
    74  H   -0.007978
    75  H   -0.025600
    76  H   -0.006456
    77  H   -0.001100
    78  H   -0.008277
    79  H   -0.004734
    80  H   -0.016866
    81  H    0.017930
    82  H    0.000396
    83  H    0.006217
    84  H    0.012308
    85  H   -0.021510
    86  H   -0.035275
    87  H   -0.017978
    88  H    0.003436
    89  H   -0.009215
    90  H   -0.027200
    91  H   -0.023200
    92  H   -0.009663
    93  H    0.005289
    94  H   -0.010579
    95  H   -0.004315
    96  H   -0.005274
    97  H    0.003356
    98  H    0.008926
    99  H    0.001123
   100  H    0.017674
   101  H    0.005475
   102  H    0.007286
   103  H    0.014890
   104  H   -0.023511
   105  H    0.005443
   106  H   -0.006633
   107  H    0.001227
   108  H   -0.038256
   109  H   -0.021806
   110  H   -0.009038
   111  H   -0.023140
   112  H   -0.043212
   113  H   -0.040780
   114  H   -0.031400
   115  H   -0.010848
   116  H   -0.017813
   117  H   -0.021551
   118  H   -0.051888
   119  H   -0.042193
   120  H   -0.037271
   121  H   -0.026185
   122  H   -0.039208
   123  H   -0.050198
   124  H   -0.027720
   125  H   -0.013888
   126  H   -0.032550
   127  H   -0.014386
   128  H   -0.027717
   129  H   -0.039397
   130  H   -0.032187
   131  H   -0.007580
   132  H   -0.029735
   133  H   -0.027231
   134  H   -0.019239
   135  H   -0.018166
   136  H   -0.029934
   137  H   -0.020761
   138  H   -0.014912
   139  H   -0.012605
   140  H   -0.025153
 Sum of Mulliken charges =  -0.00000

 Dipole moment (field-independent basis, Debye):
    X=             -4.7639    Y=              2.3648    Z=              1.4331  Tot=              5.5082
 Quadrupole moment (field-independent basis, Debye-Ang):
   XX=           -391.2793   YY=           -428.6431   ZZ=           -404.4824
   XY=             31.4392   XZ=             13.1880   YZ=             -1.3178

 Normal termination of Gaussian 16 at Sat Apr 30 19:00:42 2022.
