 Gaussian 16, Revision A.03,
 Gaussian 16:  ES64L-G16RevA.03 25-Dec-2016

 -----------------------------------
 #p cam-b3lyp/Def2SVP td=(nstates=5)
 -----------------------------------

 -------------------------------------------------------
 step_851_chromophore_18 TDDFT with cam-b3lyp functional
 -------------------------------------------------------
 Symbolic Z-matrix:
 Charge =  0 Multiplicity = 1

                         Standard orientation:
 ---------------------------------------------------------------------
 Center     Atomic      Atomic             Coordinates (Angstroms)
 Number     Number       Type             X           Y           Z
 ---------------------------------------------------------------------
      1         12           0        5.227409    1.140009    0.229721
      2          6           0        4.629862   -2.280778    0.314585
      3          6           0        1.717898    1.593333   -0.088935
      4          6           0        5.700115    4.459108   -0.291536
      5          6           0        8.624791    0.594128    0.111852
      6          7           0        3.426480   -0.153550    0.102414
      7          6           0        3.450823   -1.536029    0.339849
      8          6           0        2.045993   -2.092770    0.454363
      9          6           0        1.161852   -0.877685    0.095190
     10          6           0        2.150249    0.282573    0.041323
     11          6           0        0.191855   -0.953302   -1.065808
     12          6           0        1.761851   -2.819232    1.826756
     13          6           0        0.759895   -4.008129    1.828682
     14          6           0        0.071510   -4.450323    0.472853
     15          8           0        0.619236   -5.171100   -0.311562
     16          8           0       -1.163305   -3.875143    0.465706
     17          7           0        3.953276    2.779696   -0.246071
     18          6           0        2.555226    2.776709   -0.290713
     19          6           0        2.037870    4.140914   -0.289883
     20          6           0        3.203419    4.950701   -0.402004
     21          6           0        4.381350    4.040283   -0.295706
     22          6           0        0.576342    4.445713   -0.273015
     23          6           0        3.252384    6.552218   -0.405717
     24          8           0        4.279209    7.156047   -0.389187
     25          6           0        1.929606    7.340662   -0.383754
     26          7           0        6.965986    2.426825    0.173082
     27          6           0        6.887777    3.737400   -0.203130
     28          6           0        8.308472    4.335049   -0.467864
     29          6           0        9.231579    3.170128    0.007921
     30          6           0        8.255022    1.977945    0.191159
     31          6           0        8.675359    4.737218   -1.922799
     32          6           0        9.956138    3.192334    1.358909
     33          6           0        9.254641    3.820044    2.578430
     34          7           0        6.421698   -0.484046    0.126557
     35          6           0        7.796399   -0.559608    0.004304
     36          6           0        8.072983   -2.012017   -0.021330
     37          6           0        6.911902   -2.755499    0.129902
     38          6           0        5.917605   -1.732953    0.208077
     39          6           0        9.473837   -2.581144   -0.240640
     40          6           0        6.366732   -4.011420    0.186815
     41          8           0        6.892736   -5.106650    0.092891
     42          6           0        4.815927   -3.804478    0.458294
     43          6           0        4.163431   -4.571998   -0.579075
     44          8           0        3.979847   -4.239428   -1.712962
     45          8           0        3.937816   -5.807615   -0.052701
     46          6           0        3.550377   -6.820732   -1.056824
     47          6           0       -1.908449   -4.243358   -0.747139
     48          6           0       -2.917349   -3.063187   -0.976292
     49          6           0       -4.193522   -3.155115   -1.480395
     50          6           0       -4.737650   -4.440005   -2.115475
     51          6           0       -5.103496   -1.884538   -1.526949
     52          6           0       -6.117706   -1.901062   -0.379408
     53          6           0       -6.138707   -0.700095    0.537734
     54          6           0       -7.489710   -0.660806    1.244553
     55          6           0       -7.341478   -0.507286    2.769803
     56          6           0       -8.463672    0.444358    0.760239
     57          6           0       -9.788335   -0.017850    0.156369
     58          6           0      -10.879993   -0.463027    1.173174
     59          6           0      -12.175341    0.427951    1.080462
     60          6           0      -12.899799    0.418807    2.425473
     61          6           0      -13.216713    0.054053    0.020080
     62          6           0      -13.572159    1.354667   -0.867930
     63          6           0      -15.137881    1.461811   -1.103085
     64          6           0      -15.498874    2.788627   -0.491907
     65          6           0      -17.025527    2.853607   -0.031559
     66          6           0      -15.264389    3.976956   -1.526271
     67          1           0        0.644413    1.790513   -0.044289
     68          1           0        5.851941    5.503104   -0.572380
     69          1           0        9.676987    0.375490   -0.081320
     70          1           0        1.935308   -2.814506   -0.354528
     71          1           0        0.439461   -0.720575    0.895664
     72          1           0        0.469243   -0.286749   -1.883517
     73          1           0       -0.842307   -0.678544   -0.860175
     74          1           0        0.156805   -1.924327   -1.559773
     75          1           0        1.148714   -2.163783    2.444154
     76          1           0        2.661723   -3.115401    2.366338
     77          1           0        0.065041   -3.963193    2.666527
     78          1           0        1.532855   -4.769251    1.932115
     79          1           0       -0.010731    3.619930   -0.675050
     80          1           0        0.387971    5.202140   -1.035410
     81          1           0        0.271960    4.819273    0.705107
     82          1           0        2.180488    8.400688   -0.325858
     83          1           0        1.254211    7.023714    0.411258
     84          1           0        1.469424    7.055093   -1.328792
     85          1           0        8.328224    5.216559    0.171958
     86          1           0        9.803117    2.882235   -0.874974
     87          1           0        8.832873    5.801642   -2.098837
     88          1           0        7.882169    4.470059   -2.621391
     89          1           0        9.669115    4.389026   -2.205328
     90          1           0       10.925709    3.681054    1.263042
     91          1           0       10.166888    2.165164    1.655753
     92          1           0        9.349684    3.192612    3.463907
     93          1           0        8.198883    4.066710    2.465310
     94          1           0        9.784116    4.749422    2.787693
     95          1           0        9.383474   -3.667631   -0.229490
     96          1           0       10.119476   -2.277137    0.583617
     97          1           0        9.992177   -2.370331   -1.177329
     98          1           0        4.619406   -4.123379    1.481948
     99          1           0        4.460670   -6.940372   -1.645461
    100          1           0        2.757915   -6.547813   -1.753630
    101          1           0        3.287269   -7.812232   -0.688374
    102          1           0       -2.391346   -5.212042   -0.620639
    103          1           0       -1.196002   -4.354651   -1.563579
    104          1           0       -2.628694   -2.169737   -0.422834
    105          1           0       -5.583219   -4.763668   -1.508198
    106          1           0       -3.948496   -5.186762   -2.201368
    107          1           0       -5.070053   -4.205339   -3.126655
    108          1           0       -5.664423   -2.024814   -2.451215
    109          1           0       -4.464691   -1.001271   -1.515403
    110          1           0       -5.905252   -2.803172    0.193885
    111          1           0       -7.095745   -1.938766   -0.858660
    112          1           0       -5.933200    0.233333    0.013902
    113          1           0       -5.231076   -0.781823    1.134176
    114          1           0       -8.016525   -1.601627    1.090922
    115          1           0       -8.264325   -0.218725    3.272527
    116          1           0       -6.580407    0.249247    2.957947
    117          1           0       -6.995231   -1.446594    3.201444
    118          1           0       -7.982076    1.018826   -0.031837
    119          1           0       -8.587143    1.182066    1.553736
    120          1           0       -9.585777   -0.884981   -0.471728
    121          1           0      -10.216550    0.726551   -0.514706
    122          1           0      -10.490921   -0.620930    2.179064
    123          1           0      -11.244450   -1.469198    0.962136
    124          1           0      -11.776612    1.438271    0.992579
    125          1           0      -13.939999    0.744667    2.432335
    126          1           0      -12.329288    1.187573    2.947843
    127          1           0      -12.788221   -0.497845    3.004643
    128          1           0      -14.128218   -0.331002    0.477406
    129          1           0      -12.894348   -0.745434   -0.648113
    130          1           0      -13.195475    1.261110   -1.886642
    131          1           0      -13.139806    2.258915   -0.439932
    132          1           0      -15.557098    0.590277   -0.600738
    133          1           0      -15.249829    1.329868   -2.178717
    134          1           0      -14.902010    3.040062    0.384985
    135          1           0      -17.152775    3.377879    0.915799
    136          1           0      -17.458426    1.863046    0.109314
    137          1           0      -17.727746    3.300543   -0.735531
    138          1           0      -14.660591    3.577222   -2.340962
    139          1           0      -14.949046    4.934955   -1.112036
    140          1           0      -16.216822    4.266074   -1.971679
 ---------------------------------------------------------------------

 SCF Done:  E(RCAM-B3LYP) =  -3007.16995314     A.U. after   17 cycles

 Excitation energies and oscillator strengths:

 Excited State   1:      Singlet-A      1.6916 eV  732.96 nm  f=0.3762  <S**2>=0.000
     245 -> 248       -0.18365
     246 -> 247        0.68518
     245 <- 248       -0.11001
 This state for optimization and/or second-order correction.
 Total Energy, E(TD-HF/TD-DFT) =  -3007.10778978
 Copying the excited state density for this state as the 1-particle RhoCI density.

 Excited State   2:      Singlet-A      2.2486 eV  551.39 nm  f=0.0953  <S**2>=0.000
     245 -> 247        0.63061
     246 -> 248        0.31056

 Excited State   3:      Singlet-A      3.4989 eV  354.35 nm  f=0.6278  <S**2>=0.000
     242 -> 247       -0.20858
     244 -> 247       -0.17632
     245 -> 247       -0.27190
     246 -> 248        0.58420
     245 <- 247        0.10618

 Excited State   4:      Singlet-A      3.5450 eV  349.74 nm  f=0.0614  <S**2>=0.000
     241 -> 247       -0.17379
     241 -> 249        0.17676
     244 -> 247        0.61587
     246 -> 248        0.13574

 Excited State   5:      Singlet-A      3.6096 eV  343.48 nm  f=0.0590  <S**2>=0.000
     241 -> 247        0.50432
     241 -> 249       -0.31622
     244 -> 247        0.22741
     246 -> 248        0.13538

 The electronic state is 1-A.
 Alpha  occ. eigenvalues --  -46.88332 -19.26267 -19.23545 -19.21112 -19.19604
 Alpha  occ. eigenvalues --  -19.18582 -19.18575 -14.41853 -14.41734 -14.39474
 Alpha  occ. eigenvalues --  -14.39277 -10.39907 -10.37529 -10.35711 -10.34283
 Alpha  occ. eigenvalues --  -10.32594 -10.30969 -10.30683 -10.30614 -10.30402
 Alpha  occ. eigenvalues --  -10.30186 -10.29846 -10.29768 -10.29690 -10.28649
 Alpha  occ. eigenvalues --  -10.28236 -10.28185 -10.28118 -10.27975 -10.27581
 Alpha  occ. eigenvalues --  -10.27490 -10.27434 -10.27385 -10.27363 -10.27324
 Alpha  occ. eigenvalues --  -10.27286 -10.27179 -10.27132 -10.26816 -10.26814
 Alpha  occ. eigenvalues --  -10.26710 -10.26614 -10.26447 -10.26431 -10.26330
 Alpha  occ. eigenvalues --  -10.26205 -10.25823 -10.25817 -10.25580 -10.25538
 Alpha  occ. eigenvalues --  -10.25482 -10.25417 -10.25262 -10.25254 -10.25211
 Alpha  occ. eigenvalues --  -10.25157 -10.25119 -10.25042 -10.24968 -10.24947
 Alpha  occ. eigenvalues --  -10.24810 -10.24658 -10.24626 -10.24368 -10.24143
 Alpha  occ. eigenvalues --  -10.24102  -3.16862  -1.91771  -1.91287  -1.91190
 Alpha  occ. eigenvalues --   -1.17659  -1.15669  -1.12207  -1.10196  -1.09731
 Alpha  occ. eigenvalues --   -1.07327  -1.03807  -1.03022  -1.02822  -1.01975
 Alpha  occ. eigenvalues --   -0.92611  -0.91026  -0.89689  -0.89123  -0.88838
 Alpha  occ. eigenvalues --   -0.88763  -0.88074  -0.87506  -0.87139  -0.86768
 Alpha  occ. eigenvalues --   -0.85597  -0.85193  -0.84440  -0.83499  -0.83125
 Alpha  occ. eigenvalues --   -0.82235  -0.81620  -0.80957  -0.80521  -0.80138
 Alpha  occ. eigenvalues --   -0.79840  -0.78081  -0.77636  -0.77013  -0.76375
 Alpha  occ. eigenvalues --   -0.75265  -0.75007  -0.74894  -0.74870  -0.74273
 Alpha  occ. eigenvalues --   -0.73545  -0.72225  -0.71554  -0.69980  -0.69378
 Alpha  occ. eigenvalues --   -0.68828  -0.67916  -0.66688  -0.66391  -0.65953
 Alpha  occ. eigenvalues --   -0.65284  -0.64694  -0.64374  -0.64294  -0.64137
 Alpha  occ. eigenvalues --   -0.64011  -0.63853  -0.62902  -0.61205  -0.59988
 Alpha  occ. eigenvalues --   -0.59886  -0.59525  -0.58721  -0.58119  -0.58092
 Alpha  occ. eigenvalues --   -0.57376  -0.56727  -0.56296  -0.55743  -0.55458
 Alpha  occ. eigenvalues --   -0.55147  -0.55132  -0.54816  -0.54572  -0.54062
 Alpha  occ. eigenvalues --   -0.53705  -0.53524  -0.52988  -0.52882  -0.52822
 Alpha  occ. eigenvalues --   -0.52616  -0.52570  -0.52243  -0.51956  -0.51531
 Alpha  occ. eigenvalues --   -0.51414  -0.51065  -0.50937  -0.50750  -0.50468
 Alpha  occ. eigenvalues --   -0.50192  -0.50156  -0.49759  -0.49649  -0.49443
 Alpha  occ. eigenvalues --   -0.49419  -0.49208  -0.49089  -0.48904  -0.48815
 Alpha  occ. eigenvalues --   -0.48498  -0.48275  -0.48095  -0.47989  -0.47903
 Alpha  occ. eigenvalues --   -0.47522  -0.47345  -0.47283  -0.46694  -0.46553
 Alpha  occ. eigenvalues --   -0.46233  -0.46145  -0.45950  -0.45820  -0.45338
 Alpha  occ. eigenvalues --   -0.45291  -0.45159  -0.44968  -0.44897  -0.44849
 Alpha  occ. eigenvalues --   -0.44541  -0.44371  -0.44149  -0.43956  -0.43928
 Alpha  occ. eigenvalues --   -0.43869  -0.43595  -0.43421  -0.43176  -0.43131
 Alpha  occ. eigenvalues --   -0.42951  -0.42737  -0.42614  -0.42473  -0.41960
 Alpha  occ. eigenvalues --   -0.41874  -0.41719  -0.41406  -0.41217  -0.40959
 Alpha  occ. eigenvalues --   -0.40930  -0.40694  -0.40576  -0.40212  -0.40089
 Alpha  occ. eigenvalues --   -0.39429  -0.39418  -0.39216  -0.38989  -0.38834
 Alpha  occ. eigenvalues --   -0.38602  -0.38161  -0.37882  -0.37517  -0.37316
 Alpha  occ. eigenvalues --   -0.37096  -0.37053  -0.36669  -0.36429  -0.36324
 Alpha  occ. eigenvalues --   -0.36065  -0.35445  -0.35392  -0.34497  -0.34163
 Alpha  occ. eigenvalues --   -0.34109  -0.33649  -0.32781  -0.31152  -0.31003
 Alpha  occ. eigenvalues --   -0.30680  -0.30219  -0.30128  -0.29879  -0.23764
 Alpha  occ. eigenvalues --   -0.20647
 Alpha virt. eigenvalues --   -0.08228  -0.01485   0.00503   0.02847   0.03022
 Alpha virt. eigenvalues --    0.04691   0.05198   0.06268   0.07074   0.07135
 Alpha virt. eigenvalues --    0.07958   0.08581   0.08755   0.09273   0.09432

 Mulliken charges:
               1
     1  Mg   0.829663
     2  C   -0.037565
     3  C   -0.091904
     4  C   -0.053234
     5  C   -0.045068
     6  N   -0.285275
     7  C   -0.033844
     8  C   -0.017415
     9  C   -0.036997
    10  C    0.084832
    11  C    0.055120
    12  C    0.061553
    13  C    0.043597
    14  C    0.134122
    15  O   -0.197885
    16  O   -0.326052
    17  N   -0.341888
    18  C    0.110568
    19  C   -0.166748
    20  C   -0.069052
    21  C    0.123229
    22  C    0.118335
    23  C    0.012378
    24  O   -0.166654
    25  C    0.042547
    26  N   -0.286135
    27  C    0.004519
    28  C   -0.009562
    29  C   -0.000181
    30  C   -0.011652
    31  C    0.065245
    32  C    0.053041
    33  C   -0.003632
    34  N   -0.388080
    35  C    0.115530
    36  C   -0.177235
    37  C    0.101716
    38  C    0.129006
    39  C    0.085884
    40  C   -0.029967
    41  O   -0.161992
    42  C   -0.012299
    43  C    0.194295
    44  O   -0.198818
    45  O   -0.327716
    46  C    0.189278
    47  C    0.230669
    48  C   -0.100951
    49  C   -0.223035
    50  C    0.087660
    51  C    0.111837
    52  C   -0.018152
    53  C    0.076279
    54  C   -0.118459
    55  C    0.036251
    56  C    0.070920
    57  C    0.025925
    58  C    0.041207
    59  C   -0.146038
    60  C    0.036889
    61  C    0.085615
    62  C   -0.037240
    63  C    0.053736
    64  C   -0.141390
    65  C    0.029895
    66  C    0.036504
    67  H   -0.033089
    68  H   -0.005043
    69  H   -0.015860
    70  H    0.042059
    71  H    0.000698
    72  H    0.008370
    73  H    0.008628
    74  H    0.014569
    75  H    0.004629
    76  H    0.022180
    77  H    0.031288
    78  H    0.022388
    79  H    0.023833
    80  H    0.010518
    81  H    0.044980
    82  H    0.034792
    83  H    0.032930
    84  H    0.036622
    85  H    0.014017
    86  H    0.002357
    87  H    0.008050
    88  H    0.028880
    89  H    0.015080
    90  H    0.001884
    91  H    0.006695
    92  H    0.015522
    93  H    0.026352
    94  H    0.012863
    95  H    0.024612
    96  H    0.019233
    97  H    0.028731
    98  H    0.050167
    99  H    0.025292
   100  H    0.041642
   101  H    0.029837
   102  H    0.033660
   103  H    0.045141
   104  H    0.005657
   105  H    0.028711
   106  H    0.016540
   107  H    0.025154
   108  H   -0.006643
   109  H    0.008128
   110  H    0.017937
   111  H    0.002228
   112  H   -0.013456
   113  H   -0.011132
   114  H    0.000410
   115  H    0.011136
   116  H    0.005165
   117  H    0.003363
   118  H   -0.020621
   119  H   -0.012401
   120  H   -0.009743
   121  H    0.001721
   122  H   -0.011830
   123  H   -0.020173
   124  H    0.001909
   125  H    0.009556
   126  H   -0.007818
   127  H    0.009530
   128  H    0.000381
   129  H   -0.009443
   130  H   -0.004545
   131  H    0.016560
   132  H   -0.001734
   133  H    0.002592
   134  H    0.011121
   135  H    0.006044
   136  H   -0.005639
   137  H    0.002687
   138  H    0.007421
   139  H    0.012234
   140  H   -0.001245
 Sum of Mulliken charges =  -0.00000

 Dipole moment (field-independent basis, Debye):
    X=             -5.2630    Y=              2.8450    Z=              1.4458  Tot=              6.1550
 Quadrupole moment (field-independent basis, Debye-Ang):
   XX=           -390.9283   YY=           -424.6865   ZZ=           -404.3434
   XY=             32.5208   XZ=             13.1722   YZ=             -1.7742

 Normal termination of Gaussian 16 at Sat Apr 30 18:01:35 2022.
