 Gaussian 16, Revision A.03,
 Gaussian 16:  ES64L-G16RevA.03 25-Dec-2016

 ---------------------------------
 #p PBE1PBE/Def2SVP td=(nstates=5)
 ---------------------------------

 -----------------------------------------------------
 step_851_chromophore_18 TDDFT with PBE1PBE functional
 -----------------------------------------------------
 Symbolic Z-matrix:
 Charge =  0 Multiplicity = 1

                         Standard orientation:
 ---------------------------------------------------------------------
 Center     Atomic      Atomic             Coordinates (Angstroms)
 Number     Number       Type             X           Y           Z
 ---------------------------------------------------------------------
      1         12           0        5.227409    1.140009    0.229721
      2          6           0        4.629862   -2.280778    0.314585
      3          6           0        1.717898    1.593333   -0.088935
      4          6           0        5.700115    4.459108   -0.291536
      5          6           0        8.624791    0.594128    0.111852
      6          7           0        3.426480   -0.153550    0.102414
      7          6           0        3.450823   -1.536029    0.339849
      8          6           0        2.045993   -2.092770    0.454363
      9          6           0        1.161852   -0.877685    0.095190
     10          6           0        2.150249    0.282573    0.041323
     11          6           0        0.191855   -0.953302   -1.065808
     12          6           0        1.761851   -2.819232    1.826756
     13          6           0        0.759895   -4.008129    1.828682
     14          6           0        0.071510   -4.450323    0.472853
     15          8           0        0.619236   -5.171100   -0.311562
     16          8           0       -1.163305   -3.875143    0.465706
     17          7           0        3.953276    2.779696   -0.246071
     18          6           0        2.555226    2.776709   -0.290713
     19          6           0        2.037870    4.140914   -0.289883
     20          6           0        3.203419    4.950701   -0.402004
     21          6           0        4.381350    4.040283   -0.295706
     22          6           0        0.576342    4.445713   -0.273015
     23          6           0        3.252384    6.552218   -0.405717
     24          8           0        4.279209    7.156047   -0.389187
     25          6           0        1.929606    7.340662   -0.383754
     26          7           0        6.965986    2.426825    0.173082
     27          6           0        6.887777    3.737400   -0.203130
     28          6           0        8.308472    4.335049   -0.467864
     29          6           0        9.231579    3.170128    0.007921
     30          6           0        8.255022    1.977945    0.191159
     31          6           0        8.675359    4.737218   -1.922799
     32          6           0        9.956138    3.192334    1.358909
     33          6           0        9.254641    3.820044    2.578430
     34          7           0        6.421698   -0.484046    0.126557
     35          6           0        7.796399   -0.559608    0.004304
     36          6           0        8.072983   -2.012017   -0.021330
     37          6           0        6.911902   -2.755499    0.129902
     38          6           0        5.917605   -1.732953    0.208077
     39          6           0        9.473837   -2.581144   -0.240640
     40          6           0        6.366732   -4.011420    0.186815
     41          8           0        6.892736   -5.106650    0.092891
     42          6           0        4.815927   -3.804478    0.458294
     43          6           0        4.163431   -4.571998   -0.579075
     44          8           0        3.979847   -4.239428   -1.712962
     45          8           0        3.937816   -5.807615   -0.052701
     46          6           0        3.550377   -6.820732   -1.056824
     47          6           0       -1.908449   -4.243358   -0.747139
     48          6           0       -2.917349   -3.063187   -0.976292
     49          6           0       -4.193522   -3.155115   -1.480395
     50          6           0       -4.737650   -4.440005   -2.115475
     51          6           0       -5.103496   -1.884538   -1.526949
     52          6           0       -6.117706   -1.901062   -0.379408
     53          6           0       -6.138707   -0.700095    0.537734
     54          6           0       -7.489710   -0.660806    1.244553
     55          6           0       -7.341478   -0.507286    2.769803
     56          6           0       -8.463672    0.444358    0.760239
     57          6           0       -9.788335   -0.017850    0.156369
     58          6           0      -10.879993   -0.463027    1.173174
     59          6           0      -12.175341    0.427951    1.080462
     60          6           0      -12.899799    0.418807    2.425473
     61          6           0      -13.216713    0.054053    0.020080
     62          6           0      -13.572159    1.354667   -0.867930
     63          6           0      -15.137881    1.461811   -1.103085
     64          6           0      -15.498874    2.788627   -0.491907
     65          6           0      -17.025527    2.853607   -0.031559
     66          6           0      -15.264389    3.976956   -1.526271
     67          1           0        0.644413    1.790513   -0.044289
     68          1           0        5.851941    5.503104   -0.572380
     69          1           0        9.676987    0.375490   -0.081320
     70          1           0        1.935308   -2.814506   -0.354528
     71          1           0        0.439461   -0.720575    0.895664
     72          1           0        0.469243   -0.286749   -1.883517
     73          1           0       -0.842307   -0.678544   -0.860175
     74          1           0        0.156805   -1.924327   -1.559773
     75          1           0        1.148714   -2.163783    2.444154
     76          1           0        2.661723   -3.115401    2.366338
     77          1           0        0.065041   -3.963193    2.666527
     78          1           0        1.532855   -4.769251    1.932115
     79          1           0       -0.010731    3.619930   -0.675050
     80          1           0        0.387971    5.202140   -1.035410
     81          1           0        0.271960    4.819273    0.705107
     82          1           0        2.180488    8.400688   -0.325858
     83          1           0        1.254211    7.023714    0.411258
     84          1           0        1.469424    7.055093   -1.328792
     85          1           0        8.328224    5.216559    0.171958
     86          1           0        9.803117    2.882235   -0.874974
     87          1           0        8.832873    5.801642   -2.098837
     88          1           0        7.882169    4.470059   -2.621391
     89          1           0        9.669115    4.389026   -2.205328
     90          1           0       10.925709    3.681054    1.263042
     91          1           0       10.166888    2.165164    1.655753
     92          1           0        9.349684    3.192612    3.463907
     93          1           0        8.198883    4.066710    2.465310
     94          1           0        9.784116    4.749422    2.787693
     95          1           0        9.383474   -3.667631   -0.229490
     96          1           0       10.119476   -2.277137    0.583617
     97          1           0        9.992177   -2.370331   -1.177329
     98          1           0        4.619406   -4.123379    1.481948
     99          1           0        4.460670   -6.940372   -1.645461
    100          1           0        2.757915   -6.547813   -1.753630
    101          1           0        3.287269   -7.812232   -0.688374
    102          1           0       -2.391346   -5.212042   -0.620639
    103          1           0       -1.196002   -4.354651   -1.563579
    104          1           0       -2.628694   -2.169737   -0.422834
    105          1           0       -5.583219   -4.763668   -1.508198
    106          1           0       -3.948496   -5.186762   -2.201368
    107          1           0       -5.070053   -4.205339   -3.126655
    108          1           0       -5.664423   -2.024814   -2.451215
    109          1           0       -4.464691   -1.001271   -1.515403
    110          1           0       -5.905252   -2.803172    0.193885
    111          1           0       -7.095745   -1.938766   -0.858660
    112          1           0       -5.933200    0.233333    0.013902
    113          1           0       -5.231076   -0.781823    1.134176
    114          1           0       -8.016525   -1.601627    1.090922
    115          1           0       -8.264325   -0.218725    3.272527
    116          1           0       -6.580407    0.249247    2.957947
    117          1           0       -6.995231   -1.446594    3.201444
    118          1           0       -7.982076    1.018826   -0.031837
    119          1           0       -8.587143    1.182066    1.553736
    120          1           0       -9.585777   -0.884981   -0.471728
    121          1           0      -10.216550    0.726551   -0.514706
    122          1           0      -10.490921   -0.620930    2.179064
    123          1           0      -11.244450   -1.469198    0.962136
    124          1           0      -11.776612    1.438271    0.992579
    125          1           0      -13.939999    0.744667    2.432335
    126          1           0      -12.329288    1.187573    2.947843
    127          1           0      -12.788221   -0.497845    3.004643
    128          1           0      -14.128218   -0.331002    0.477406
    129          1           0      -12.894348   -0.745434   -0.648113
    130          1           0      -13.195475    1.261110   -1.886642
    131          1           0      -13.139806    2.258915   -0.439932
    132          1           0      -15.557098    0.590277   -0.600738
    133          1           0      -15.249829    1.329868   -2.178717
    134          1           0      -14.902010    3.040062    0.384985
    135          1           0      -17.152775    3.377879    0.915799
    136          1           0      -17.458426    1.863046    0.109314
    137          1           0      -17.727746    3.300543   -0.735531
    138          1           0      -14.660591    3.577222   -2.340962
    139          1           0      -14.949046    4.934955   -1.112036
    140          1           0      -16.216822    4.266074   -1.971679
 ---------------------------------------------------------------------

 SCF Done:  E(RPBE1PBE) =  -3005.35834209     A.U. after   15 cycles

 Excitation energies and oscillator strengths:

 Excited State   1:      Singlet-A      1.8509 eV  669.86 nm  f=0.3658  <S**2>=0.000
     245 -> 248       -0.17630
     246 -> 247        0.69251
     246 <- 247       -0.10800
 This state for optimization and/or second-order correction.
 Total Energy, E(TD-HF/TD-DFT) =  -3005.29032297
 Copying the excited state density for this state as the 1-particle RhoCI density.

 Excited State   2:      Singlet-A      2.2574 eV  549.23 nm  f=0.0954  <S**2>=0.000
     245 -> 247        0.64344
     246 -> 248        0.28309

 Excited State   3:      Singlet-A      3.1147 eV  398.06 nm  f=0.0024  <S**2>=0.000
     241 -> 247       -0.21197
     242 -> 247        0.49111
     242 -> 249       -0.17447
     244 -> 247       -0.39825

 Excited State   4:      Singlet-A      3.2010 eV  387.33 nm  f=0.0007  <S**2>=0.000
     242 -> 247        0.40749
     244 -> 247        0.55243

 Excited State   5:      Singlet-A      3.2777 eV  378.26 nm  f=0.0200  <S**2>=0.000
     240 -> 247        0.27510
     241 -> 247        0.58390
     242 -> 247        0.12585
     244 -> 247       -0.13997
     246 -> 248       -0.13538

 The electronic state is 1-A.
 Alpha  occ. eigenvalues --  -46.91732 -19.26975 -19.24210 -19.21381 -19.19722
 Alpha  occ. eigenvalues --  -19.18887 -19.18775 -14.41351 -14.41292 -14.39066
 Alpha  occ. eigenvalues --  -14.38973 -10.36970 -10.34494 -10.32802 -10.31456
 Alpha  occ. eigenvalues --  -10.30013 -10.28845 -10.28409 -10.28369 -10.28036
 Alpha  occ. eigenvalues --  -10.27811 -10.27710 -10.27346 -10.26930 -10.26399
 Alpha  occ. eigenvalues --  -10.25937 -10.25820 -10.25816 -10.25778 -10.25401
 Alpha  occ. eigenvalues --  -10.25361 -10.25092 -10.25049 -10.25013 -10.25005
 Alpha  occ. eigenvalues --  -10.24987 -10.24940 -10.24651 -10.24486 -10.24250
 Alpha  occ. eigenvalues --  -10.24212 -10.24198 -10.24119 -10.23886 -10.23873
 Alpha  occ. eigenvalues --  -10.23687 -10.23522 -10.23303 -10.23286 -10.23130
 Alpha  occ. eigenvalues --  -10.23017 -10.22854 -10.22803 -10.22789 -10.22741
 Alpha  occ. eigenvalues --  -10.22651 -10.22637 -10.22593 -10.22534 -10.22502
 Alpha  occ. eigenvalues --  -10.22382 -10.22147 -10.22058 -10.22021 -10.21549
 Alpha  occ. eigenvalues --  -10.21493  -3.13843  -1.86692  -1.86186  -1.86093
 Alpha  occ. eigenvalues --   -1.12485  -1.10423  -1.06899  -1.05091  -1.04544
 Alpha  occ. eigenvalues --   -1.02161  -0.98463  -0.97661  -0.97433  -0.96618
 Alpha  occ. eigenvalues --   -0.87034  -0.85125  -0.83783  -0.83337  -0.83117
 Alpha  occ. eigenvalues --   -0.82897  -0.82358  -0.81618  -0.81460  -0.81025
 Alpha  occ. eigenvalues --   -0.79923  -0.79433  -0.78638  -0.77813  -0.77400
 Alpha  occ. eigenvalues --   -0.76418  -0.75748  -0.75154  -0.74802  -0.74312
 Alpha  occ. eigenvalues --   -0.74163  -0.72340  -0.71903  -0.71327  -0.70541
 Alpha  occ. eigenvalues --   -0.69591  -0.69363  -0.69022  -0.68943  -0.68428
 Alpha  occ. eigenvalues --   -0.67853  -0.66677  -0.65965  -0.64283  -0.63761
 Alpha  occ. eigenvalues --   -0.63374  -0.62147  -0.60934  -0.60734  -0.60164
 Alpha  occ. eigenvalues --   -0.59801  -0.58920  -0.58817  -0.58768  -0.58596
 Alpha  occ. eigenvalues --   -0.58387  -0.58173  -0.57095  -0.55801  -0.54449
 Alpha  occ. eigenvalues --   -0.54396  -0.54087  -0.53265  -0.52774  -0.52483
 Alpha  occ. eigenvalues --   -0.51986  -0.51110  -0.50842  -0.50301  -0.49969
 Alpha  occ. eigenvalues --   -0.49650  -0.49613  -0.49326  -0.49072  -0.48508
 Alpha  occ. eigenvalues --   -0.48218  -0.48100  -0.47538  -0.47406  -0.47243
 Alpha  occ. eigenvalues --   -0.47183  -0.47074  -0.46805  -0.46453  -0.46059
 Alpha  occ. eigenvalues --   -0.45960  -0.45596  -0.45544  -0.45346  -0.44946
 Alpha  occ. eigenvalues --   -0.44769  -0.44689  -0.44313  -0.44190  -0.44018
 Alpha  occ. eigenvalues --   -0.43998  -0.43789  -0.43709  -0.43466  -0.43410
 Alpha  occ. eigenvalues --   -0.43124  -0.42889  -0.42749  -0.42621  -0.42455
 Alpha  occ. eigenvalues --   -0.42155  -0.42033  -0.41934  -0.41292  -0.41240
 Alpha  occ. eigenvalues --   -0.40933  -0.40840  -0.40752  -0.40537  -0.39978
 Alpha  occ. eigenvalues --   -0.39944  -0.39821  -0.39652  -0.39597  -0.39521
 Alpha  occ. eigenvalues --   -0.39311  -0.39169  -0.38898  -0.38687  -0.38668
 Alpha  occ. eigenvalues --   -0.38615  -0.38420  -0.38230  -0.37888  -0.37856
 Alpha  occ. eigenvalues --   -0.37650  -0.37534  -0.37457  -0.37239  -0.36849
 Alpha  occ. eigenvalues --   -0.36735  -0.36600  -0.36155  -0.36106  -0.35889
 Alpha  occ. eigenvalues --   -0.35690  -0.35461  -0.35411  -0.35040  -0.34824
 Alpha  occ. eigenvalues --   -0.34297  -0.34126  -0.34041  -0.33903  -0.33843
 Alpha  occ. eigenvalues --   -0.33424  -0.33091  -0.32731  -0.32436  -0.32201
 Alpha  occ. eigenvalues --   -0.32073  -0.31893  -0.31539  -0.31474  -0.31416
 Alpha  occ. eigenvalues --   -0.30914  -0.30330  -0.30272  -0.29457  -0.29338
 Alpha  occ. eigenvalues --   -0.29095  -0.28611  -0.28220  -0.26757  -0.25972
 Alpha  occ. eigenvalues --   -0.25790  -0.25629  -0.25429  -0.25394  -0.20693
 Alpha  occ. eigenvalues --   -0.18310
 Alpha virt. eigenvalues --   -0.10716  -0.04975  -0.03731  -0.01473   0.00159
 Alpha virt. eigenvalues --    0.00281   0.00622   0.01927   0.02480   0.03716
 Alpha virt. eigenvalues --    0.04218   0.04746   0.05323   0.05549   0.06056

 Mulliken charges:
               1
     1  Mg   0.977064
     2  C   -0.036400
     3  C   -0.080595
     4  C   -0.043127
     5  C   -0.046280
     6  N   -0.391898
     7  C    0.038604
     8  C   -0.091867
     9  C   -0.106563
    10  C    0.115354
    11  C   -0.002289
    12  C    0.013049
    13  C   -0.031361
    14  C    0.196018
    15  O   -0.230231
    16  O   -0.353715
    17  N   -0.457594
    18  C    0.137997
    19  C   -0.192774
    20  C   -0.107562
    21  C    0.147273
    22  C    0.052285
    23  C    0.063532
    24  O   -0.204323
    25  C   -0.033641
    26  N   -0.385645
    27  C    0.039024
    28  C   -0.080498
    29  C   -0.075110
    30  C    0.024784
    31  C    0.009024
    32  C   -0.015576
    33  C   -0.071631
    34  N   -0.519512
    35  C    0.150533
    36  C   -0.195960
    37  C    0.055166
    38  C    0.171414
    39  C    0.036447
    40  C    0.058579
    41  O   -0.208223
    42  C   -0.125397
    43  C    0.289049
    44  O   -0.235855
    45  O   -0.360509
    46  C    0.131770
    47  C    0.190461
    48  C   -0.110158
    49  C   -0.268616
    50  C    0.024059
    51  C    0.047001
    52  C   -0.086305
    53  C    0.030801
    54  C   -0.209881
    55  C   -0.026446
    56  C    0.020564
    57  C   -0.045858
    58  C   -0.004463
    59  C   -0.238156
    60  C   -0.022339
    61  C    0.034350
    62  C   -0.094896
    63  C   -0.001756
    64  C   -0.241388
    65  C   -0.027194
    66  C   -0.020209
    67  H   -0.001350
    68  H    0.026936
    69  H    0.015293
    70  H    0.084636
    71  H    0.038409
    72  H    0.037086
    73  H    0.034603
    74  H    0.043974
    75  H    0.037615
    76  H    0.053580
    77  H    0.061598
    78  H    0.057324
    79  H    0.049658
    80  H    0.039364
    81  H    0.072212
    82  H    0.061848
    83  H    0.060125
    84  H    0.063864
    85  H    0.050367
    86  H    0.039868
    87  H    0.035795
    88  H    0.056283
    89  H    0.041028
    90  H    0.035434
    91  H    0.041958
    92  H    0.043316
    93  H    0.055186
    94  H    0.040697
    95  H    0.052889
    96  H    0.046966
    97  H    0.055617
    98  H    0.086211
    99  H    0.048460
   100  H    0.063501
   101  H    0.052208
   102  H    0.059606
   103  H    0.070553
   104  H    0.036214
   105  H    0.056257
   106  H    0.043620
   107  H    0.052440
   108  H    0.027601
   109  H    0.038962
   110  H    0.051767
   111  H    0.037005
   112  H    0.017756
   113  H    0.021135
   114  H    0.038806
   115  H    0.038350
   116  H    0.033806
   117  H    0.032306
   118  H    0.012936
   119  H    0.020267
   120  H    0.024315
   121  H    0.034477
   122  H    0.020835
   123  H    0.013127
   124  H    0.039814
   125  H    0.037703
   126  H    0.021223
   127  H    0.037037
   128  H    0.031090
   129  H    0.022779
   130  H    0.028273
   131  H    0.046462
   132  H    0.030705
   133  H    0.034484
   134  H    0.048744
   135  H    0.033596
   136  H    0.021734
   137  H    0.029048
   138  H    0.034730
   139  H    0.039331
   140  H    0.026147
 Sum of Mulliken charges =  -0.00000

 Dipole moment (field-independent basis, Debye):
    X=             -5.1017    Y=              2.7139    Z=              1.4740  Tot=              5.9637
 Quadrupole moment (field-independent basis, Debye-Ang):
   XX=           -383.9866   YY=           -422.0815   ZZ=           -401.9181
   XY=             32.8000   XZ=             13.2489   YZ=             -1.6523

 Normal termination of Gaussian 16 at Sat Apr 30 18:21:56 2022.
