 Gaussian 16, Revision A.03,
 Gaussian 16:  ES64L-G16RevA.03 25-Dec-2016

 --------------------------------
 #p wB97XD/Def2SVP td=(nstates=5)
 --------------------------------

 ----------------------------------------------------
 step_851_chromophore_18 TDDFT with wB97XD functional
 ----------------------------------------------------
 Symbolic Z-matrix:
 Charge =  0 Multiplicity = 1

                         Standard orientation:
 ---------------------------------------------------------------------
 Center     Atomic      Atomic             Coordinates (Angstroms)
 Number     Number       Type             X           Y           Z
 ---------------------------------------------------------------------
      1         12           0        5.227409    1.140009    0.229721
      2          6           0        4.629862   -2.280778    0.314585
      3          6           0        1.717898    1.593333   -0.088935
      4          6           0        5.700115    4.459108   -0.291536
      5          6           0        8.624791    0.594128    0.111852
      6          7           0        3.426480   -0.153550    0.102414
      7          6           0        3.450823   -1.536029    0.339849
      8          6           0        2.045993   -2.092770    0.454363
      9          6           0        1.161852   -0.877685    0.095190
     10          6           0        2.150249    0.282573    0.041323
     11          6           0        0.191855   -0.953302   -1.065808
     12          6           0        1.761851   -2.819232    1.826756
     13          6           0        0.759895   -4.008129    1.828682
     14          6           0        0.071510   -4.450323    0.472853
     15          8           0        0.619236   -5.171100   -0.311562
     16          8           0       -1.163305   -3.875143    0.465706
     17          7           0        3.953276    2.779696   -0.246071
     18          6           0        2.555226    2.776709   -0.290713
     19          6           0        2.037870    4.140914   -0.289883
     20          6           0        3.203419    4.950701   -0.402004
     21          6           0        4.381350    4.040283   -0.295706
     22          6           0        0.576342    4.445713   -0.273015
     23          6           0        3.252384    6.552218   -0.405717
     24          8           0        4.279209    7.156047   -0.389187
     25          6           0        1.929606    7.340662   -0.383754
     26          7           0        6.965986    2.426825    0.173082
     27          6           0        6.887777    3.737400   -0.203130
     28          6           0        8.308472    4.335049   -0.467864
     29          6           0        9.231579    3.170128    0.007921
     30          6           0        8.255022    1.977945    0.191159
     31          6           0        8.675359    4.737218   -1.922799
     32          6           0        9.956138    3.192334    1.358909
     33          6           0        9.254641    3.820044    2.578430
     34          7           0        6.421698   -0.484046    0.126557
     35          6           0        7.796399   -0.559608    0.004304
     36          6           0        8.072983   -2.012017   -0.021330
     37          6           0        6.911902   -2.755499    0.129902
     38          6           0        5.917605   -1.732953    0.208077
     39          6           0        9.473837   -2.581144   -0.240640
     40          6           0        6.366732   -4.011420    0.186815
     41          8           0        6.892736   -5.106650    0.092891
     42          6           0        4.815927   -3.804478    0.458294
     43          6           0        4.163431   -4.571998   -0.579075
     44          8           0        3.979847   -4.239428   -1.712962
     45          8           0        3.937816   -5.807615   -0.052701
     46          6           0        3.550377   -6.820732   -1.056824
     47          6           0       -1.908449   -4.243358   -0.747139
     48          6           0       -2.917349   -3.063187   -0.976292
     49          6           0       -4.193522   -3.155115   -1.480395
     50          6           0       -4.737650   -4.440005   -2.115475
     51          6           0       -5.103496   -1.884538   -1.526949
     52          6           0       -6.117706   -1.901062   -0.379408
     53          6           0       -6.138707   -0.700095    0.537734
     54          6           0       -7.489710   -0.660806    1.244553
     55          6           0       -7.341478   -0.507286    2.769803
     56          6           0       -8.463672    0.444358    0.760239
     57          6           0       -9.788335   -0.017850    0.156369
     58          6           0      -10.879993   -0.463027    1.173174
     59          6           0      -12.175341    0.427951    1.080462
     60          6           0      -12.899799    0.418807    2.425473
     61          6           0      -13.216713    0.054053    0.020080
     62          6           0      -13.572159    1.354667   -0.867930
     63          6           0      -15.137881    1.461811   -1.103085
     64          6           0      -15.498874    2.788627   -0.491907
     65          6           0      -17.025527    2.853607   -0.031559
     66          6           0      -15.264389    3.976956   -1.526271
     67          1           0        0.644413    1.790513   -0.044289
     68          1           0        5.851941    5.503104   -0.572380
     69          1           0        9.676987    0.375490   -0.081320
     70          1           0        1.935308   -2.814506   -0.354528
     71          1           0        0.439461   -0.720575    0.895664
     72          1           0        0.469243   -0.286749   -1.883517
     73          1           0       -0.842307   -0.678544   -0.860175
     74          1           0        0.156805   -1.924327   -1.559773
     75          1           0        1.148714   -2.163783    2.444154
     76          1           0        2.661723   -3.115401    2.366338
     77          1           0        0.065041   -3.963193    2.666527
     78          1           0        1.532855   -4.769251    1.932115
     79          1           0       -0.010731    3.619930   -0.675050
     80          1           0        0.387971    5.202140   -1.035410
     81          1           0        0.271960    4.819273    0.705107
     82          1           0        2.180488    8.400688   -0.325858
     83          1           0        1.254211    7.023714    0.411258
     84          1           0        1.469424    7.055093   -1.328792
     85          1           0        8.328224    5.216559    0.171958
     86          1           0        9.803117    2.882235   -0.874974
     87          1           0        8.832873    5.801642   -2.098837
     88          1           0        7.882169    4.470059   -2.621391
     89          1           0        9.669115    4.389026   -2.205328
     90          1           0       10.925709    3.681054    1.263042
     91          1           0       10.166888    2.165164    1.655753
     92          1           0        9.349684    3.192612    3.463907
     93          1           0        8.198883    4.066710    2.465310
     94          1           0        9.784116    4.749422    2.787693
     95          1           0        9.383474   -3.667631   -0.229490
     96          1           0       10.119476   -2.277137    0.583617
     97          1           0        9.992177   -2.370331   -1.177329
     98          1           0        4.619406   -4.123379    1.481948
     99          1           0        4.460670   -6.940372   -1.645461
    100          1           0        2.757915   -6.547813   -1.753630
    101          1           0        3.287269   -7.812232   -0.688374
    102          1           0       -2.391346   -5.212042   -0.620639
    103          1           0       -1.196002   -4.354651   -1.563579
    104          1           0       -2.628694   -2.169737   -0.422834
    105          1           0       -5.583219   -4.763668   -1.508198
    106          1           0       -3.948496   -5.186762   -2.201368
    107          1           0       -5.070053   -4.205339   -3.126655
    108          1           0       -5.664423   -2.024814   -2.451215
    109          1           0       -4.464691   -1.001271   -1.515403
    110          1           0       -5.905252   -2.803172    0.193885
    111          1           0       -7.095745   -1.938766   -0.858660
    112          1           0       -5.933200    0.233333    0.013902
    113          1           0       -5.231076   -0.781823    1.134176
    114          1           0       -8.016525   -1.601627    1.090922
    115          1           0       -8.264325   -0.218725    3.272527
    116          1           0       -6.580407    0.249247    2.957947
    117          1           0       -6.995231   -1.446594    3.201444
    118          1           0       -7.982076    1.018826   -0.031837
    119          1           0       -8.587143    1.182066    1.553736
    120          1           0       -9.585777   -0.884981   -0.471728
    121          1           0      -10.216550    0.726551   -0.514706
    122          1           0      -10.490921   -0.620930    2.179064
    123          1           0      -11.244450   -1.469198    0.962136
    124          1           0      -11.776612    1.438271    0.992579
    125          1           0      -13.939999    0.744667    2.432335
    126          1           0      -12.329288    1.187573    2.947843
    127          1           0      -12.788221   -0.497845    3.004643
    128          1           0      -14.128218   -0.331002    0.477406
    129          1           0      -12.894348   -0.745434   -0.648113
    130          1           0      -13.195475    1.261110   -1.886642
    131          1           0      -13.139806    2.258915   -0.439932
    132          1           0      -15.557098    0.590277   -0.600738
    133          1           0      -15.249829    1.329868   -2.178717
    134          1           0      -14.902010    3.040062    0.384985
    135          1           0      -17.152775    3.377879    0.915799
    136          1           0      -17.458426    1.863046    0.109314
    137          1           0      -17.727746    3.300543   -0.735531
    138          1           0      -14.660591    3.577222   -2.340962
    139          1           0      -14.949046    4.934955   -1.112036
    140          1           0      -16.216822    4.266074   -1.971679
 ---------------------------------------------------------------------

 SCF Done:  E(RwB97XD) =  -3007.86915451     A.U. after   19 cycles

 Excitation energies and oscillator strengths:

 Excited State   1:      Singlet-A      1.6329 eV  759.30 nm  f=0.3740  <S**2>=0.000
     245 -> 248       -0.18953
     246 -> 247        0.68299
     245 <- 248       -0.11962
 This state for optimization and/or second-order correction.
 Total Energy, E(TD-HF/TD-DFT) =  -3007.80914744
 Copying the excited state density for this state as the 1-particle RhoCI density.

 Excited State   2:      Singlet-A      2.1925 eV  565.50 nm  f=0.0930  <S**2>=0.000
     245 -> 247        0.62922
     246 -> 248        0.31227

 Excited State   3:      Singlet-A      3.5088 eV  353.35 nm  f=0.6362  <S**2>=0.000
     242 -> 247       -0.22619
     244 -> 247       -0.16366
     245 -> 247       -0.27007
     246 -> 248        0.58350
     245 <- 247        0.11162

 Excited State   4:      Singlet-A      3.5708 eV  347.22 nm  f=0.0690  <S**2>=0.000
     241 -> 247       -0.12118
     241 -> 249        0.16955
     244 -> 247        0.62586
     246 -> 248        0.14429

 Excited State   5:      Singlet-A      3.6408 eV  340.54 nm  f=0.0439  <S**2>=0.000
     241 -> 247        0.51134
     241 -> 249       -0.35372
     241 -> 250        0.11657
     244 -> 247        0.17111
     246 -> 248        0.11463

 The electronic state is 1-A.
 Alpha  occ. eigenvalues --  -46.94666 -19.31496 -19.28744 -19.26004 -19.24618
 Alpha  occ. eigenvalues --  -19.23608 -19.23478 -14.46441 -14.46340 -14.44081
 Alpha  occ. eigenvalues --  -14.43862 -10.43721 -10.41328 -10.39696 -10.38265
 Alpha  occ. eigenvalues --  -10.36502 -10.34979 -10.34722 -10.34640 -10.34429
 Alpha  occ. eigenvalues --  -10.34287 -10.33860 -10.33807 -10.33422 -10.32635
 Alpha  occ. eigenvalues --  -10.32396 -10.32312 -10.32152 -10.32014 -10.31648
 Alpha  occ. eigenvalues --  -10.31533 -10.31511 -10.31435 -10.31414 -10.31355
 Alpha  occ. eigenvalues --  -10.31242 -10.31242 -10.31212 -10.30888 -10.30656
 Alpha  occ. eigenvalues --  -10.30610 -10.30602 -10.30396 -10.30335 -10.30274
 Alpha  occ. eigenvalues --  -10.30130 -10.29810 -10.29673 -10.29578 -10.29562
 Alpha  occ. eigenvalues --  -10.29405 -10.29286 -10.29182 -10.29177 -10.29096
 Alpha  occ. eigenvalues --  -10.29019 -10.28994 -10.28983 -10.28906 -10.28875
 Alpha  occ. eigenvalues --  -10.28729 -10.28482 -10.28467 -10.28367 -10.27970
 Alpha  occ. eigenvalues --  -10.27926  -3.20633  -1.94232  -1.93726  -1.93630
 Alpha  occ. eigenvalues --   -1.19822  -1.17800  -1.14434  -1.12382  -1.11949
 Alpha  occ. eigenvalues --   -1.09500  -1.05802  -1.05041  -1.04829  -1.04013
 Alpha  occ. eigenvalues --   -0.94589  -0.92802  -0.91462  -0.90955  -0.90731
 Alpha  occ. eigenvalues --   -0.90565  -0.89977  -0.89283  -0.89060  -0.88703
 Alpha  occ. eigenvalues --   -0.87513  -0.87082  -0.86296  -0.85404  -0.85017
 Alpha  occ. eigenvalues --   -0.84080  -0.83530  -0.82845  -0.82424  -0.81975
 Alpha  occ. eigenvalues --   -0.81792  -0.80057  -0.79532  -0.78910  -0.78225
 Alpha  occ. eigenvalues --   -0.77193  -0.76938  -0.76708  -0.76656  -0.76101
 Alpha  occ. eigenvalues --   -0.75466  -0.74194  -0.73514  -0.71899  -0.71301
 Alpha  occ. eigenvalues --   -0.70826  -0.69788  -0.68565  -0.68344  -0.67815
 Alpha  occ. eigenvalues --   -0.67263  -0.66500  -0.66351  -0.66275  -0.66082
 Alpha  occ. eigenvalues --   -0.65846  -0.65822  -0.64733  -0.63196  -0.61943
 Alpha  occ. eigenvalues --   -0.61877  -0.61492  -0.60694  -0.60111  -0.60012
 Alpha  occ. eigenvalues --   -0.59368  -0.58597  -0.58246  -0.57725  -0.57369
 Alpha  occ. eigenvalues --   -0.57060  -0.57041  -0.56764  -0.56475  -0.55944
 Alpha  occ. eigenvalues --   -0.55602  -0.55449  -0.54900  -0.54805  -0.54741
 Alpha  occ. eigenvalues --   -0.54531  -0.54462  -0.54159  -0.53838  -0.53421
 Alpha  occ. eigenvalues --   -0.53302  -0.52953  -0.52863  -0.52707  -0.52433
 Alpha  occ. eigenvalues --   -0.52116  -0.52045  -0.51677  -0.51528  -0.51348
 Alpha  occ. eigenvalues --   -0.51314  -0.51132  -0.50995  -0.50774  -0.50732
 Alpha  occ. eigenvalues --   -0.50417  -0.50196  -0.50010  -0.49908  -0.49782
 Alpha  occ. eigenvalues --   -0.49464  -0.49252  -0.49201  -0.48553  -0.48466
 Alpha  occ. eigenvalues --   -0.48174  -0.48029  -0.47866  -0.47755  -0.47192
 Alpha  occ. eigenvalues --   -0.47162  -0.47027  -0.46888  -0.46778  -0.46740
 Alpha  occ. eigenvalues --   -0.46430  -0.46280  -0.46089  -0.45875  -0.45817
 Alpha  occ. eigenvalues --   -0.45791  -0.45519  -0.45345  -0.45159  -0.45032
 Alpha  occ. eigenvalues --   -0.44801  -0.44663  -0.44539  -0.44362  -0.43894
 Alpha  occ. eigenvalues --   -0.43765  -0.43636  -0.43256  -0.43166  -0.42859
 Alpha  occ. eigenvalues --   -0.42790  -0.42556  -0.42493  -0.42088  -0.41936
 Alpha  occ. eigenvalues --   -0.41327  -0.41251  -0.41101  -0.40898  -0.40724
 Alpha  occ. eigenvalues --   -0.40479  -0.40101  -0.39732  -0.39416  -0.39167
 Alpha  occ. eigenvalues --   -0.39001  -0.38918  -0.38516  -0.38476  -0.38328
 Alpha  occ. eigenvalues --   -0.37908  -0.37406  -0.37231  -0.36424  -0.36148
 Alpha  occ. eigenvalues --   -0.35955  -0.35580  -0.35023  -0.33346  -0.32993
 Alpha  occ. eigenvalues --   -0.32669  -0.32389  -0.32164  -0.32065  -0.25682
 Alpha  occ. eigenvalues --   -0.22448
 Alpha virt. eigenvalues --   -0.06575   0.00432   0.02568   0.05036   0.06053
 Alpha virt. eigenvalues --    0.06984   0.07449   0.08662   0.09283   0.10096
 Alpha virt. eigenvalues --    0.10660   0.11549   0.12091   0.12347   0.12824

 Mulliken charges:
               1
     1  Mg   0.966822
     2  C   -0.044257
     3  C   -0.100396
     4  C   -0.060529
     5  C   -0.060357
     6  N   -0.358220
     7  C    0.009147
     8  C   -0.059604
     9  C   -0.083732
    10  C    0.106682
    11  C    0.009986
    12  C    0.021638
    13  C   -0.011251
    14  C    0.181512
    15  O   -0.227037
    16  O   -0.352077
    17  N   -0.423410
    18  C    0.130398
    19  C   -0.183425
    20  C   -0.105130
    21  C    0.143356
    22  C    0.066207
    23  C    0.060088
    24  O   -0.199238
    25  C   -0.019423
    26  N   -0.354623
    27  C    0.024294
    28  C   -0.060782
    29  C   -0.047488
    30  C    0.013239
    31  C    0.018387
    32  C    0.003101
    33  C   -0.057704
    34  N   -0.479442
    35  C    0.134111
    36  C   -0.190806
    37  C    0.056793
    38  C    0.156976
    39  C    0.043887
    40  C    0.043316
    41  O   -0.198514
    42  C   -0.082836
    43  C    0.261014
    44  O   -0.228193
    45  O   -0.358184
    46  C    0.146906
    47  C    0.201925
    48  C   -0.116329
    49  C   -0.251790
    50  C    0.037954
    51  C    0.063869
    52  C   -0.063158
    53  C    0.038154
    54  C   -0.178099
    55  C   -0.010727
    56  C    0.031350
    57  C   -0.021695
    58  C    0.004673
    59  C   -0.201926
    60  C   -0.010426
    61  C    0.046261
    62  C   -0.078860
    63  C    0.011954
    64  C   -0.207865
    65  C   -0.014753
    66  C   -0.009494
    67  H   -0.008317
    68  H    0.022265
    69  H    0.011276
    70  H    0.064315
    71  H    0.027369
    72  H    0.031399
    73  H    0.028034
    74  H    0.035325
    75  H    0.029128
    76  H    0.045755
    77  H    0.057899
    78  H    0.049027
    79  H    0.046104
    80  H    0.032665
    81  H    0.068838
    82  H    0.061220
    83  H    0.054372
    84  H    0.056893
    85  H    0.041210
    86  H    0.028749
    87  H    0.030596
    88  H    0.050820
    89  H    0.035192
    90  H    0.028509
    91  H    0.030861
    92  H    0.038824
    93  H    0.045588
    94  H    0.034949
    95  H    0.048647
    96  H    0.041498
    97  H    0.051205
    98  H    0.079211
    99  H    0.043846
   100  H    0.060187
   101  H    0.049154
   102  H    0.054473
   103  H    0.066139
   104  H    0.027598
   105  H    0.050707
   106  H    0.037955
   107  H    0.046810
   108  H    0.019656
   109  H    0.032281
   110  H    0.040802
   111  H    0.025161
   112  H    0.009216
   113  H    0.013255
   114  H    0.023604
   115  H    0.031115
   116  H    0.026658
   117  H    0.026593
   118  H    0.004507
   119  H    0.011372
   120  H    0.014364
   121  H    0.025312
   122  H    0.009872
   123  H    0.004003
   124  H    0.024413
   125  H    0.031160
   126  H    0.014476
   127  H    0.031249
   128  H    0.020627
   129  H    0.015706
   130  H    0.020430
   131  H    0.034204
   132  H    0.020142
   133  H    0.027716
   134  H    0.036375
   135  H    0.028276
   136  H    0.015316
   137  H    0.022344
   138  H    0.027736
   139  H    0.034933
   140  H    0.018611
 Sum of Mulliken charges =  -0.00000

 Dipole moment (field-independent basis, Debye):
    X=             -5.3499    Y=              2.9268    Z=              1.4811  Tot=              6.2754
 Quadrupole moment (field-independent basis, Debye-Ang):
   XX=           -385.7947   YY=           -420.1639   ZZ=           -401.5011
   XY=             32.7241   XZ=             13.2601   YZ=             -1.7971

 Normal termination of Gaussian 16 at Sat Apr 30 18:49:04 2022.
