 Gaussian 16, Revision A.03,
 Gaussian 16:  ES64L-G16RevA.03 25-Dec-2016

 --------------------
 #p ZINDO=(nstates=5)
 --------------------

 -----------------------------
 step_851_chromophore_18 ZINDO
 -----------------------------
 Symbolic Z-matrix:
 Charge =  0 Multiplicity = 1

                         Standard orientation:
 ---------------------------------------------------------------------
 Center     Atomic      Atomic             Coordinates (Angstroms)
 Number     Number       Type             X           Y           Z
 ---------------------------------------------------------------------
      1         12           0        5.227409    1.140009    0.229721
      2          6           0        4.629862   -2.280778    0.314585
      3          6           0        1.717898    1.593333   -0.088935
      4          6           0        5.700115    4.459108   -0.291536
      5          6           0        8.624791    0.594128    0.111852
      6          7           0        3.426480   -0.153550    0.102414
      7          6           0        3.450823   -1.536029    0.339849
      8          6           0        2.045993   -2.092770    0.454363
      9          6           0        1.161852   -0.877685    0.095190
     10          6           0        2.150249    0.282573    0.041323
     11          6           0        0.191855   -0.953302   -1.065808
     12          6           0        1.761851   -2.819232    1.826756
     13          6           0        0.759895   -4.008129    1.828682
     14          6           0        0.071510   -4.450323    0.472853
     15          8           0        0.619236   -5.171100   -0.311562
     16          8           0       -1.163305   -3.875143    0.465706
     17          7           0        3.953276    2.779696   -0.246071
     18          6           0        2.555226    2.776709   -0.290713
     19          6           0        2.037870    4.140914   -0.289883
     20          6           0        3.203419    4.950701   -0.402004
     21          6           0        4.381350    4.040283   -0.295706
     22          6           0        0.576342    4.445713   -0.273015
     23          6           0        3.252384    6.552218   -0.405717
     24          8           0        4.279209    7.156047   -0.389187
     25          6           0        1.929606    7.340662   -0.383754
     26          7           0        6.965986    2.426825    0.173082
     27          6           0        6.887777    3.737400   -0.203130
     28          6           0        8.308472    4.335049   -0.467864
     29          6           0        9.231579    3.170128    0.007921
     30          6           0        8.255022    1.977945    0.191159
     31          6           0        8.675359    4.737218   -1.922799
     32          6           0        9.956138    3.192334    1.358909
     33          6           0        9.254641    3.820044    2.578430
     34          7           0        6.421698   -0.484046    0.126557
     35          6           0        7.796399   -0.559608    0.004304
     36          6           0        8.072983   -2.012017   -0.021330
     37          6           0        6.911902   -2.755499    0.129902
     38          6           0        5.917605   -1.732953    0.208077
     39          6           0        9.473837   -2.581144   -0.240640
     40          6           0        6.366732   -4.011420    0.186815
     41          8           0        6.892736   -5.106650    0.092891
     42          6           0        4.815927   -3.804478    0.458294
     43          6           0        4.163431   -4.571998   -0.579075
     44          8           0        3.979847   -4.239428   -1.712962
     45          8           0        3.937816   -5.807615   -0.052701
     46          6           0        3.550377   -6.820732   -1.056824
     47          6           0       -1.908449   -4.243358   -0.747139
     48          6           0       -2.917349   -3.063187   -0.976292
     49          6           0       -4.193522   -3.155115   -1.480395
     50          6           0       -4.737650   -4.440005   -2.115475
     51          6           0       -5.103496   -1.884538   -1.526949
     52          6           0       -6.117706   -1.901062   -0.379408
     53          6           0       -6.138707   -0.700095    0.537734
     54          6           0       -7.489710   -0.660806    1.244553
     55          6           0       -7.341478   -0.507286    2.769803
     56          6           0       -8.463672    0.444358    0.760239
     57          6           0       -9.788335   -0.017850    0.156369
     58          6           0      -10.879993   -0.463027    1.173174
     59          6           0      -12.175341    0.427951    1.080462
     60          6           0      -12.899799    0.418807    2.425473
     61          6           0      -13.216713    0.054053    0.020080
     62          6           0      -13.572159    1.354667   -0.867930
     63          6           0      -15.137881    1.461811   -1.103085
     64          6           0      -15.498874    2.788627   -0.491907
     65          6           0      -17.025527    2.853607   -0.031559
     66          6           0      -15.264389    3.976956   -1.526271
     67          1           0        0.644413    1.790513   -0.044289
     68          1           0        5.851941    5.503104   -0.572380
     69          1           0        9.676987    0.375490   -0.081320
     70          1           0        1.935308   -2.814506   -0.354528
     71          1           0        0.439461   -0.720575    0.895664
     72          1           0        0.469243   -0.286749   -1.883517
     73          1           0       -0.842307   -0.678544   -0.860175
     74          1           0        0.156805   -1.924327   -1.559773
     75          1           0        1.148714   -2.163783    2.444154
     76          1           0        2.661723   -3.115401    2.366338
     77          1           0        0.065041   -3.963193    2.666527
     78          1           0        1.532855   -4.769251    1.932115
     79          1           0       -0.010731    3.619930   -0.675050
     80          1           0        0.387971    5.202140   -1.035410
     81          1           0        0.271960    4.819273    0.705107
     82          1           0        2.180488    8.400688   -0.325858
     83          1           0        1.254211    7.023714    0.411258
     84          1           0        1.469424    7.055093   -1.328792
     85          1           0        8.328224    5.216559    0.171958
     86          1           0        9.803117    2.882235   -0.874974
     87          1           0        8.832873    5.801642   -2.098837
     88          1           0        7.882169    4.470059   -2.621391
     89          1           0        9.669115    4.389026   -2.205328
     90          1           0       10.925709    3.681054    1.263042
     91          1           0       10.166888    2.165164    1.655753
     92          1           0        9.349684    3.192612    3.463907
     93          1           0        8.198883    4.066710    2.465310
     94          1           0        9.784116    4.749422    2.787693
     95          1           0        9.383474   -3.667631   -0.229490
     96          1           0       10.119476   -2.277137    0.583617
     97          1           0        9.992177   -2.370331   -1.177329
     98          1           0        4.619406   -4.123379    1.481948
     99          1           0        4.460670   -6.940372   -1.645461
    100          1           0        2.757915   -6.547813   -1.753630
    101          1           0        3.287269   -7.812232   -0.688374
    102          1           0       -2.391346   -5.212042   -0.620639
    103          1           0       -1.196002   -4.354651   -1.563579
    104          1           0       -2.628694   -2.169737   -0.422834
    105          1           0       -5.583219   -4.763668   -1.508198
    106          1           0       -3.948496   -5.186762   -2.201368
    107          1           0       -5.070053   -4.205339   -3.126655
    108          1           0       -5.664423   -2.024814   -2.451215
    109          1           0       -4.464691   -1.001271   -1.515403
    110          1           0       -5.905252   -2.803172    0.193885
    111          1           0       -7.095745   -1.938766   -0.858660
    112          1           0       -5.933200    0.233333    0.013902
    113          1           0       -5.231076   -0.781823    1.134176
    114          1           0       -8.016525   -1.601627    1.090922
    115          1           0       -8.264325   -0.218725    3.272527
    116          1           0       -6.580407    0.249247    2.957947
    117          1           0       -6.995231   -1.446594    3.201444
    118          1           0       -7.982076    1.018826   -0.031837
    119          1           0       -8.587143    1.182066    1.553736
    120          1           0       -9.585777   -0.884981   -0.471728
    121          1           0      -10.216550    0.726551   -0.514706
    122          1           0      -10.490921   -0.620930    2.179064
    123          1           0      -11.244450   -1.469198    0.962136
    124          1           0      -11.776612    1.438271    0.992579
    125          1           0      -13.939999    0.744667    2.432335
    126          1           0      -12.329288    1.187573    2.947843
    127          1           0      -12.788221   -0.497845    3.004643
    128          1           0      -14.128218   -0.331002    0.477406
    129          1           0      -12.894348   -0.745434   -0.648113
    130          1           0      -13.195475    1.261110   -1.886642
    131          1           0      -13.139806    2.258915   -0.439932
    132          1           0      -15.557098    0.590277   -0.600738
    133          1           0      -15.249829    1.329868   -2.178717
    134          1           0      -14.902010    3.040062    0.384985
    135          1           0      -17.152775    3.377879    0.915799
    136          1           0      -17.458426    1.863046    0.109314
    137          1           0      -17.727746    3.300543   -0.735531
    138          1           0      -14.660591    3.577222   -2.340962
    139          1           0      -14.949046    4.934955   -1.112036
    140          1           0      -16.216822    4.266074   -1.971679
 ---------------------------------------------------------------------

 SCF Done:  E(RZINDO/S) =  -474.296982212     A.U. after   20 cycles

 Excitation energies and oscillator strengths:

 Excited State   1:      Singlet-A      1.2369 eV 1002.36 nm  f=0.6034  <S**2>=0.000
     175 ->178        -0.19784
     176 ->177         0.66188
 This state for optimization and/or second-order correction.
 Total Energy, E(CIS/TDA) =  -474.251526361
 Copying the excited state density for this state as the 1-particle RhoCI density.

 Excited State   2:      Singlet-A      1.9229 eV  644.76 nm  f=0.0215  <S**2>=0.000
     175 ->177         0.52854
     176 ->178         0.44954

 Excited State   3:      Singlet-A      2.9249 eV  423.89 nm  f=0.0997  <S**2>=0.000
     169 ->177        -0.16668
     169 ->179         0.23025
     170 ->179        -0.11260
     175 ->177        -0.13739
     176 ->178         0.18138
     176 ->179         0.52535

 Excited State   4:      Singlet-A      2.9616 eV  418.63 nm  f=0.0346  <S**2>=0.000
     169 ->177         0.28186
     169 ->179        -0.39070
     169 ->180         0.17493
     169 ->186        -0.11739
     169 ->187        -0.11739
     169 ->203         0.11441
     176 ->178         0.11104
     176 ->179         0.33747

 Excited State   5:      Singlet-A      3.0407 eV  407.75 nm  f=1.2394  <S**2>=0.000
     175 ->177        -0.39035
     176 ->178         0.46672
     176 ->179        -0.25515

 The electronic state is 1-A.
 Alpha  occ. eigenvalues --   -1.84357  -1.80103  -1.79190  -1.73794  -1.73576
 Alpha  occ. eigenvalues --   -1.70059  -1.65821  -1.61687  -1.59631  -1.58442
 Alpha  occ. eigenvalues --   -1.54795  -1.51909  -1.49355  -1.49029  -1.45925
 Alpha  occ. eigenvalues --   -1.44056  -1.43261  -1.39743  -1.38579  -1.37823
 Alpha  occ. eigenvalues --   -1.36583  -1.32314  -1.31979  -1.31243  -1.29787
 Alpha  occ. eigenvalues --   -1.28550  -1.24500  -1.21826  -1.19519  -1.17894
 Alpha  occ. eigenvalues --   -1.17595  -1.14804  -1.14590  -1.14466  -1.13112
 Alpha  occ. eigenvalues --   -1.12975  -1.10678  -1.10157  -1.05166  -1.03025
 Alpha  occ. eigenvalues --   -1.02934  -1.00775  -0.98004  -0.97236  -0.96083
 Alpha  occ. eigenvalues --   -0.95937  -0.94138  -0.93621  -0.92779  -0.92313
 Alpha  occ. eigenvalues --   -0.91660  -0.90677  -0.88617  -0.87539  -0.87228
 Alpha  occ. eigenvalues --   -0.85377  -0.84772  -0.83010  -0.81565  -0.80407
 Alpha  occ. eigenvalues --   -0.79626  -0.78299  -0.77858  -0.76573  -0.75819
 Alpha  occ. eigenvalues --   -0.75628  -0.75092  -0.74949  -0.74508  -0.73751
 Alpha  occ. eigenvalues --   -0.72928  -0.72563  -0.72004  -0.71464  -0.70963
 Alpha  occ. eigenvalues --   -0.70284  -0.69199  -0.68968  -0.68709  -0.68200
 Alpha  occ. eigenvalues --   -0.67282  -0.66808  -0.66564  -0.66297  -0.65553
 Alpha  occ. eigenvalues --   -0.65361  -0.64443  -0.63835  -0.63199  -0.62920
 Alpha  occ. eigenvalues --   -0.62709  -0.62573  -0.62368  -0.62251  -0.61743
 Alpha  occ. eigenvalues --   -0.61631  -0.61296  -0.61063  -0.60301  -0.60133
 Alpha  occ. eigenvalues --   -0.59652  -0.59305  -0.58577  -0.58449  -0.57943
 Alpha  occ. eigenvalues --   -0.57716  -0.57673  -0.57260  -0.56563  -0.56290
 Alpha  occ. eigenvalues --   -0.55608  -0.55209  -0.54930  -0.54636  -0.54513
 Alpha  occ. eigenvalues --   -0.54186  -0.53997  -0.53669  -0.52841  -0.52514
 Alpha  occ. eigenvalues --   -0.52288  -0.52209  -0.51901  -0.51641  -0.51481
 Alpha  occ. eigenvalues --   -0.51418  -0.50929  -0.50722  -0.50153  -0.49984
 Alpha  occ. eigenvalues --   -0.49686  -0.49402  -0.49257  -0.49020  -0.48865
 Alpha  occ. eigenvalues --   -0.48741  -0.48471  -0.48055  -0.47917  -0.47712
 Alpha  occ. eigenvalues --   -0.47044  -0.46895  -0.46639  -0.46413  -0.46247
 Alpha  occ. eigenvalues --   -0.45964  -0.45932  -0.45454  -0.45359  -0.45261
 Alpha  occ. eigenvalues --   -0.45104  -0.44441  -0.44249  -0.44242  -0.43746
 Alpha  occ. eigenvalues --   -0.43684  -0.43277  -0.43241  -0.42702  -0.42328
 Alpha  occ. eigenvalues --   -0.42011  -0.41248  -0.40688  -0.38731  -0.38294
 Alpha  occ. eigenvalues --   -0.37428  -0.36894  -0.35164  -0.34644  -0.34365
 Alpha  occ. eigenvalues --   -0.33061  -0.32746  -0.32236  -0.32194  -0.26411
 Alpha  occ. eigenvalues --   -0.21245
 Alpha virt. eigenvalues --   -0.08074  -0.01811  -0.00282   0.01873   0.02468
 Alpha virt. eigenvalues --    0.02680   0.03120   0.04087   0.04162   0.05330
 Alpha virt. eigenvalues --    0.06475   0.07349   0.07487   0.08118   0.08549

 Mulliken charges:
               1
     1  Mg   0.420205
     2  C   -0.049173
     3  C   -0.093357
     4  C   -0.058958
     5  C   -0.067690
     6  N   -0.291803
     7  C    0.119020
     8  C    0.009091
     9  C    0.009957
    10  C    0.146096
    11  C   -0.047633
    12  C   -0.023249
    13  C   -0.022511
    14  C    0.470495
    15  O   -0.497031
    16  O   -0.264437
    17  N   -0.312431
    18  C    0.091223
    19  C    0.004309
    20  C   -0.065120
    21  C    0.150064
    22  C   -0.039177
    23  C    0.319971
    24  O   -0.499862
    25  C   -0.032137
    26  N   -0.267909
    27  C    0.127697
    28  C    0.009996
    29  C    0.005393
    30  C    0.118516
    31  C   -0.052437
    32  C   -0.015410
    33  C   -0.054027
    34  N   -0.311597
    35  C    0.077762
    36  C    0.044133
    37  C   -0.044615
    38  C    0.118539
    39  C   -0.049685
    40  C    0.347970
    41  O   -0.525258
    42  C    0.052350
    43  C    0.506167
    44  O   -0.520549
    45  O   -0.265848
    46  C    0.070346
    47  C    0.095242
    48  C   -0.114279
    49  C   -0.008476
    50  C   -0.041141
    51  C   -0.026686
    52  C   -0.028260
    53  C   -0.024938
    54  C   -0.005048
    55  C   -0.056994
    56  C   -0.029210
    57  C   -0.030481
    58  C   -0.040719
    59  C   -0.008429
    60  C   -0.062142
    61  C   -0.031807
    62  C   -0.057041
    63  C   -0.032836
    64  C   -0.001383
    65  C   -0.070647
    66  C   -0.067252
    67  H    0.028238
    68  H    0.040720
    69  H    0.023845
    70  H    0.047905
    71  H    0.019878
    72  H    0.015216
    73  H    0.019122
    74  H    0.023601
    75  H    0.017728
    76  H    0.033182
    77  H    0.043039
    78  H    0.032709
    79  H    0.029300
    80  H    0.020136
    81  H    0.040335
    82  H    0.041799
    83  H    0.036806
    84  H    0.037244
    85  H    0.035133
    86  H    0.034724
    87  H    0.016272
    88  H    0.029662
    89  H    0.022930
    90  H    0.012323
    91  H    0.020953
    92  H    0.019716
    93  H    0.027391
    94  H    0.014601
    95  H    0.026342
    96  H    0.025250
    97  H    0.033377
    98  H    0.057150
    99  H    0.035242
   100  H    0.050287
   101  H    0.033363
   102  H    0.046778
   103  H    0.056975
   104  H    0.032183
   105  H    0.033886
   106  H    0.027854
   107  H    0.026754
   108  H    0.022477
   109  H    0.030950
   110  H    0.026605
   111  H    0.016945
   112  H    0.017130
   113  H    0.017346
   114  H    0.020122
   115  H    0.019255
   116  H    0.016588
   117  H    0.011006
   118  H    0.005412
   119  H    0.019748
   120  H    0.013394
   121  H    0.019737
   122  H    0.024094
   123  H    0.008699
   124  H    0.022305
   125  H    0.020367
   126  H    0.003170
   127  H    0.021733
   128  H    0.025384
   129  H    0.016181
   130  H    0.012754
   131  H    0.029701
   132  H    0.022170
   133  H    0.027671
   134  H    0.028790
   135  H    0.015288
   136  H    0.010465
   137  H    0.019471
   138  H    0.022278
   139  H    0.025131
   140  H    0.012816
 Sum of Mulliken charges =  -0.00000

 Dipole moment (field-independent basis, Debye):
    X=             -6.8875    Y=              3.8056    Z=              3.3840  Tot=              8.5657
 N-N= 4.317701660327D+03 E-N= 0.000000000000D+00  KE=-9.310212258829D+03
 Leave Link  601 at Sat Apr 30 19:00:48 2022, MaxMem=  6710886400 cpu:               1.1 elap:               0.1
 (Enter /sw/apps/gaussian-16.0/g16/l9999.exe)
 1\1\GINC-BP1-COMPUTE103\SP\RZINDO CIS\STO-3G\C55H74Mg1N4O6\OF15641\30-
 Apr-2022\0\\#p ZINDO=(nstates=5)\\step_851_chromophore_18 ZINDO\\0,1\M
 g,0,34.871,49.709,25.871\C,0,35.048,47.793,28.763\C,0,33.151,52.162,27
 .781\C,0,34.256,51.483,23.045\C,0,36.157,47.112,24.012\N,0,34.171,49.9
 41,27.966\C,0,34.533,49.067,29.002\C,0,34.138,49.631,30.352\C,0,33.342
 ,50.901,29.977\C,0,33.569,51.037,28.475\C,0,31.906,51.066,30.43\C,0,35
 .351,49.8,31.348\C,0,35.074,49.635,32.869\C,0,33.607,49.301,33.363\O,0

 Normal termination of Gaussian 16 at Sat Apr 30 19:00:48 2022.
