 Gaussian 16, Revision A.03,
 Gaussian 16:  ES64L-G16RevA.03 25-Dec-2016

 ------------------------------
 #p blyp/Def2SVP td=(nstates=5)
 ------------------------------

 ---------------------------------------------------
 step_1251_chromophore_12 TDDFT with blyp functional
 ---------------------------------------------------
 Symbolic Z-matrix:
 Charge =  0 Multiplicity = 1

                         Standard orientation:
 ---------------------------------------------------------------------
 Center     Atomic      Atomic             Coordinates (Angstroms)
 Number     Number       Type             X           Y           Z
 ---------------------------------------------------------------------
      1         12           0       -4.093982    0.641582   -0.214815
      2          6           0       -3.517089   -2.769848    0.605137
      3          6           0       -0.700859    1.059165    0.319121
      4          6           0       -4.555435    3.793314   -0.748037
      5          6           0       -7.439688   -0.097186   -0.293812
      6          7           0       -2.320706   -0.786006    0.237974
      7          6           0       -2.313113   -2.091248    0.534310
      8          6           0       -0.922365   -2.685412    0.592623
      9          6           0       -0.082569   -1.398374    0.867379
     10          6           0       -1.061151   -0.296799    0.391109
     11          6           0        0.435535   -1.154594    2.352268
     12          6           0       -0.519491   -3.446754   -0.720160
     13          6           0        0.409585   -4.675049   -0.523643
     14          6           0        1.507604   -4.818106   -1.604873
     15          8           0        1.350607   -5.019687   -2.795274
     16          8           0        2.741943   -4.610347   -1.068593
     17          7           0       -2.764266    2.214544   -0.396637
     18          6           0       -1.412658    2.151019   -0.045825
     19          6           0       -0.923358    3.552144    0.056218
     20          6           0       -1.993326    4.380085   -0.357941
     21          6           0       -3.168524    3.500556   -0.558270
     22          6           0        0.480962    3.971740    0.250012
     23          6           0       -2.030991    5.823030   -0.561135
     24          8           0       -2.972338    6.428392   -1.005640
     25          6           0       -0.798682    6.750351   -0.330817
     26          7           0       -5.805884    1.609648   -0.822278
     27          6           0       -5.766755    2.993899   -0.820918
     28          6           0       -7.193601    3.566153   -1.075676
     29          6           0       -8.102048    2.294291   -1.034371
     30          6           0       -7.052956    1.127108   -0.794965
     31          6           0       -7.567260    4.686164   -0.169146
     32          6           0       -8.869656    2.199760   -2.409546
     33          6           0       -8.054051    2.062690   -3.730314
     34          7           0       -5.287085   -1.059650    0.068286
     35          6           0       -6.609597   -1.206907    0.044364
     36          6           0       -7.001465   -2.489610    0.464981
     37          6           0       -5.806847   -3.181187    0.646558
     38          6           0       -4.754880   -2.246651    0.355698
     39          6           0       -8.404132   -2.885120    0.723270
     40          6           0       -5.218624   -4.396536    1.031692
     41          8           0       -5.759180   -5.409411    1.404991
     42          6           0       -3.654870   -4.170113    0.963221
     43          6           0       -3.119681   -4.484226    2.301595
     44          8           0       -3.366990   -3.820328    3.294850
     45          8           0       -2.233850   -5.472619    2.264569
     46          6           0       -1.503369   -5.776804    3.508590
     47          6           0        3.899786   -4.707658   -1.902593
     48          6           0        5.152145   -4.612313   -1.051550
     49          6           0        6.381198   -4.756579   -1.468456
     50          6           0        6.822381   -5.086713   -2.906592
     51          6           0        7.590028   -4.664924   -0.538006
     52          6           0        7.884558   -3.221881   -0.159863
     53          6           0        9.340478   -2.874175   -0.372821
     54          6           0        9.496857   -1.409238   -0.914637
     55          6           0       10.976899   -1.166493   -1.142510
     56          6           0        8.987250   -0.325117    0.048321
     57          6           0        8.566175    1.048218   -0.572912
     58          6           0        8.934760    2.326246    0.286312
     59          6           0        7.761378    3.386081    0.166537
     60          6           0        8.167530    4.261644   -1.072237
     61          6           0        7.672153    4.256783    1.444670
     62          6           0        6.265247    4.350114    2.023150
     63          6           0        5.361976    5.162152    1.127747
     64          6           0        4.794603    6.352820    1.852714
     65          6           0        3.760113    5.799323    2.855508
     66          6           0        4.449516    7.463562    0.894631
     67          1           0        0.354854    1.227759    0.541490
     68          1           0       -4.709246    4.856198   -0.947559
     69          1           0       -8.518855   -0.258714   -0.259428
     70          1           0       -0.928662   -3.317290    1.480332
     71          1           0        0.828097   -1.518990    0.280907
     72          1           0       -0.255891   -0.475527    2.850795
     73          1           0        1.459051   -0.779427    2.375736
     74          1           0        0.461089   -2.128781    2.839588
     75          1           0       -0.121082   -2.781904   -1.486204
     76          1           0       -1.396526   -3.873006   -1.206636
     77          1           0       -0.258652   -5.534453   -0.581266
     78          1           0        0.839456   -4.826802    0.466978
     79          1           0        0.615467    4.882093    0.833680
     80          1           0        0.981369    4.070092   -0.713001
     81          1           0        0.965599    3.197691    0.845562
     82          1           0       -0.234379    6.705615    0.601280
     83          1           0       -0.892457    7.822253   -0.504352
     84          1           0       -0.075434    6.418795   -1.075092
     85          1           0       -7.205595    3.900361   -2.113745
     86          1           0       -8.820342    2.329599   -0.214823
     87          1           0       -6.694397    5.083831    0.349354
     88          1           0       -8.338501    4.370893    0.533051
     89          1           0       -8.000102    5.486272   -0.769912
     90          1           0       -9.531527    3.065291   -2.424223
     91          1           0       -9.525744    1.336441   -2.294397
     92          1           0       -6.978681    2.212182   -3.640349
     93          1           0       -8.266340    2.866686   -4.435404
     94          1           0       -8.253947    1.104305   -4.209240
     95          1           0       -8.908716   -2.259159    1.458665
     96          1           0       -8.320782   -3.855801    1.212880
     97          1           0       -8.965023   -3.062395   -0.194771
     98          1           0       -3.328455   -4.845457    0.172216
     99          1           0       -0.760766   -5.022634    3.766631
    100          1           0       -0.927362   -6.695152    3.396987
    101          1           0       -2.114332   -5.903580    4.402789
    102          1           0        4.054869   -3.919460   -2.639819
    103          1           0        3.941861   -5.647496   -2.452793
    104          1           0        5.118596   -4.255708   -0.021703
    105          1           0        7.392261   -4.220132   -3.241840
    106          1           0        5.961365   -5.291308   -3.542433
    107          1           0        7.420695   -5.989438   -3.031321
    108          1           0        8.423286   -5.236530   -0.947493
    109          1           0        7.343012   -5.240365    0.354047
    110          1           0        7.542354   -3.042452    0.859677
    111          1           0        7.312785   -2.602043   -0.850266
    112          1           0        9.781910   -3.516262   -1.135083
    113          1           0        9.908511   -2.972233    0.552886
    114          1           0        8.883025   -1.294977   -1.807927
    115          1           0       11.605840   -1.987864   -0.799608
    116          1           0       11.341659   -0.194177   -0.810977
    117          1           0       11.210592   -1.092941   -2.204184
    118          1           0        9.637017   -0.164334    0.908758
    119          1           0        8.079950   -0.651255    0.557405
    120          1           0        7.504194    1.002480   -0.814276
    121          1           0        9.017642    1.214811   -1.550212
    122          1           0        9.902648    2.616203   -0.122267
    123          1           0        9.169352    2.034413    1.309949
    124          1           0        6.750673    3.069794   -0.092741
    125          1           0        9.177311    4.625996   -0.882030
    126          1           0        7.560816    5.167482   -1.074790
    127          1           0        7.983252    3.739310   -2.010462
    128          1           0        8.009973    5.240556    1.119661
    129          1           0        8.355944    3.925240    2.225884
    130          1           0        6.294489    4.792668    3.018296
    131          1           0        5.862612    3.350747    2.186462
    132          1           0        4.503909    4.590844    0.774196
    133          1           0        5.903622    5.520770    0.252970
    134          1           0        5.620503    6.741997    2.448138
    135          1           0        4.042874    6.249003    3.808036
    136          1           0        3.792371    4.715714    2.972046
    137          1           0        2.785620    6.189029    2.561182
    138          1           0        3.463166    7.854486    1.140635
    139          1           0        4.314778    7.046921   -0.103367
    140          1           0        5.265546    8.179726    0.997346
 ---------------------------------------------------------------------

 SCF Done:  E(RB-LYP) =  -3007.39432147     A.U. after   22 cycles

 Excitation energies and oscillator strengths:

 Excited State   1:      Singlet-A      1.8542 eV  668.67 nm  f=0.2137  <S**2>=0.000
     244 -> 247        0.36062
     245 -> 248        0.17416
     246 -> 247        0.58311
     246 <- 247       -0.11530
 This state for optimization and/or second-order correction.
 Total Energy, E(TD-HF/TD-DFT) =  -3007.32618117
 Copying the excited state density for this state as the 1-particle RhoCI density.

 Excited State   2:      Singlet-A      1.9066 eV  650.28 nm  f=0.1020  <S**2>=0.000
     244 -> 247        0.58741
     245 -> 247       -0.11305
     245 -> 248       -0.11830
     246 -> 247       -0.35701

 Excited State   3:      Singlet-A      1.9599 eV  632.60 nm  f=0.0098  <S**2>=0.000
     243 -> 247        0.64303
     244 -> 247        0.10350
     245 -> 247        0.26084

 Excited State   4:      Singlet-A      2.0393 eV  607.97 nm  f=0.0571  <S**2>=0.000
     243 -> 247       -0.28723
     244 -> 247        0.11400
     245 -> 247        0.57825
     246 -> 248       -0.24695

 Excited State   5:      Singlet-A      2.4241 eV  511.47 nm  f=0.0001  <S**2>=0.000
     242 -> 247        0.70708

 The electronic state is 1-A.
 Alpha  occ. eigenvalues --  -46.27247 -18.83373 -18.82682 -18.76984 -18.76134
 Alpha  occ. eigenvalues --  -18.75423 -18.75219 -14.03466 -14.02992 -14.01509
 Alpha  occ. eigenvalues --  -14.00591 -10.04577 -10.03801  -9.99684  -9.98822
 Alpha  occ. eigenvalues --   -9.98580  -9.98408  -9.97292  -9.96625  -9.96497
 Alpha  occ. eigenvalues --   -9.96123  -9.95939  -9.95823  -9.94609  -9.94517
 Alpha  occ. eigenvalues --   -9.94502  -9.94491  -9.94307  -9.94131  -9.93886
 Alpha  occ. eigenvalues --   -9.93741  -9.93255  -9.93235  -9.93078  -9.93065
 Alpha  occ. eigenvalues --   -9.92932  -9.92897  -9.92874  -9.92712  -9.92672
 Alpha  occ. eigenvalues --   -9.92667  -9.92432  -9.92376  -9.92281  -9.92221
 Alpha  occ. eigenvalues --   -9.92126  -9.91956  -9.91761  -9.91742  -9.91556
 Alpha  occ. eigenvalues --   -9.91526  -9.91495  -9.91459  -9.91454  -9.91353
 Alpha  occ. eigenvalues --   -9.91276  -9.91238  -9.91226  -9.91062  -9.91016
 Alpha  occ. eigenvalues --   -9.91005  -9.90987  -9.90930  -9.90675  -9.90500
 Alpha  occ. eigenvalues --   -9.90386  -2.91892  -1.72330  -1.71777  -1.71594
 Alpha  occ. eigenvalues --   -0.99398  -0.98937  -0.92514  -0.91977  -0.90425
 Alpha  occ. eigenvalues --   -0.89980  -0.87807  -0.86802  -0.85662  -0.84934
 Alpha  occ. eigenvalues --   -0.76946  -0.74295  -0.74024  -0.73000  -0.72514
 Alpha  occ. eigenvalues --   -0.72276  -0.72048  -0.71388  -0.71101  -0.70556
 Alpha  occ. eigenvalues --   -0.70326  -0.69584  -0.68449  -0.67843  -0.67237
 Alpha  occ. eigenvalues --   -0.66792  -0.66175  -0.65298  -0.65105  -0.64233
 Alpha  occ. eigenvalues --   -0.64090  -0.62899  -0.62776  -0.62159  -0.61249
 Alpha  occ. eigenvalues --   -0.61102  -0.60773  -0.60151  -0.59466  -0.59196
 Alpha  occ. eigenvalues --   -0.58744  -0.57985  -0.57140  -0.56035  -0.55190
 Alpha  occ. eigenvalues --   -0.54485  -0.53787  -0.53465  -0.52857  -0.51912
 Alpha  occ. eigenvalues --   -0.51583  -0.51508  -0.50994  -0.50865  -0.50487
 Alpha  occ. eigenvalues --   -0.50148  -0.49562  -0.49296  -0.48684  -0.46918
 Alpha  occ. eigenvalues --   -0.46707  -0.46310  -0.45909  -0.45600  -0.45342
 Alpha  occ. eigenvalues --   -0.44074  -0.43871  -0.43020  -0.42830  -0.42515
 Alpha  occ. eigenvalues --   -0.42307  -0.42234  -0.41941  -0.41677  -0.41470
 Alpha  occ. eigenvalues --   -0.41433  -0.40966  -0.40426  -0.40397  -0.40211
 Alpha  occ. eigenvalues --   -0.40042  -0.39938  -0.39777  -0.39612  -0.39414
 Alpha  occ. eigenvalues --   -0.39169  -0.39068  -0.38930  -0.38694  -0.38524
 Alpha  occ. eigenvalues --   -0.38276  -0.37770  -0.37575  -0.37442  -0.37272
 Alpha  occ. eigenvalues --   -0.37183  -0.37105  -0.36859  -0.36836  -0.36687
 Alpha  occ. eigenvalues --   -0.36538  -0.36215  -0.36169  -0.35880  -0.35819
 Alpha  occ. eigenvalues --   -0.35725  -0.35383  -0.35334  -0.35166  -0.35118
 Alpha  occ. eigenvalues --   -0.34994  -0.34540  -0.34226  -0.34135  -0.33996
 Alpha  occ. eigenvalues --   -0.33710  -0.33613  -0.33596  -0.33483  -0.33271
 Alpha  occ. eigenvalues --   -0.33155  -0.32905  -0.32672  -0.32592  -0.32422
 Alpha  occ. eigenvalues --   -0.32276  -0.32051  -0.31953  -0.31861  -0.31816
 Alpha  occ. eigenvalues --   -0.31498  -0.31439  -0.31304  -0.31213  -0.31041
 Alpha  occ. eigenvalues --   -0.30948  -0.30596  -0.30547  -0.30381  -0.30293
 Alpha  occ. eigenvalues --   -0.30235  -0.29814  -0.29551  -0.29478  -0.29175
 Alpha  occ. eigenvalues --   -0.28858  -0.28641  -0.28409  -0.28258  -0.27695
 Alpha  occ. eigenvalues --   -0.27582  -0.27314  -0.27102  -0.26723  -0.26646
 Alpha  occ. eigenvalues --   -0.26235  -0.26219  -0.26139  -0.26005  -0.25859
 Alpha  occ. eigenvalues --   -0.25754  -0.25556  -0.25022  -0.24102  -0.23572
 Alpha  occ. eigenvalues --   -0.23396  -0.22409  -0.22050  -0.21788  -0.21228
 Alpha  occ. eigenvalues --   -0.20814  -0.20362  -0.18581  -0.18339  -0.17289
 Alpha  occ. eigenvalues --   -0.16018
 Alpha virt. eigenvalues --   -0.11454  -0.07106  -0.06172  -0.04415  -0.03139
 Alpha virt. eigenvalues --   -0.02239  -0.01715  -0.01161  -0.00780  -0.00088
 Alpha virt. eigenvalues --    0.01063   0.01204   0.01607   0.01988   0.02358

 Mulliken charges:
               1
     1  Mg   0.687043
     2  C   -0.011995
     3  C   -0.075575
     4  C   -0.037880
     5  C   -0.094186
     6  N   -0.156052
     7  C   -0.170604
     8  C    0.074341
     9  C   -0.017258
    10  C    0.014798
    11  C    0.124039
    12  C    0.131645
    13  C    0.137889
    14  C    0.060226
    15  O   -0.187948
    16  O   -0.250032
    17  N   -0.311545
    18  C    0.179234
    19  C   -0.156255
    20  C    0.108329
    21  C    0.081839
    22  C    0.163525
    23  C   -0.095221
    24  O   -0.145705
    25  C    0.096508
    26  N   -0.251404
    27  C    0.017567
    28  C    0.028733
    29  C   -0.009859
    30  C    0.070592
    31  C    0.162738
    32  C    0.073855
    33  C    0.063697
    34  N   -0.197637
    35  C    0.106868
    36  C   -0.202349
    37  C    0.139949
    38  C    0.092692
    39  C    0.184945
    40  C   -0.137859
    41  O   -0.111750
    42  C    0.126246
    43  C    0.079253
    44  O   -0.188711
    45  O   -0.236591
    46  C    0.218120
    47  C    0.325239
    48  C   -0.092231
    49  C   -0.186321
    50  C    0.129161
    51  C    0.144879
    52  C    0.090734
    53  C    0.095716
    54  C   -0.073319
    55  C    0.134866
    56  C    0.083577
    57  C    0.049123
    58  C    0.102307
    59  C   -0.077054
    60  C    0.086375
    61  C    0.135531
    62  C    0.077322
    63  C    0.075778
    64  C   -0.151896
    65  C    0.124302
    66  C    0.155227
    67  H   -0.064497
    68  H   -0.036536
    69  H   -0.062140
    70  H   -0.033036
    71  H   -0.031928
    72  H    0.007174
    73  H   -0.002314
    74  H   -0.009861
    75  H   -0.005851
    76  H   -0.012903
    77  H    0.000255
    78  H   -0.014129
    79  H   -0.005208
    80  H    0.022025
    81  H   -0.014872
    82  H   -0.004967
    83  H   -0.015439
    84  H   -0.009973
    85  H   -0.015685
    86  H   -0.029669
    87  H    0.001420
    88  H   -0.019020
    89  H   -0.019170
    90  H   -0.018375
    91  H   -0.029383
    92  H    0.003019
    93  H   -0.012995
    94  H    0.001832
    95  H    0.001748
    96  H   -0.007887
    97  H    0.002160
    98  H   -0.012208
    99  H    0.005613
   100  H    0.010945
   101  H    0.024782
   102  H    0.006318
   103  H    0.006662
   104  H   -0.050306
   105  H    0.000702
   106  H   -0.022778
   107  H    0.000030
   108  H   -0.037323
   109  H   -0.036017
   110  H   -0.013494
   111  H   -0.020839
   112  H   -0.030552
   113  H   -0.030222
   114  H   -0.037889
   115  H   -0.018068
   116  H   -0.020826
   117  H   -0.034065
   118  H   -0.041227
   119  H   -0.046980
   120  H   -0.032327
   121  H   -0.035722
   122  H   -0.022799
   123  H   -0.027563
   124  H   -0.025081
   125  H   -0.015279
   126  H   -0.028297
   127  H   -0.007069
   128  H   -0.052287
   129  H   -0.042006
   130  H   -0.033994
   131  H   -0.036683
   132  H   -0.039075
   133  H   -0.037771
   134  H   -0.044659
   135  H   -0.018670
   136  H   -0.004312
   137  H   -0.017193
   138  H   -0.032839
   139  H   -0.018860
   140  H   -0.001139
 Sum of Mulliken charges =  -0.00000

 Dipole moment (field-independent basis, Debye):
    X=              4.6552    Y=              1.2693    Z=              0.7603  Tot=              4.8847
 Quadrupole moment (field-independent basis, Debye-Ang):
   XX=           -380.8743   YY=           -433.2864   ZZ=           -411.8581
   XY=            -24.0690   XZ=             13.5190   YZ=              1.1190

 Normal termination of Gaussian 16 at Wed Apr 27 16:24:15 2022.
