 Gaussian 16, Revision A.03,
 Gaussian 16:  ES64L-G16RevA.03 25-Dec-2016

 -----------------------------------
 #p cam-b3lyp/Def2SVP td=(nstates=5)
 -----------------------------------

 --------------------------------------------------------
 step_1251_chromophore_12 TDDFT with cam-b3lyp functional
 --------------------------------------------------------
 Symbolic Z-matrix:
 Charge =  0 Multiplicity = 1

                         Standard orientation:
 ---------------------------------------------------------------------
 Center     Atomic      Atomic             Coordinates (Angstroms)
 Number     Number       Type             X           Y           Z
 ---------------------------------------------------------------------
      1         12           0       -4.093982    0.641582   -0.214815
      2          6           0       -3.517089   -2.769848    0.605137
      3          6           0       -0.700859    1.059165    0.319121
      4          6           0       -4.555435    3.793314   -0.748037
      5          6           0       -7.439688   -0.097186   -0.293812
      6          7           0       -2.320706   -0.786006    0.237974
      7          6           0       -2.313113   -2.091248    0.534310
      8          6           0       -0.922365   -2.685412    0.592623
      9          6           0       -0.082569   -1.398374    0.867379
     10          6           0       -1.061151   -0.296799    0.391109
     11          6           0        0.435535   -1.154594    2.352268
     12          6           0       -0.519491   -3.446754   -0.720160
     13          6           0        0.409585   -4.675049   -0.523643
     14          6           0        1.507604   -4.818106   -1.604873
     15          8           0        1.350607   -5.019687   -2.795274
     16          8           0        2.741943   -4.610347   -1.068593
     17          7           0       -2.764266    2.214544   -0.396637
     18          6           0       -1.412658    2.151019   -0.045825
     19          6           0       -0.923358    3.552144    0.056218
     20          6           0       -1.993326    4.380085   -0.357941
     21          6           0       -3.168524    3.500556   -0.558270
     22          6           0        0.480962    3.971740    0.250012
     23          6           0       -2.030991    5.823030   -0.561135
     24          8           0       -2.972338    6.428392   -1.005640
     25          6           0       -0.798682    6.750351   -0.330817
     26          7           0       -5.805884    1.609648   -0.822278
     27          6           0       -5.766755    2.993899   -0.820918
     28          6           0       -7.193601    3.566153   -1.075676
     29          6           0       -8.102048    2.294291   -1.034371
     30          6           0       -7.052956    1.127108   -0.794965
     31          6           0       -7.567260    4.686164   -0.169146
     32          6           0       -8.869656    2.199760   -2.409546
     33          6           0       -8.054051    2.062690   -3.730314
     34          7           0       -5.287085   -1.059650    0.068286
     35          6           0       -6.609597   -1.206907    0.044364
     36          6           0       -7.001465   -2.489610    0.464981
     37          6           0       -5.806847   -3.181187    0.646558
     38          6           0       -4.754880   -2.246651    0.355698
     39          6           0       -8.404132   -2.885120    0.723270
     40          6           0       -5.218624   -4.396536    1.031692
     41          8           0       -5.759180   -5.409411    1.404991
     42          6           0       -3.654870   -4.170113    0.963221
     43          6           0       -3.119681   -4.484226    2.301595
     44          8           0       -3.366990   -3.820328    3.294850
     45          8           0       -2.233850   -5.472619    2.264569
     46          6           0       -1.503369   -5.776804    3.508590
     47          6           0        3.899786   -4.707658   -1.902593
     48          6           0        5.152145   -4.612313   -1.051550
     49          6           0        6.381198   -4.756579   -1.468456
     50          6           0        6.822381   -5.086713   -2.906592
     51          6           0        7.590028   -4.664924   -0.538006
     52          6           0        7.884558   -3.221881   -0.159863
     53          6           0        9.340478   -2.874175   -0.372821
     54          6           0        9.496857   -1.409238   -0.914637
     55          6           0       10.976899   -1.166493   -1.142510
     56          6           0        8.987250   -0.325117    0.048321
     57          6           0        8.566175    1.048218   -0.572912
     58          6           0        8.934760    2.326246    0.286312
     59          6           0        7.761378    3.386081    0.166537
     60          6           0        8.167530    4.261644   -1.072237
     61          6           0        7.672153    4.256783    1.444670
     62          6           0        6.265247    4.350114    2.023150
     63          6           0        5.361976    5.162152    1.127747
     64          6           0        4.794603    6.352820    1.852714
     65          6           0        3.760113    5.799323    2.855508
     66          6           0        4.449516    7.463562    0.894631
     67          1           0        0.354854    1.227759    0.541490
     68          1           0       -4.709246    4.856198   -0.947559
     69          1           0       -8.518855   -0.258714   -0.259428
     70          1           0       -0.928662   -3.317290    1.480332
     71          1           0        0.828097   -1.518990    0.280907
     72          1           0       -0.255891   -0.475527    2.850795
     73          1           0        1.459051   -0.779427    2.375736
     74          1           0        0.461089   -2.128781    2.839588
     75          1           0       -0.121082   -2.781904   -1.486204
     76          1           0       -1.396526   -3.873006   -1.206636
     77          1           0       -0.258652   -5.534453   -0.581266
     78          1           0        0.839456   -4.826802    0.466978
     79          1           0        0.615467    4.882093    0.833680
     80          1           0        0.981369    4.070092   -0.713001
     81          1           0        0.965599    3.197691    0.845562
     82          1           0       -0.234379    6.705615    0.601280
     83          1           0       -0.892457    7.822253   -0.504352
     84          1           0       -0.075434    6.418795   -1.075092
     85          1           0       -7.205595    3.900361   -2.113745
     86          1           0       -8.820342    2.329599   -0.214823
     87          1           0       -6.694397    5.083831    0.349354
     88          1           0       -8.338501    4.370893    0.533051
     89          1           0       -8.000102    5.486272   -0.769912
     90          1           0       -9.531527    3.065291   -2.424223
     91          1           0       -9.525744    1.336441   -2.294397
     92          1           0       -6.978681    2.212182   -3.640349
     93          1           0       -8.266340    2.866686   -4.435404
     94          1           0       -8.253947    1.104305   -4.209240
     95          1           0       -8.908716   -2.259159    1.458665
     96          1           0       -8.320782   -3.855801    1.212880
     97          1           0       -8.965023   -3.062395   -0.194771
     98          1           0       -3.328455   -4.845457    0.172216
     99          1           0       -0.760766   -5.022634    3.766631
    100          1           0       -0.927362   -6.695152    3.396987
    101          1           0       -2.114332   -5.903580    4.402789
    102          1           0        4.054869   -3.919460   -2.639819
    103          1           0        3.941861   -5.647496   -2.452793
    104          1           0        5.118596   -4.255708   -0.021703
    105          1           0        7.392261   -4.220132   -3.241840
    106          1           0        5.961365   -5.291308   -3.542433
    107          1           0        7.420695   -5.989438   -3.031321
    108          1           0        8.423286   -5.236530   -0.947493
    109          1           0        7.343012   -5.240365    0.354047
    110          1           0        7.542354   -3.042452    0.859677
    111          1           0        7.312785   -2.602043   -0.850266
    112          1           0        9.781910   -3.516262   -1.135083
    113          1           0        9.908511   -2.972233    0.552886
    114          1           0        8.883025   -1.294977   -1.807927
    115          1           0       11.605840   -1.987864   -0.799608
    116          1           0       11.341659   -0.194177   -0.810977
    117          1           0       11.210592   -1.092941   -2.204184
    118          1           0        9.637017   -0.164334    0.908758
    119          1           0        8.079950   -0.651255    0.557405
    120          1           0        7.504194    1.002480   -0.814276
    121          1           0        9.017642    1.214811   -1.550212
    122          1           0        9.902648    2.616203   -0.122267
    123          1           0        9.169352    2.034413    1.309949
    124          1           0        6.750673    3.069794   -0.092741
    125          1           0        9.177311    4.625996   -0.882030
    126          1           0        7.560816    5.167482   -1.074790
    127          1           0        7.983252    3.739310   -2.010462
    128          1           0        8.009973    5.240556    1.119661
    129          1           0        8.355944    3.925240    2.225884
    130          1           0        6.294489    4.792668    3.018296
    131          1           0        5.862612    3.350747    2.186462
    132          1           0        4.503909    4.590844    0.774196
    133          1           0        5.903622    5.520770    0.252970
    134          1           0        5.620503    6.741997    2.448138
    135          1           0        4.042874    6.249003    3.808036
    136          1           0        3.792371    4.715714    2.972046
    137          1           0        2.785620    6.189029    2.561182
    138          1           0        3.463166    7.854486    1.140635
    139          1           0        4.314778    7.046921   -0.103367
    140          1           0        5.265546    8.179726    0.997346
 ---------------------------------------------------------------------

 SCF Done:  E(RCAM-B3LYP) =  -3007.20891334     A.U. after   17 cycles

 Excitation energies and oscillator strengths:

 Excited State   1:      Singlet-A      1.7793 eV  696.80 nm  f=0.3821  <S**2>=0.000
     245 -> 248       -0.19692
     246 -> 247        0.68077
     245 <- 248       -0.10748
 This state for optimization and/or second-order correction.
 Total Energy, E(TD-HF/TD-DFT) =  -3007.14352358
 Copying the excited state density for this state as the 1-particle RhoCI density.

 Excited State   2:      Singlet-A      2.2649 eV  547.41 nm  f=0.0885  <S**2>=0.000
     245 -> 247        0.63361
     246 -> 248        0.30456

 Excited State   3:      Singlet-A      3.4961 eV  354.64 nm  f=0.0294  <S**2>=0.000
     240 -> 247        0.14226
     241 -> 247       -0.17440
     241 -> 249       -0.10427
     242 -> 247        0.48127
     242 -> 249        0.21277
     242 -> 250        0.17687
     244 -> 247       -0.24260
     246 -> 248        0.13259

 Excited State   4:      Singlet-A      3.5245 eV  351.77 nm  f=0.5712  <S**2>=0.000
     240 -> 247        0.11568
     242 -> 247       -0.20404
     245 -> 247       -0.26835
     246 -> 248        0.59242
     245 <- 247        0.10362

 Excited State   5:      Singlet-A      3.5979 eV  344.60 nm  f=0.0055  <S**2>=0.000
     240 -> 247        0.31717
     240 -> 249       -0.25371
     240 -> 250        0.14039
     241 -> 247        0.43495
     241 -> 249       -0.21276
     241 -> 250        0.11172
     244 -> 247       -0.18191

 The electronic state is 1-A.
 Alpha  occ. eigenvalues --  -46.88736 -19.26398 -19.25533 -19.19988 -19.19200
 Alpha  occ. eigenvalues --  -19.18549 -19.18466 -14.42578 -14.41569 -14.40036
 Alpha  occ. eigenvalues --  -14.38882 -10.39865 -10.39153 -10.34978 -10.33978
 Alpha  occ. eigenvalues --  -10.32680 -10.32387 -10.32022 -10.31202 -10.31167
 Alpha  occ. eigenvalues --  -10.30449 -10.30302 -10.30023 -10.29552 -10.28562
 Alpha  occ. eigenvalues --  -10.28551 -10.28512 -10.28207 -10.28135 -10.27875
 Alpha  occ. eigenvalues --  -10.27620 -10.27388 -10.27385 -10.27373 -10.27272
 Alpha  occ. eigenvalues --  -10.27131 -10.27015 -10.26859 -10.26693 -10.26566
 Alpha  occ. eigenvalues --  -10.26554 -10.26324 -10.26233 -10.26121 -10.25998
 Alpha  occ. eigenvalues --  -10.25871 -10.25721 -10.25545 -10.25451 -10.25265
 Alpha  occ. eigenvalues --  -10.25243 -10.25224 -10.25190 -10.25125 -10.25122
 Alpha  occ. eigenvalues --  -10.25112 -10.25028 -10.24992 -10.24791 -10.24747
 Alpha  occ. eigenvalues --  -10.24732 -10.24719 -10.24685 -10.24275 -10.24260
 Alpha  occ. eigenvalues --  -10.24257  -3.17290  -1.92204  -1.91748  -1.91588
 Alpha  occ. eigenvalues --   -1.18002  -1.17401  -1.11097  -1.10300  -1.08324
 Alpha  occ. eigenvalues --   -1.07969  -1.05470  -1.04453  -1.03257  -1.02516
 Alpha  occ. eigenvalues --   -0.94137  -0.91240  -0.91019  -0.89767  -0.89297
 Alpha  occ. eigenvalues --   -0.89163  -0.88626  -0.88088  -0.87960  -0.86937
 Alpha  occ. eigenvalues --   -0.86802  -0.85931  -0.84754  -0.83935  -0.83409
 Alpha  occ. eigenvalues --   -0.82892  -0.82055  -0.81128  -0.80995  -0.80272
 Alpha  occ. eigenvalues --   -0.80036  -0.78907  -0.78395  -0.77694  -0.76829
 Alpha  occ. eigenvalues --   -0.76465  -0.76144  -0.75394  -0.74848  -0.74473
 Alpha  occ. eigenvalues --   -0.73841  -0.72969  -0.72044  -0.70853  -0.69753
 Alpha  occ. eigenvalues --   -0.69174  -0.68446  -0.68009  -0.67280  -0.66097
 Alpha  occ. eigenvalues --   -0.65844  -0.65732  -0.64889  -0.64752  -0.64326
 Alpha  occ. eigenvalues --   -0.64305  -0.63582  -0.63045  -0.62660  -0.60688
 Alpha  occ. eigenvalues --   -0.60419  -0.59909  -0.59428  -0.59136  -0.58747
 Alpha  occ. eigenvalues --   -0.57358  -0.57169  -0.56205  -0.56095  -0.55812
 Alpha  occ. eigenvalues --   -0.55379  -0.55222  -0.55155  -0.54981  -0.54576
 Alpha  occ. eigenvalues --   -0.54427  -0.53874  -0.53220  -0.53107  -0.53056
 Alpha  occ. eigenvalues --   -0.52992  -0.52762  -0.52684  -0.52285  -0.51948
 Alpha  occ. eigenvalues --   -0.51741  -0.51484  -0.51398  -0.51161  -0.50885
 Alpha  occ. eigenvalues --   -0.50572  -0.50259  -0.50004  -0.49822  -0.49784
 Alpha  occ. eigenvalues --   -0.49552  -0.49398  -0.49307  -0.49020  -0.48950
 Alpha  occ. eigenvalues --   -0.48761  -0.48704  -0.48570  -0.48208  -0.48079
 Alpha  occ. eigenvalues --   -0.47982  -0.47786  -0.47254  -0.47206  -0.47110
 Alpha  occ. eigenvalues --   -0.46986  -0.46495  -0.46202  -0.45955  -0.45843
 Alpha  occ. eigenvalues --   -0.45606  -0.45413  -0.45340  -0.45282  -0.45219
 Alpha  occ. eigenvalues --   -0.44768  -0.44544  -0.44314  -0.44226  -0.44046
 Alpha  occ. eigenvalues --   -0.44015  -0.43544  -0.43528  -0.43481  -0.43329
 Alpha  occ. eigenvalues --   -0.43070  -0.42974  -0.42862  -0.42730  -0.42653
 Alpha  occ. eigenvalues --   -0.42436  -0.42205  -0.42001  -0.41847  -0.41718
 Alpha  occ. eigenvalues --   -0.41371  -0.41361  -0.40895  -0.40555  -0.40507
 Alpha  occ. eigenvalues --   -0.39999  -0.39685  -0.39484  -0.39184  -0.38616
 Alpha  occ. eigenvalues --   -0.38513  -0.38187  -0.37994  -0.37649  -0.37560
 Alpha  occ. eigenvalues --   -0.37484  -0.37335  -0.37019  -0.36993  -0.36869
 Alpha  occ. eigenvalues --   -0.36803  -0.36314  -0.35678  -0.34467  -0.34398
 Alpha  occ. eigenvalues --   -0.34116  -0.33968  -0.33388  -0.31659  -0.30740
 Alpha  occ. eigenvalues --   -0.30649  -0.30344  -0.30165  -0.29978  -0.24018
 Alpha  occ. eigenvalues --   -0.21303
 Alpha virt. eigenvalues --   -0.08377  -0.01995   0.00228   0.02580   0.03688
 Alpha virt. eigenvalues --    0.04560   0.05023   0.05720   0.06347   0.06661
 Alpha virt. eigenvalues --    0.06733   0.07511   0.08243   0.08509   0.09203

 Mulliken charges:
               1
     1  Mg   0.822433
     2  C   -0.036854
     3  C   -0.086913
     4  C   -0.068010
     5  C   -0.098311
     6  N   -0.218225
     7  C   -0.122887
     8  C    0.023613
     9  C   -0.066906
    10  C    0.024434
    11  C    0.070688
    12  C    0.077014
    13  C    0.071608
    14  C    0.140672
    15  O   -0.228488
    16  O   -0.315939
    17  N   -0.401618
    18  C    0.187062
    19  C   -0.148738
    20  C    0.026772
    21  C    0.117219
    22  C    0.105633
    23  C   -0.018993
    24  O   -0.186157
    25  C    0.023287
    26  N   -0.330441
    27  C    0.048457
    28  C   -0.029592
    29  C   -0.061217
    30  C    0.086721
    31  C    0.098790
    32  C    0.025425
    33  C   -0.003620
    34  N   -0.287725
    35  C    0.108195
    36  C   -0.192719
    37  C    0.055583
    38  C    0.124683
    39  C    0.127797
    40  C   -0.033619
    41  O   -0.152653
    42  C    0.041888
    43  C    0.165609
    44  O   -0.224575
    45  O   -0.300224
    46  C    0.178969
    47  C    0.294780
    48  C   -0.112387
    49  C   -0.212855
    50  C    0.072649
    51  C    0.083480
    52  C    0.032926
    53  C    0.043796
    54  C   -0.129511
    55  C    0.071577
    56  C    0.029111
    57  C    0.004751
    58  C    0.048227
    59  C   -0.139301
    60  C    0.033349
    61  C    0.083166
    62  C    0.018832
    63  C    0.020030
    64  C   -0.202254
    65  C    0.063792
    66  C    0.091698
    67  H   -0.027819
    68  H    0.001372
    69  H   -0.027796
    70  H   -0.001102
    71  H    0.004217
    72  H    0.032335
    73  H    0.020952
    74  H    0.012443
    75  H    0.024985
    76  H    0.018550
    77  H    0.032213
    78  H    0.019446
    79  H    0.020018
    80  H    0.049764
    81  H    0.011683
    82  H    0.021354
    83  H    0.020921
    84  H    0.016029
    85  H    0.019818
    86  H    0.005734
    87  H    0.027399
    88  H    0.006614
    89  H    0.006726
    90  H    0.008959
    91  H   -0.000571
    92  H    0.024107
    93  H    0.011328
    94  H    0.026947
    95  H    0.026984
    96  H    0.020634
    97  H    0.027846
    98  H    0.031709
    99  H    0.025860
   100  H    0.035150
   101  H    0.050228
   102  H    0.032308
   103  H    0.033399
   104  H   -0.014398
   105  H    0.022699
   106  H    0.001293
   107  H    0.024880
   108  H   -0.005674
   109  H   -0.003047
   110  H    0.013397
   111  H    0.007302
   112  H   -0.001018
   113  H   -0.001492
   114  H   -0.006980
   115  H    0.007720
   116  H    0.003668
   117  H   -0.008078
   118  H   -0.012704
   119  H   -0.016898
   120  H   -0.005330
   121  H   -0.009219
   122  H    0.005182
   123  H    0.000282
   124  H    0.005047
   125  H    0.008263
   126  H   -0.004816
   127  H    0.017269
   128  H   -0.021847
   129  H   -0.010957
   130  H   -0.004221
   131  H   -0.007417
   132  H   -0.012219
   133  H   -0.012099
   134  H   -0.012027
   135  H    0.007188
   136  H    0.018785
   137  H    0.002921
   138  H   -0.008743
   139  H    0.005199
   140  H    0.023361
 Sum of Mulliken charges =  -0.00000

 Dipole moment (field-independent basis, Debye):
    X=              5.5250    Y=              1.8558    Z=              0.9569  Tot=              5.9064
 Quadrupole moment (field-independent basis, Debye-Ang):
   XX=           -382.2527   YY=           -429.2454   ZZ=           -412.2092
   XY=            -24.8522   XZ=             13.9452   YZ=              0.6859

 Normal termination of Gaussian 16 at Wed Apr 27 15:23:52 2022.
