 Gaussian 16, Revision A.03,
 Gaussian 16:  ES64L-G16RevA.03 25-Dec-2016

 ---------------------------------
 #p PBE1PBE/Def2SVP td=(nstates=5)
 ---------------------------------

 ------------------------------------------------------
 step_1251_chromophore_12 TDDFT with PBE1PBE functional
 ------------------------------------------------------
 Symbolic Z-matrix:
 Charge =  0 Multiplicity = 1

                         Standard orientation:
 ---------------------------------------------------------------------
 Center     Atomic      Atomic             Coordinates (Angstroms)
 Number     Number       Type             X           Y           Z
 ---------------------------------------------------------------------
      1         12           0       -4.093982    0.641582   -0.214815
      2          6           0       -3.517089   -2.769848    0.605137
      3          6           0       -0.700859    1.059165    0.319121
      4          6           0       -4.555435    3.793314   -0.748037
      5          6           0       -7.439688   -0.097186   -0.293812
      6          7           0       -2.320706   -0.786006    0.237974
      7          6           0       -2.313113   -2.091248    0.534310
      8          6           0       -0.922365   -2.685412    0.592623
      9          6           0       -0.082569   -1.398374    0.867379
     10          6           0       -1.061151   -0.296799    0.391109
     11          6           0        0.435535   -1.154594    2.352268
     12          6           0       -0.519491   -3.446754   -0.720160
     13          6           0        0.409585   -4.675049   -0.523643
     14          6           0        1.507604   -4.818106   -1.604873
     15          8           0        1.350607   -5.019687   -2.795274
     16          8           0        2.741943   -4.610347   -1.068593
     17          7           0       -2.764266    2.214544   -0.396637
     18          6           0       -1.412658    2.151019   -0.045825
     19          6           0       -0.923358    3.552144    0.056218
     20          6           0       -1.993326    4.380085   -0.357941
     21          6           0       -3.168524    3.500556   -0.558270
     22          6           0        0.480962    3.971740    0.250012
     23          6           0       -2.030991    5.823030   -0.561135
     24          8           0       -2.972338    6.428392   -1.005640
     25          6           0       -0.798682    6.750351   -0.330817
     26          7           0       -5.805884    1.609648   -0.822278
     27          6           0       -5.766755    2.993899   -0.820918
     28          6           0       -7.193601    3.566153   -1.075676
     29          6           0       -8.102048    2.294291   -1.034371
     30          6           0       -7.052956    1.127108   -0.794965
     31          6           0       -7.567260    4.686164   -0.169146
     32          6           0       -8.869656    2.199760   -2.409546
     33          6           0       -8.054051    2.062690   -3.730314
     34          7           0       -5.287085   -1.059650    0.068286
     35          6           0       -6.609597   -1.206907    0.044364
     36          6           0       -7.001465   -2.489610    0.464981
     37          6           0       -5.806847   -3.181187    0.646558
     38          6           0       -4.754880   -2.246651    0.355698
     39          6           0       -8.404132   -2.885120    0.723270
     40          6           0       -5.218624   -4.396536    1.031692
     41          8           0       -5.759180   -5.409411    1.404991
     42          6           0       -3.654870   -4.170113    0.963221
     43          6           0       -3.119681   -4.484226    2.301595
     44          8           0       -3.366990   -3.820328    3.294850
     45          8           0       -2.233850   -5.472619    2.264569
     46          6           0       -1.503369   -5.776804    3.508590
     47          6           0        3.899786   -4.707658   -1.902593
     48          6           0        5.152145   -4.612313   -1.051550
     49          6           0        6.381198   -4.756579   -1.468456
     50          6           0        6.822381   -5.086713   -2.906592
     51          6           0        7.590028   -4.664924   -0.538006
     52          6           0        7.884558   -3.221881   -0.159863
     53          6           0        9.340478   -2.874175   -0.372821
     54          6           0        9.496857   -1.409238   -0.914637
     55          6           0       10.976899   -1.166493   -1.142510
     56          6           0        8.987250   -0.325117    0.048321
     57          6           0        8.566175    1.048218   -0.572912
     58          6           0        8.934760    2.326246    0.286312
     59          6           0        7.761378    3.386081    0.166537
     60          6           0        8.167530    4.261644   -1.072237
     61          6           0        7.672153    4.256783    1.444670
     62          6           0        6.265247    4.350114    2.023150
     63          6           0        5.361976    5.162152    1.127747
     64          6           0        4.794603    6.352820    1.852714
     65          6           0        3.760113    5.799323    2.855508
     66          6           0        4.449516    7.463562    0.894631
     67          1           0        0.354854    1.227759    0.541490
     68          1           0       -4.709246    4.856198   -0.947559
     69          1           0       -8.518855   -0.258714   -0.259428
     70          1           0       -0.928662   -3.317290    1.480332
     71          1           0        0.828097   -1.518990    0.280907
     72          1           0       -0.255891   -0.475527    2.850795
     73          1           0        1.459051   -0.779427    2.375736
     74          1           0        0.461089   -2.128781    2.839588
     75          1           0       -0.121082   -2.781904   -1.486204
     76          1           0       -1.396526   -3.873006   -1.206636
     77          1           0       -0.258652   -5.534453   -0.581266
     78          1           0        0.839456   -4.826802    0.466978
     79          1           0        0.615467    4.882093    0.833680
     80          1           0        0.981369    4.070092   -0.713001
     81          1           0        0.965599    3.197691    0.845562
     82          1           0       -0.234379    6.705615    0.601280
     83          1           0       -0.892457    7.822253   -0.504352
     84          1           0       -0.075434    6.418795   -1.075092
     85          1           0       -7.205595    3.900361   -2.113745
     86          1           0       -8.820342    2.329599   -0.214823
     87          1           0       -6.694397    5.083831    0.349354
     88          1           0       -8.338501    4.370893    0.533051
     89          1           0       -8.000102    5.486272   -0.769912
     90          1           0       -9.531527    3.065291   -2.424223
     91          1           0       -9.525744    1.336441   -2.294397
     92          1           0       -6.978681    2.212182   -3.640349
     93          1           0       -8.266340    2.866686   -4.435404
     94          1           0       -8.253947    1.104305   -4.209240
     95          1           0       -8.908716   -2.259159    1.458665
     96          1           0       -8.320782   -3.855801    1.212880
     97          1           0       -8.965023   -3.062395   -0.194771
     98          1           0       -3.328455   -4.845457    0.172216
     99          1           0       -0.760766   -5.022634    3.766631
    100          1           0       -0.927362   -6.695152    3.396987
    101          1           0       -2.114332   -5.903580    4.402789
    102          1           0        4.054869   -3.919460   -2.639819
    103          1           0        3.941861   -5.647496   -2.452793
    104          1           0        5.118596   -4.255708   -0.021703
    105          1           0        7.392261   -4.220132   -3.241840
    106          1           0        5.961365   -5.291308   -3.542433
    107          1           0        7.420695   -5.989438   -3.031321
    108          1           0        8.423286   -5.236530   -0.947493
    109          1           0        7.343012   -5.240365    0.354047
    110          1           0        7.542354   -3.042452    0.859677
    111          1           0        7.312785   -2.602043   -0.850266
    112          1           0        9.781910   -3.516262   -1.135083
    113          1           0        9.908511   -2.972233    0.552886
    114          1           0        8.883025   -1.294977   -1.807927
    115          1           0       11.605840   -1.987864   -0.799608
    116          1           0       11.341659   -0.194177   -0.810977
    117          1           0       11.210592   -1.092941   -2.204184
    118          1           0        9.637017   -0.164334    0.908758
    119          1           0        8.079950   -0.651255    0.557405
    120          1           0        7.504194    1.002480   -0.814276
    121          1           0        9.017642    1.214811   -1.550212
    122          1           0        9.902648    2.616203   -0.122267
    123          1           0        9.169352    2.034413    1.309949
    124          1           0        6.750673    3.069794   -0.092741
    125          1           0        9.177311    4.625996   -0.882030
    126          1           0        7.560816    5.167482   -1.074790
    127          1           0        7.983252    3.739310   -2.010462
    128          1           0        8.009973    5.240556    1.119661
    129          1           0        8.355944    3.925240    2.225884
    130          1           0        6.294489    4.792668    3.018296
    131          1           0        5.862612    3.350747    2.186462
    132          1           0        4.503909    4.590844    0.774196
    133          1           0        5.903622    5.520770    0.252970
    134          1           0        5.620503    6.741997    2.448138
    135          1           0        4.042874    6.249003    3.808036
    136          1           0        3.792371    4.715714    2.972046
    137          1           0        2.785620    6.189029    2.561182
    138          1           0        3.463166    7.854486    1.140635
    139          1           0        4.314778    7.046921   -0.103367
    140          1           0        5.265546    8.179726    0.997346
 ---------------------------------------------------------------------

 SCF Done:  E(RPBE1PBE) =  -3005.39672937     A.U. after   15 cycles

 Excitation energies and oscillator strengths:

 Excited State   1:      Singlet-A      1.9236 eV  644.54 nm  f=0.3725  <S**2>=0.000
     245 -> 248        0.19124
     246 -> 247        0.68719
 This state for optimization and/or second-order correction.
 Total Energy, E(TD-HF/TD-DFT) =  -3005.32603764
 Copying the excited state density for this state as the 1-particle RhoCI density.

 Excited State   2:      Singlet-A      2.2519 eV  550.59 nm  f=0.0906  <S**2>=0.000
     245 -> 247        0.64746
     246 -> 248       -0.27639

 Excited State   3:      Singlet-A      2.9842 eV  415.47 nm  f=0.0006  <S**2>=0.000
     244 -> 247        0.66338
     244 -> 249       -0.14756
     244 -> 250       -0.10142

 Excited State   4:      Singlet-A      3.0399 eV  407.85 nm  f=0.0004  <S**2>=0.000
     243 -> 247        0.66329
     243 -> 249        0.17550
     244 -> 247       -0.10098

 Excited State   5:      Singlet-A      3.2577 eV  380.59 nm  f=0.0084  <S**2>=0.000
     240 -> 247       -0.10055
     241 -> 247        0.67134
     246 -> 248        0.13966

 The electronic state is 1-A.
 Alpha  occ. eigenvalues --  -46.92134 -19.27008 -19.26236 -19.20264 -19.19428
 Alpha  occ. eigenvalues --  -19.18769 -19.18658 -14.41916 -14.41236 -14.39653
 Alpha  occ. eigenvalues --  -14.38557 -10.36922 -10.36149 -10.31985 -10.31180
 Alpha  occ. eigenvalues --  -10.29901 -10.29790 -10.29685 -10.28832 -10.28710
 Alpha  occ. eigenvalues --  -10.28147 -10.28004 -10.27883 -10.26960 -10.26373
 Alpha  occ. eigenvalues --  -10.26343 -10.26331 -10.25851 -10.25712 -10.25640
 Alpha  occ. eigenvalues --  -10.25527 -10.24973 -10.24945 -10.24932 -10.24680
 Alpha  occ. eigenvalues --  -10.24670 -10.24649 -10.24553 -10.24395 -10.24305
 Alpha  occ. eigenvalues --  -10.24271 -10.23990 -10.23938 -10.23812 -10.23549
 Alpha  occ. eigenvalues --  -10.23508 -10.23122 -10.22923 -10.22919 -10.22833
 Alpha  occ. eigenvalues --  -10.22791 -10.22757 -10.22745 -10.22654 -10.22650
 Alpha  occ. eigenvalues --  -10.22644 -10.22584 -10.22347 -10.22265 -10.22250
 Alpha  occ. eigenvalues --  -10.22220 -10.22133 -10.22126 -10.22086 -10.21775
 Alpha  occ. eigenvalues --  -10.21649  -3.14269  -1.87125  -1.86647  -1.86490
 Alpha  occ. eigenvalues --   -1.12780  -1.12250  -1.05745  -1.05123  -1.03205
 Alpha  occ. eigenvalues --   -1.02772  -1.00197  -0.99124  -0.97880  -0.97130
 Alpha  occ. eigenvalues --   -0.88550  -0.85371  -0.85087  -0.83964  -0.83426
 Alpha  occ. eigenvalues --   -0.83373  -0.82931  -0.82181  -0.82149  -0.81349
 Alpha  occ. eigenvalues --   -0.81204  -0.80161  -0.78930  -0.78235  -0.77631
 Alpha  occ. eigenvalues --   -0.77097  -0.76367  -0.75401  -0.75280  -0.74393
 Alpha  occ. eigenvalues --   -0.74192  -0.73009  -0.72662  -0.72041  -0.70885
 Alpha  occ. eigenvalues --   -0.70810  -0.70307  -0.69762  -0.68940  -0.68638
 Alpha  occ. eigenvalues --   -0.68152  -0.67443  -0.66499  -0.65158  -0.64132
 Alpha  occ. eigenvalues --   -0.63635  -0.62639  -0.62447  -0.61495  -0.60506
 Alpha  occ. eigenvalues --   -0.60290  -0.60010  -0.59469  -0.59244  -0.58815
 Alpha  occ. eigenvalues --   -0.58408  -0.57707  -0.57623  -0.56810  -0.55151
 Alpha  occ. eigenvalues --   -0.54878  -0.54458  -0.53891  -0.53601  -0.53350
 Alpha  occ. eigenvalues --   -0.51999  -0.51588  -0.50711  -0.50567  -0.50289
 Alpha  occ. eigenvalues --   -0.49893  -0.49712  -0.49577  -0.49541  -0.49044
 Alpha  occ. eigenvalues --   -0.48997  -0.48433  -0.47876  -0.47627  -0.47511
 Alpha  occ. eigenvalues --   -0.47434  -0.47290  -0.46979  -0.46808  -0.46504
 Alpha  occ. eigenvalues --   -0.46307  -0.46082  -0.45880  -0.45675  -0.45372
 Alpha  occ. eigenvalues --   -0.45293  -0.44848  -0.44544  -0.44381  -0.44345
 Alpha  occ. eigenvalues --   -0.44140  -0.43946  -0.43897  -0.43604  -0.43560
 Alpha  occ. eigenvalues --   -0.43293  -0.43276  -0.43090  -0.42747  -0.42663
 Alpha  occ. eigenvalues --   -0.42604  -0.42439  -0.41867  -0.41835  -0.41696
 Alpha  occ. eigenvalues --   -0.41631  -0.41277  -0.40944  -0.40673  -0.40558
 Alpha  occ. eigenvalues --   -0.40269  -0.40175  -0.40049  -0.39990  -0.39931
 Alpha  occ. eigenvalues --   -0.39528  -0.39199  -0.39087  -0.39037  -0.38829
 Alpha  occ. eigenvalues --   -0.38744  -0.38366  -0.38305  -0.38200  -0.38117
 Alpha  occ. eigenvalues --   -0.37812  -0.37704  -0.37630  -0.37444  -0.37427
 Alpha  occ. eigenvalues --   -0.37136  -0.37039  -0.36829  -0.36622  -0.36530
 Alpha  occ. eigenvalues --   -0.36260  -0.36221  -0.35697  -0.35360  -0.35298
 Alpha  occ. eigenvalues --   -0.34727  -0.34434  -0.34371  -0.34141  -0.33398
 Alpha  occ. eigenvalues --   -0.33293  -0.33207  -0.32756  -0.32629  -0.32517
 Alpha  occ. eigenvalues --   -0.32455  -0.32201  -0.32032  -0.31879  -0.31811
 Alpha  occ. eigenvalues --   -0.31706  -0.31142  -0.30489  -0.29494  -0.29375
 Alpha  occ. eigenvalues --   -0.29093  -0.28943  -0.28811  -0.27249  -0.26221
 Alpha  occ. eigenvalues --   -0.25750  -0.25389  -0.25358  -0.25329  -0.20946
 Alpha  occ. eigenvalues --   -0.18935
 Alpha virt. eigenvalues --   -0.10946  -0.05467  -0.03932  -0.01830   0.00009
 Alpha virt. eigenvalues --    0.00856   0.01050   0.01225   0.02294   0.02601
 Alpha virt. eigenvalues --    0.03640   0.04075   0.04400   0.05130   0.05300

 Mulliken charges:
               1
     1  Mg   0.973881
     2  C   -0.060434
     3  C   -0.084180
     4  C   -0.062479
     5  C   -0.083729
     6  N   -0.325075
     7  C   -0.021255
     8  C   -0.057937
     9  C   -0.139387
    10  C    0.065415
    11  C    0.012905
    12  C    0.029764
    13  C   -0.000746
    14  C    0.206655
    15  O   -0.262327
    16  O   -0.349912
    17  N   -0.517163
    18  C    0.209292
    19  C   -0.169719
    20  C   -0.037228
    21  C    0.154059
    22  C    0.041981
    23  C    0.035218
    24  O   -0.224488
    25  C   -0.049245
    26  N   -0.433908
    27  C    0.074001
    28  C   -0.103496
    29  C   -0.139952
    30  C    0.132295
    31  C    0.040887
    32  C   -0.034978
    33  C   -0.077080
    34  N   -0.422596
    35  C    0.128255
    36  C   -0.201407
    37  C   -0.005822
    38  C    0.181552
    39  C    0.071460
    40  C    0.074313
    41  O   -0.200583
    42  C   -0.080667
    43  C    0.260531
    44  O   -0.259261
    45  O   -0.335606
    46  C    0.121747
    47  C    0.257136
    48  C   -0.122817
    49  C   -0.261830
    50  C    0.009972
    51  C    0.026811
    52  C   -0.034132
    53  C   -0.009355
    54  C   -0.224859
    55  C    0.015126
    56  C   -0.022779
    57  C   -0.049452
    58  C   -0.006645
    59  C   -0.225367
    60  C   -0.028012
    61  C    0.028470
    62  C   -0.045289
    63  C   -0.045697
    64  C   -0.287253
    65  C    0.000326
    66  C    0.027273
    67  H    0.003397
    68  H    0.034159
    69  H    0.004683
    70  H    0.047626
    71  H    0.041604
    72  H    0.060132
    73  H    0.047710
    74  H    0.040135
    75  H    0.055922
    76  H    0.051817
    77  H    0.064775
    78  H    0.049695
    79  H    0.048746
    80  H    0.076107
    81  H    0.038540
    82  H    0.046433
    83  H    0.048183
    84  H    0.043990
    85  H    0.058361
    86  H    0.040982
    87  H    0.054740
    88  H    0.034095
    89  H    0.034581
    90  H    0.043108
    91  H    0.033054
    92  H    0.052237
    93  H    0.039380
    94  H    0.054624
    95  H    0.054591
    96  H    0.050726
    97  H    0.056462
    98  H    0.069001
    99  H    0.047332
   100  H    0.056953
   101  H    0.071649
   102  H    0.059110
   103  H    0.059519
   104  H    0.016418
   105  H    0.051695
   106  H    0.028460
   107  H    0.051699
   108  H    0.024850
   109  H    0.030999
   110  H    0.044445
   111  H    0.042359
   112  H    0.032461
   113  H    0.031373
   114  H    0.030471
   115  H    0.034398
   116  H    0.031406
   117  H    0.020374
   118  H    0.019110
   119  H    0.017795
   120  H    0.026569
   121  H    0.022977
   122  H    0.036713
   123  H    0.031498
   124  H    0.041269
   125  H    0.036146
   126  H    0.024225
   127  H    0.045339
   128  H    0.012919
   129  H    0.021138
   130  H    0.028102
   131  H    0.025811
   132  H    0.022448
   133  H    0.025223
   134  H    0.027228
   135  H    0.035066
   136  H    0.045525
   137  H    0.031958
   138  H    0.019486
   139  H    0.032467
   140  H    0.050244
 Sum of Mulliken charges =  -0.00000

 Dipole moment (field-independent basis, Debye):
    X=              5.2068    Y=              1.6766    Z=              0.9079  Tot=              5.5450
 Quadrupole moment (field-independent basis, Debye-Ang):
   XX=           -374.2255   YY=           -427.2103   ZZ=           -409.4292
   XY=            -25.0810   XZ=             14.4170   YZ=              0.4529

 Normal termination of Gaussian 16 at Wed Apr 27 15:42:57 2022.
