 Gaussian 16, Revision A.03,
 Gaussian 16:  ES64L-G16RevA.03 25-Dec-2016

 --------------------------------
 #p wB97XD/Def2SVP td=(nstates=5)
 --------------------------------

 -----------------------------------------------------
 step_1251_chromophore_12 TDDFT with wB97XD functional
 -----------------------------------------------------
 Symbolic Z-matrix:
 Charge =  0 Multiplicity = 1

                         Standard orientation:
 ---------------------------------------------------------------------
 Center     Atomic      Atomic             Coordinates (Angstroms)
 Number     Number       Type             X           Y           Z
 ---------------------------------------------------------------------
      1         12           0       -4.093982    0.641582   -0.214815
      2          6           0       -3.517089   -2.769848    0.605137
      3          6           0       -0.700859    1.059165    0.319121
      4          6           0       -4.555435    3.793314   -0.748037
      5          6           0       -7.439688   -0.097186   -0.293812
      6          7           0       -2.320706   -0.786006    0.237974
      7          6           0       -2.313113   -2.091248    0.534310
      8          6           0       -0.922365   -2.685412    0.592623
      9          6           0       -0.082569   -1.398374    0.867379
     10          6           0       -1.061151   -0.296799    0.391109
     11          6           0        0.435535   -1.154594    2.352268
     12          6           0       -0.519491   -3.446754   -0.720160
     13          6           0        0.409585   -4.675049   -0.523643
     14          6           0        1.507604   -4.818106   -1.604873
     15          8           0        1.350607   -5.019687   -2.795274
     16          8           0        2.741943   -4.610347   -1.068593
     17          7           0       -2.764266    2.214544   -0.396637
     18          6           0       -1.412658    2.151019   -0.045825
     19          6           0       -0.923358    3.552144    0.056218
     20          6           0       -1.993326    4.380085   -0.357941
     21          6           0       -3.168524    3.500556   -0.558270
     22          6           0        0.480962    3.971740    0.250012
     23          6           0       -2.030991    5.823030   -0.561135
     24          8           0       -2.972338    6.428392   -1.005640
     25          6           0       -0.798682    6.750351   -0.330817
     26          7           0       -5.805884    1.609648   -0.822278
     27          6           0       -5.766755    2.993899   -0.820918
     28          6           0       -7.193601    3.566153   -1.075676
     29          6           0       -8.102048    2.294291   -1.034371
     30          6           0       -7.052956    1.127108   -0.794965
     31          6           0       -7.567260    4.686164   -0.169146
     32          6           0       -8.869656    2.199760   -2.409546
     33          6           0       -8.054051    2.062690   -3.730314
     34          7           0       -5.287085   -1.059650    0.068286
     35          6           0       -6.609597   -1.206907    0.044364
     36          6           0       -7.001465   -2.489610    0.464981
     37          6           0       -5.806847   -3.181187    0.646558
     38          6           0       -4.754880   -2.246651    0.355698
     39          6           0       -8.404132   -2.885120    0.723270
     40          6           0       -5.218624   -4.396536    1.031692
     41          8           0       -5.759180   -5.409411    1.404991
     42          6           0       -3.654870   -4.170113    0.963221
     43          6           0       -3.119681   -4.484226    2.301595
     44          8           0       -3.366990   -3.820328    3.294850
     45          8           0       -2.233850   -5.472619    2.264569
     46          6           0       -1.503369   -5.776804    3.508590
     47          6           0        3.899786   -4.707658   -1.902593
     48          6           0        5.152145   -4.612313   -1.051550
     49          6           0        6.381198   -4.756579   -1.468456
     50          6           0        6.822381   -5.086713   -2.906592
     51          6           0        7.590028   -4.664924   -0.538006
     52          6           0        7.884558   -3.221881   -0.159863
     53          6           0        9.340478   -2.874175   -0.372821
     54          6           0        9.496857   -1.409238   -0.914637
     55          6           0       10.976899   -1.166493   -1.142510
     56          6           0        8.987250   -0.325117    0.048321
     57          6           0        8.566175    1.048218   -0.572912
     58          6           0        8.934760    2.326246    0.286312
     59          6           0        7.761378    3.386081    0.166537
     60          6           0        8.167530    4.261644   -1.072237
     61          6           0        7.672153    4.256783    1.444670
     62          6           0        6.265247    4.350114    2.023150
     63          6           0        5.361976    5.162152    1.127747
     64          6           0        4.794603    6.352820    1.852714
     65          6           0        3.760113    5.799323    2.855508
     66          6           0        4.449516    7.463562    0.894631
     67          1           0        0.354854    1.227759    0.541490
     68          1           0       -4.709246    4.856198   -0.947559
     69          1           0       -8.518855   -0.258714   -0.259428
     70          1           0       -0.928662   -3.317290    1.480332
     71          1           0        0.828097   -1.518990    0.280907
     72          1           0       -0.255891   -0.475527    2.850795
     73          1           0        1.459051   -0.779427    2.375736
     74          1           0        0.461089   -2.128781    2.839588
     75          1           0       -0.121082   -2.781904   -1.486204
     76          1           0       -1.396526   -3.873006   -1.206636
     77          1           0       -0.258652   -5.534453   -0.581266
     78          1           0        0.839456   -4.826802    0.466978
     79          1           0        0.615467    4.882093    0.833680
     80          1           0        0.981369    4.070092   -0.713001
     81          1           0        0.965599    3.197691    0.845562
     82          1           0       -0.234379    6.705615    0.601280
     83          1           0       -0.892457    7.822253   -0.504352
     84          1           0       -0.075434    6.418795   -1.075092
     85          1           0       -7.205595    3.900361   -2.113745
     86          1           0       -8.820342    2.329599   -0.214823
     87          1           0       -6.694397    5.083831    0.349354
     88          1           0       -8.338501    4.370893    0.533051
     89          1           0       -8.000102    5.486272   -0.769912
     90          1           0       -9.531527    3.065291   -2.424223
     91          1           0       -9.525744    1.336441   -2.294397
     92          1           0       -6.978681    2.212182   -3.640349
     93          1           0       -8.266340    2.866686   -4.435404
     94          1           0       -8.253947    1.104305   -4.209240
     95          1           0       -8.908716   -2.259159    1.458665
     96          1           0       -8.320782   -3.855801    1.212880
     97          1           0       -8.965023   -3.062395   -0.194771
     98          1           0       -3.328455   -4.845457    0.172216
     99          1           0       -0.760766   -5.022634    3.766631
    100          1           0       -0.927362   -6.695152    3.396987
    101          1           0       -2.114332   -5.903580    4.402789
    102          1           0        4.054869   -3.919460   -2.639819
    103          1           0        3.941861   -5.647496   -2.452793
    104          1           0        5.118596   -4.255708   -0.021703
    105          1           0        7.392261   -4.220132   -3.241840
    106          1           0        5.961365   -5.291308   -3.542433
    107          1           0        7.420695   -5.989438   -3.031321
    108          1           0        8.423286   -5.236530   -0.947493
    109          1           0        7.343012   -5.240365    0.354047
    110          1           0        7.542354   -3.042452    0.859677
    111          1           0        7.312785   -2.602043   -0.850266
    112          1           0        9.781910   -3.516262   -1.135083
    113          1           0        9.908511   -2.972233    0.552886
    114          1           0        8.883025   -1.294977   -1.807927
    115          1           0       11.605840   -1.987864   -0.799608
    116          1           0       11.341659   -0.194177   -0.810977
    117          1           0       11.210592   -1.092941   -2.204184
    118          1           0        9.637017   -0.164334    0.908758
    119          1           0        8.079950   -0.651255    0.557405
    120          1           0        7.504194    1.002480   -0.814276
    121          1           0        9.017642    1.214811   -1.550212
    122          1           0        9.902648    2.616203   -0.122267
    123          1           0        9.169352    2.034413    1.309949
    124          1           0        6.750673    3.069794   -0.092741
    125          1           0        9.177311    4.625996   -0.882030
    126          1           0        7.560816    5.167482   -1.074790
    127          1           0        7.983252    3.739310   -2.010462
    128          1           0        8.009973    5.240556    1.119661
    129          1           0        8.355944    3.925240    2.225884
    130          1           0        6.294489    4.792668    3.018296
    131          1           0        5.862612    3.350747    2.186462
    132          1           0        4.503909    4.590844    0.774196
    133          1           0        5.903622    5.520770    0.252970
    134          1           0        5.620503    6.741997    2.448138
    135          1           0        4.042874    6.249003    3.808036
    136          1           0        3.792371    4.715714    2.972046
    137          1           0        2.785620    6.189029    2.561182
    138          1           0        3.463166    7.854486    1.140635
    139          1           0        4.314778    7.046921   -0.103367
    140          1           0        5.265546    8.179726    0.997346
 ---------------------------------------------------------------------

 SCF Done:  E(RwB97XD) =  -3007.90812048     A.U. after   17 cycles

 Excitation energies and oscillator strengths:

 Excited State   1:      Singlet-A      1.7275 eV  717.69 nm  f=0.3798  <S**2>=0.000
     245 -> 248       -0.20175
     246 -> 247        0.67864
     245 <- 248       -0.11619
 This state for optimization and/or second-order correction.
 Total Energy, E(TD-HF/TD-DFT) =  -3007.84463432
 Copying the excited state density for this state as the 1-particle RhoCI density.

 Excited State   2:      Singlet-A      2.2155 eV  559.63 nm  f=0.0869  <S**2>=0.000
     245 -> 247        0.63229
     246 -> 248        0.30522

 Excited State   3:      Singlet-A      3.5299 eV  351.24 nm  f=0.0592  <S**2>=0.000
     240 -> 247       -0.11916
     242 -> 247        0.45061
     242 -> 249        0.23460
     242 -> 250        0.19726
     244 -> 247       -0.30334
     244 -> 249       -0.11859
     246 -> 248        0.18472

 Excited State   4:      Singlet-A      3.5395 eV  350.28 nm  f=0.5481  <S**2>=0.000
     240 -> 247       -0.18253
     242 -> 247       -0.21200
     245 -> 247       -0.25776
     246 -> 248        0.57571
     245 <- 247        0.10584

 Excited State   5:      Singlet-A      3.6098 eV  343.46 nm  f=0.0034  <S**2>=0.000
     241 -> 247        0.52843
     241 -> 248        0.10208
     241 -> 249       -0.35999
     241 -> 250        0.18630
     244 -> 247       -0.12235

 The electronic state is 1-A.
 Alpha  occ. eigenvalues --  -46.95076 -19.31600 -19.30796 -19.24944 -19.24142
 Alpha  occ. eigenvalues --  -19.23584 -19.23489 -14.47194 -14.46125 -14.44649
 Alpha  occ. eigenvalues --  -14.43451 -10.43693 -10.42984 -10.38957 -10.37960
 Alpha  occ. eigenvalues --  -10.36434 -10.36289 -10.36123 -10.35307 -10.35213
 Alpha  occ. eigenvalues --  -10.34526 -10.34293 -10.33989 -10.33756 -10.32623
 Alpha  occ. eigenvalues --  -10.32615 -10.32465 -10.32183 -10.32049 -10.31829
 Alpha  occ. eigenvalues --  -10.31662 -10.31509 -10.31392 -10.31357 -10.31344
 Alpha  occ. eigenvalues --  -10.31154 -10.31114 -10.30744 -10.30726 -10.30628
 Alpha  occ. eigenvalues --  -10.30498 -10.30317 -10.30247 -10.29973 -10.29962
 Alpha  occ. eigenvalues --  -10.29859 -10.29619 -10.29508 -10.29264 -10.29215
 Alpha  occ. eigenvalues --  -10.29149 -10.29136 -10.29094 -10.29061 -10.29052
 Alpha  occ. eigenvalues --  -10.28976 -10.28967 -10.28838 -10.28676 -10.28666
 Alpha  occ. eigenvalues --  -10.28622 -10.28617 -10.28603 -10.28265 -10.28200
 Alpha  occ. eigenvalues --  -10.28102  -3.21062  -1.94667  -1.94191  -1.94033
 Alpha  occ. eigenvalues --   -1.20181  -1.19613  -1.13329  -1.12510  -1.10539
 Alpha  occ. eigenvalues --   -1.10149  -1.07475  -1.06472  -1.05275  -1.04559
 Alpha  occ. eigenvalues --   -0.96121  -0.93048  -0.92793  -0.91608  -0.91147
 Alpha  occ. eigenvalues --   -0.91090  -0.90468  -0.89940  -0.89881  -0.88846
 Alpha  occ. eigenvalues --   -0.88734  -0.87812  -0.86606  -0.85840  -0.85289
 Alpha  occ. eigenvalues --   -0.84760  -0.83953  -0.83033  -0.82937  -0.82208
 Alpha  occ. eigenvalues --   -0.81883  -0.80862  -0.80288  -0.79631  -0.78645
 Alpha  occ. eigenvalues --   -0.78371  -0.77990  -0.77320  -0.76677  -0.76324
 Alpha  occ. eigenvalues --   -0.75766  -0.74951  -0.74019  -0.72779  -0.71645
 Alpha  occ. eigenvalues --   -0.71180  -0.70320  -0.70021  -0.69156  -0.68050
 Alpha  occ. eigenvalues --   -0.67742  -0.67700  -0.66884  -0.66720  -0.66234
 Alpha  occ. eigenvalues --   -0.66147  -0.65406  -0.65009  -0.64500  -0.62718
 Alpha  occ. eigenvalues --   -0.62356  -0.61888  -0.61369  -0.61086  -0.60722
 Alpha  occ. eigenvalues --   -0.59339  -0.59075  -0.58121  -0.58021  -0.57723
 Alpha  occ. eigenvalues --   -0.57325  -0.57127  -0.57069  -0.56987  -0.56491
 Alpha  occ. eigenvalues --   -0.56352  -0.55829  -0.55193  -0.55042  -0.54975
 Alpha  occ. eigenvalues --   -0.54880  -0.54728  -0.54607  -0.54199  -0.53857
 Alpha  occ. eigenvalues --   -0.53669  -0.53356  -0.53275  -0.53059  -0.52762
 Alpha  occ. eigenvalues --   -0.52483  -0.52197  -0.51942  -0.51716  -0.51686
 Alpha  occ. eigenvalues --   -0.51479  -0.51361  -0.51209  -0.50945  -0.50864
 Alpha  occ. eigenvalues --   -0.50664  -0.50627  -0.50496  -0.50076  -0.49999
 Alpha  occ. eigenvalues --   -0.49926  -0.49712  -0.49186  -0.49118  -0.48975
 Alpha  occ. eigenvalues --   -0.48929  -0.48424  -0.48121  -0.47860  -0.47767
 Alpha  occ. eigenvalues --   -0.47508  -0.47332  -0.47245  -0.47192  -0.47145
 Alpha  occ. eigenvalues --   -0.46631  -0.46424  -0.46215  -0.46139  -0.45985
 Alpha  occ. eigenvalues --   -0.45901  -0.45496  -0.45433  -0.45354  -0.45224
 Alpha  occ. eigenvalues --   -0.44990  -0.44870  -0.44779  -0.44608  -0.44605
 Alpha  occ. eigenvalues --   -0.44308  -0.44166  -0.43927  -0.43746  -0.43617
 Alpha  occ. eigenvalues --   -0.43281  -0.43250  -0.42781  -0.42413  -0.42385
 Alpha  occ. eigenvalues --   -0.41865  -0.41536  -0.41375  -0.41102  -0.40475
 Alpha  occ. eigenvalues --   -0.40374  -0.40086  -0.39834  -0.39695  -0.39568
 Alpha  occ. eigenvalues --   -0.39446  -0.39228  -0.39105  -0.38875  -0.38746
 Alpha  occ. eigenvalues --   -0.38723  -0.38164  -0.37530  -0.36420  -0.36331
 Alpha  occ. eigenvalues --   -0.36076  -0.35820  -0.35607  -0.33886  -0.32874
 Alpha  occ. eigenvalues --   -0.32652  -0.32356  -0.32188  -0.32123  -0.25955
 Alpha  occ. eigenvalues --   -0.23128
 Alpha virt. eigenvalues --   -0.06717  -0.00077   0.02283   0.04696   0.06726
 Alpha virt. eigenvalues --    0.06902   0.07643   0.07945   0.08911   0.09101
 Alpha virt. eigenvalues --    0.10290   0.10767   0.11145   0.12026   0.12046

 Mulliken charges:
               1
     1  Mg   0.964319
     2  C   -0.050605
     3  C   -0.095884
     4  C   -0.084264
     5  C   -0.102512
     6  N   -0.285122
     7  C   -0.072029
     8  C   -0.017770
     9  C   -0.116865
    10  C    0.045767
    11  C    0.024068
    12  C    0.036404
    13  C    0.012980
    14  C    0.197356
    15  O   -0.259382
    16  O   -0.347870
    17  N   -0.486342
    18  C    0.202152
    19  C   -0.158520
    20  C   -0.026842
    21  C    0.147344
    22  C    0.056322
    23  C    0.030121
    24  O   -0.218212
    25  C   -0.035713
    26  N   -0.404912
    27  C    0.071144
    28  C   -0.079267
    29  C   -0.111561
    30  C    0.110401
    31  C    0.050976
    32  C   -0.019435
    33  C   -0.061790
    34  N   -0.380164
    35  C    0.119843
    36  C   -0.200854
    37  C    0.003295
    38  C    0.157198
    39  C    0.079859
    40  C    0.051342
    41  O   -0.190931
    42  C   -0.037209
    43  C    0.235604
    44  O   -0.253502
    45  O   -0.332695
    46  C    0.137356
    47  C    0.268449
    48  C   -0.133506
    49  C   -0.243326
    50  C    0.025060
    51  C    0.039347
    52  C   -0.013869
    53  C    0.004096
    54  C   -0.188673
    55  C    0.023505
    56  C   -0.008727
    57  C   -0.036391
    58  C    0.009242
    59  C   -0.198920
    60  C   -0.013221
    61  C    0.048035
    62  C   -0.031516
    63  C   -0.018598
    64  C   -0.256091
    65  C    0.010889
    66  C    0.040055
    67  H   -0.002762
    68  H    0.027678
    69  H   -0.001181
    70  H    0.021068
    71  H    0.032262
    72  H    0.053845
    73  H    0.042673
    74  H    0.034421
    75  H    0.049182
    76  H    0.043539
    77  H    0.059667
    78  H    0.044835
    79  H    0.042754
    80  H    0.072950
    81  H    0.033901
    82  H    0.041076
    83  H    0.047854
    84  H    0.036668
    85  H    0.045779
    86  H    0.032584
    87  H    0.048044
    88  H    0.028599
    89  H    0.029681
    90  H    0.033911
    91  H    0.025003
    92  H    0.042815
    93  H    0.033865
    94  H    0.050390
    95  H    0.049560
    96  H    0.045608
    97  H    0.051525
    98  H    0.062914
    99  H    0.042993
   100  H    0.053811
   101  H    0.068212
   102  H    0.053600
   103  H    0.053964
   104  H    0.013885
   105  H    0.044453
   106  H    0.022546
   107  H    0.046874
   108  H    0.017133
   109  H    0.023967
   110  H    0.037865
   111  H    0.026870
   112  H    0.022142
   113  H    0.023278
   114  H    0.018222
   115  H    0.029086
   116  H    0.024681
   117  H    0.014789
   118  H    0.009146
   119  H    0.007656
   120  H    0.017678
   121  H    0.013433
   122  H    0.027991
   123  H    0.022067
   124  H    0.028213
   125  H    0.028457
   126  H    0.016769
   127  H    0.040359
   128  H    0.000862
   129  H    0.014415
   130  H    0.019236
   131  H    0.017566
   132  H    0.011166
   133  H    0.005016
   134  H    0.013084
   135  H    0.030121
   136  H    0.038937
   137  H    0.024486
   138  H    0.013002
   139  H    0.025830
   140  H    0.045996
 Sum of Mulliken charges =  -0.00000

 Dipole moment (field-independent basis, Debye):
    X=              5.6687    Y=              1.9841    Z=              0.9929  Tot=              6.0875
 Quadrupole moment (field-independent basis, Debye-Ang):
   XX=           -377.3788   YY=           -425.2617   ZZ=           -409.3364
   XY=            -25.2055   XZ=             14.0945   YZ=              0.4448

 Normal termination of Gaussian 16 at Wed Apr 27 16:11:25 2022.
