 Gaussian 16, Revision A.03,
 Gaussian 16:  ES64L-G16RevA.03 25-Dec-2016

 --------------------
 #p ZINDO=(nstates=5)
 --------------------

 ------------------------------
 step_1251_chromophore_12 ZINDO
 ------------------------------
 Symbolic Z-matrix:
 Charge =  0 Multiplicity = 1

                         Standard orientation:
 ---------------------------------------------------------------------
 Center     Atomic      Atomic             Coordinates (Angstroms)
 Number     Number       Type             X           Y           Z
 ---------------------------------------------------------------------
      1         12           0       -4.093982    0.641582   -0.214815
      2          6           0       -3.517089   -2.769848    0.605137
      3          6           0       -0.700859    1.059165    0.319121
      4          6           0       -4.555435    3.793314   -0.748037
      5          6           0       -7.439688   -0.097186   -0.293812
      6          7           0       -2.320706   -0.786006    0.237974
      7          6           0       -2.313113   -2.091248    0.534310
      8          6           0       -0.922365   -2.685412    0.592623
      9          6           0       -0.082569   -1.398374    0.867379
     10          6           0       -1.061151   -0.296799    0.391109
     11          6           0        0.435535   -1.154594    2.352268
     12          6           0       -0.519491   -3.446754   -0.720160
     13          6           0        0.409585   -4.675049   -0.523643
     14          6           0        1.507604   -4.818106   -1.604873
     15          8           0        1.350607   -5.019687   -2.795274
     16          8           0        2.741943   -4.610347   -1.068593
     17          7           0       -2.764266    2.214544   -0.396637
     18          6           0       -1.412658    2.151019   -0.045825
     19          6           0       -0.923358    3.552144    0.056218
     20          6           0       -1.993326    4.380085   -0.357941
     21          6           0       -3.168524    3.500556   -0.558270
     22          6           0        0.480962    3.971740    0.250012
     23          6           0       -2.030991    5.823030   -0.561135
     24          8           0       -2.972338    6.428392   -1.005640
     25          6           0       -0.798682    6.750351   -0.330817
     26          7           0       -5.805884    1.609648   -0.822278
     27          6           0       -5.766755    2.993899   -0.820918
     28          6           0       -7.193601    3.566153   -1.075676
     29          6           0       -8.102048    2.294291   -1.034371
     30          6           0       -7.052956    1.127108   -0.794965
     31          6           0       -7.567260    4.686164   -0.169146
     32          6           0       -8.869656    2.199760   -2.409546
     33          6           0       -8.054051    2.062690   -3.730314
     34          7           0       -5.287085   -1.059650    0.068286
     35          6           0       -6.609597   -1.206907    0.044364
     36          6           0       -7.001465   -2.489610    0.464981
     37          6           0       -5.806847   -3.181187    0.646558
     38          6           0       -4.754880   -2.246651    0.355698
     39          6           0       -8.404132   -2.885120    0.723270
     40          6           0       -5.218624   -4.396536    1.031692
     41          8           0       -5.759180   -5.409411    1.404991
     42          6           0       -3.654870   -4.170113    0.963221
     43          6           0       -3.119681   -4.484226    2.301595
     44          8           0       -3.366990   -3.820328    3.294850
     45          8           0       -2.233850   -5.472619    2.264569
     46          6           0       -1.503369   -5.776804    3.508590
     47          6           0        3.899786   -4.707658   -1.902593
     48          6           0        5.152145   -4.612313   -1.051550
     49          6           0        6.381198   -4.756579   -1.468456
     50          6           0        6.822381   -5.086713   -2.906592
     51          6           0        7.590028   -4.664924   -0.538006
     52          6           0        7.884558   -3.221881   -0.159863
     53          6           0        9.340478   -2.874175   -0.372821
     54          6           0        9.496857   -1.409238   -0.914637
     55          6           0       10.976899   -1.166493   -1.142510
     56          6           0        8.987250   -0.325117    0.048321
     57          6           0        8.566175    1.048218   -0.572912
     58          6           0        8.934760    2.326246    0.286312
     59          6           0        7.761378    3.386081    0.166537
     60          6           0        8.167530    4.261644   -1.072237
     61          6           0        7.672153    4.256783    1.444670
     62          6           0        6.265247    4.350114    2.023150
     63          6           0        5.361976    5.162152    1.127747
     64          6           0        4.794603    6.352820    1.852714
     65          6           0        3.760113    5.799323    2.855508
     66          6           0        4.449516    7.463562    0.894631
     67          1           0        0.354854    1.227759    0.541490
     68          1           0       -4.709246    4.856198   -0.947559
     69          1           0       -8.518855   -0.258714   -0.259428
     70          1           0       -0.928662   -3.317290    1.480332
     71          1           0        0.828097   -1.518990    0.280907
     72          1           0       -0.255891   -0.475527    2.850795
     73          1           0        1.459051   -0.779427    2.375736
     74          1           0        0.461089   -2.128781    2.839588
     75          1           0       -0.121082   -2.781904   -1.486204
     76          1           0       -1.396526   -3.873006   -1.206636
     77          1           0       -0.258652   -5.534453   -0.581266
     78          1           0        0.839456   -4.826802    0.466978
     79          1           0        0.615467    4.882093    0.833680
     80          1           0        0.981369    4.070092   -0.713001
     81          1           0        0.965599    3.197691    0.845562
     82          1           0       -0.234379    6.705615    0.601280
     83          1           0       -0.892457    7.822253   -0.504352
     84          1           0       -0.075434    6.418795   -1.075092
     85          1           0       -7.205595    3.900361   -2.113745
     86          1           0       -8.820342    2.329599   -0.214823
     87          1           0       -6.694397    5.083831    0.349354
     88          1           0       -8.338501    4.370893    0.533051
     89          1           0       -8.000102    5.486272   -0.769912
     90          1           0       -9.531527    3.065291   -2.424223
     91          1           0       -9.525744    1.336441   -2.294397
     92          1           0       -6.978681    2.212182   -3.640349
     93          1           0       -8.266340    2.866686   -4.435404
     94          1           0       -8.253947    1.104305   -4.209240
     95          1           0       -8.908716   -2.259159    1.458665
     96          1           0       -8.320782   -3.855801    1.212880
     97          1           0       -8.965023   -3.062395   -0.194771
     98          1           0       -3.328455   -4.845457    0.172216
     99          1           0       -0.760766   -5.022634    3.766631
    100          1           0       -0.927362   -6.695152    3.396987
    101          1           0       -2.114332   -5.903580    4.402789
    102          1           0        4.054869   -3.919460   -2.639819
    103          1           0        3.941861   -5.647496   -2.452793
    104          1           0        5.118596   -4.255708   -0.021703
    105          1           0        7.392261   -4.220132   -3.241840
    106          1           0        5.961365   -5.291308   -3.542433
    107          1           0        7.420695   -5.989438   -3.031321
    108          1           0        8.423286   -5.236530   -0.947493
    109          1           0        7.343012   -5.240365    0.354047
    110          1           0        7.542354   -3.042452    0.859677
    111          1           0        7.312785   -2.602043   -0.850266
    112          1           0        9.781910   -3.516262   -1.135083
    113          1           0        9.908511   -2.972233    0.552886
    114          1           0        8.883025   -1.294977   -1.807927
    115          1           0       11.605840   -1.987864   -0.799608
    116          1           0       11.341659   -0.194177   -0.810977
    117          1           0       11.210592   -1.092941   -2.204184
    118          1           0        9.637017   -0.164334    0.908758
    119          1           0        8.079950   -0.651255    0.557405
    120          1           0        7.504194    1.002480   -0.814276
    121          1           0        9.017642    1.214811   -1.550212
    122          1           0        9.902648    2.616203   -0.122267
    123          1           0        9.169352    2.034413    1.309949
    124          1           0        6.750673    3.069794   -0.092741
    125          1           0        9.177311    4.625996   -0.882030
    126          1           0        7.560816    5.167482   -1.074790
    127          1           0        7.983252    3.739310   -2.010462
    128          1           0        8.009973    5.240556    1.119661
    129          1           0        8.355944    3.925240    2.225884
    130          1           0        6.294489    4.792668    3.018296
    131          1           0        5.862612    3.350747    2.186462
    132          1           0        4.503909    4.590844    0.774196
    133          1           0        5.903622    5.520770    0.252970
    134          1           0        5.620503    6.741997    2.448138
    135          1           0        4.042874    6.249003    3.808036
    136          1           0        3.792371    4.715714    2.972046
    137          1           0        2.785620    6.189029    2.561182
    138          1           0        3.463166    7.854486    1.140635
    139          1           0        4.314778    7.046921   -0.103367
    140          1           0        5.265546    8.179726    0.997346
 ---------------------------------------------------------------------

 SCF Done:  E(RZINDO/S) =  -474.870877148     A.U. after   19 cycles

 Excitation energies and oscillator strengths:

 Excited State   1:      Singlet-A      1.2846 eV  965.13 nm  f=0.5720  <S**2>=0.000
     175 ->178         0.19736
     176 ->177         0.66151
 This state for optimization and/or second-order correction.
 Total Energy, E(CIS/TDA) =  -474.823667836
 Copying the excited state density for this state as the 1-particle RhoCI density.

 Excited State   2:      Singlet-A      1.9264 eV  643.62 nm  f=0.0204  <S**2>=0.000
     175 ->177         0.52946
     176 ->178        -0.44497

 Excited State   3:      Singlet-A      2.8871 eV  429.44 nm  f=0.0068  <S**2>=0.000
     168 ->177        -0.31510
     168 ->179         0.42923
     168 ->180         0.21927
     168 ->181        -0.10583
     168 ->185         0.24947
     168 ->195        -0.11420

 Excited State   4:      Singlet-A      2.9373 eV  422.10 nm  f=0.0017  <S**2>=0.000
     170 ->177         0.24247
     170 ->178        -0.10789
     170 ->179         0.18889
     170 ->180        -0.20366
     170 ->181         0.12969
     170 ->185         0.10554
     170 ->188         0.10185
     171 ->177         0.26458
     171 ->178        -0.11930
     171 ->179         0.21037
     171 ->180        -0.22289
     171 ->181         0.14206
     171 ->185         0.11748
     171 ->188         0.11107

 Excited State   5:      Singlet-A      2.9928 eV  414.28 nm  f=0.8701  <S**2>=0.000
     175 ->177         0.35347
     176 ->178         0.44380
     176 ->179        -0.32557
     176 ->180         0.15244

 The electronic state is 1-A.
 Alpha  occ. eigenvalues --   -1.88041  -1.81504  -1.80112  -1.74613  -1.73892
 Alpha  occ. eigenvalues --   -1.72009  -1.67980  -1.64523  -1.61451  -1.60552
 Alpha  occ. eigenvalues --   -1.56911  -1.52954  -1.49985  -1.48820  -1.46385
 Alpha  occ. eigenvalues --   -1.44042  -1.43611  -1.41730  -1.39475  -1.38385
 Alpha  occ. eigenvalues --   -1.36528  -1.34402  -1.33843  -1.32939  -1.29103
 Alpha  occ. eigenvalues --   -1.27489  -1.24069  -1.21951  -1.20706  -1.19233
 Alpha  occ. eigenvalues --   -1.18538  -1.18321  -1.16019  -1.15418  -1.13231
 Alpha  occ. eigenvalues --   -1.13045  -1.11821  -1.10582  -1.05957  -1.04308
 Alpha  occ. eigenvalues --   -1.02692  -1.01340  -0.98752  -0.98051  -0.97273
 Alpha  occ. eigenvalues --   -0.96445  -0.94918  -0.94107  -0.93738  -0.93564
 Alpha  occ. eigenvalues --   -0.91071  -0.90640  -0.90124  -0.88329  -0.87482
 Alpha  occ. eigenvalues --   -0.86287  -0.85961  -0.84159  -0.82299  -0.81379
 Alpha  occ. eigenvalues --   -0.80393  -0.79648  -0.78599  -0.77825  -0.77293
 Alpha  occ. eigenvalues --   -0.76423  -0.75632  -0.74410  -0.74336  -0.73989
 Alpha  occ. eigenvalues --   -0.73719  -0.73030  -0.71666  -0.71479  -0.71212
 Alpha  occ. eigenvalues --   -0.70317  -0.69257  -0.69104  -0.68239  -0.67538
 Alpha  occ. eigenvalues --   -0.66985  -0.66648  -0.66528  -0.66184  -0.65977
 Alpha  occ. eigenvalues --   -0.65767  -0.65248  -0.64746  -0.64374  -0.63844
 Alpha  occ. eigenvalues --   -0.63627  -0.63003  -0.62707  -0.62278  -0.61916
 Alpha  occ. eigenvalues --   -0.61620  -0.61000  -0.60685  -0.60527  -0.60513
 Alpha  occ. eigenvalues --   -0.60391  -0.59828  -0.59462  -0.59090  -0.58189
 Alpha  occ. eigenvalues --   -0.58099  -0.57523  -0.57142  -0.56610  -0.56323
 Alpha  occ. eigenvalues --   -0.55801  -0.55154  -0.54862  -0.54638  -0.54256
 Alpha  occ. eigenvalues --   -0.54125  -0.53930  -0.53591  -0.53157  -0.52765
 Alpha  occ. eigenvalues --   -0.52561  -0.52275  -0.52172  -0.51970  -0.51824
 Alpha  occ. eigenvalues --   -0.51645  -0.51039  -0.50983  -0.50704  -0.50420
 Alpha  occ. eigenvalues --   -0.50115  -0.49668  -0.49618  -0.49518  -0.49315
 Alpha  occ. eigenvalues --   -0.48970  -0.48816  -0.48540  -0.48504  -0.48094
 Alpha  occ. eigenvalues --   -0.47773  -0.47154  -0.47021  -0.46812  -0.46564
 Alpha  occ. eigenvalues --   -0.46263  -0.46031  -0.45822  -0.45741  -0.45688
 Alpha  occ. eigenvalues --   -0.45111  -0.44920  -0.44690  -0.44477  -0.44202
 Alpha  occ. eigenvalues --   -0.44001  -0.43670  -0.42845  -0.42719  -0.42405
 Alpha  occ. eigenvalues --   -0.41800  -0.41738  -0.41588  -0.39342  -0.39161
 Alpha  occ. eigenvalues --   -0.38196  -0.36741  -0.35133  -0.34923  -0.34027
 Alpha  occ. eigenvalues --   -0.33946  -0.32574  -0.32532  -0.32195  -0.26637
 Alpha  occ. eigenvalues --   -0.21840
 Alpha virt. eigenvalues --   -0.08218  -0.02403  -0.00627   0.01377   0.01752
 Alpha virt. eigenvalues --    0.02702   0.03060   0.03384   0.05094   0.05476
 Alpha virt. eigenvalues --    0.06351   0.06553   0.07090   0.07775   0.08336

 Mulliken charges:
               1
     1  Mg   0.430262
     2  C   -0.006043
     3  C   -0.053221
     4  C   -0.091774
     5  C   -0.075837
     6  N   -0.264487
     7  C    0.098183
     8  C    0.004104
     9  C   -0.003335
    10  C    0.127644
    11  C   -0.051595
    12  C   -0.012344
    13  C    0.003107
    14  C    0.468409
    15  O   -0.515786
    16  O   -0.267002
    17  N   -0.331618
    18  C    0.107976
    19  C    0.030973
    20  C   -0.038169
    21  C    0.159035
    22  C   -0.038718
    23  C    0.332748
    24  O   -0.515523
    25  C   -0.038906
    26  N   -0.271645
    27  C    0.152044
    28  C    0.011593
    29  C   -0.006568
    30  C    0.110279
    31  C   -0.046481
    32  C   -0.026193
    33  C   -0.054238
    34  N   -0.302102
    35  C    0.100641
    36  C    0.023697
    37  C   -0.053394
    38  C    0.087612
    39  C   -0.041404
    40  C    0.332918
    41  O   -0.525523
    42  C    0.055411
    43  C    0.503473
    44  O   -0.539561
    45  O   -0.258946
    46  C    0.076257
    47  C    0.112550
    48  C   -0.090699
    49  C   -0.010714
    50  C   -0.050328
    51  C   -0.026084
    52  C   -0.025397
    53  C   -0.031528
    54  C   -0.006634
    55  C   -0.057919
    56  C   -0.035241
    57  C   -0.044832
    58  C   -0.034567
    59  C   -0.016948
    60  C   -0.063677
    61  C   -0.034096
    62  C   -0.029830
    63  C   -0.027526
    64  C   -0.016413
    65  C   -0.056344
    66  C   -0.055182
    67  H    0.021575
    68  H    0.037438
    69  H    0.019849
    70  H    0.034204
    71  H    0.025170
    72  H    0.032161
    73  H    0.022940
    74  H    0.021511
    75  H    0.035215
    76  H    0.024753
    77  H    0.036690
    78  H    0.035741
    79  H    0.032673
    80  H    0.041129
    81  H    0.018422
    82  H    0.026562
    83  H    0.037812
    84  H    0.023899
    85  H    0.038593
    86  H    0.032428
    87  H    0.029093
    88  H    0.020985
    89  H    0.016576
    90  H    0.017611
    91  H    0.012153
    92  H    0.024072
    93  H    0.016297
    94  H    0.024327
    95  H    0.033420
    96  H    0.021639
    97  H    0.034010
    98  H    0.050030
    99  H    0.034723
   100  H    0.027953
   101  H    0.052669
   102  H    0.051893
   103  H    0.051551
   104  H    0.030479
   105  H    0.030397
   106  H    0.016138
   107  H    0.027308
   108  H    0.021644
   109  H    0.012541
   110  H    0.025193
   111  H    0.020455
   112  H    0.019557
   113  H    0.022040
   114  H    0.025686
   115  H    0.022187
   116  H    0.019571
   117  H    0.005209
   118  H    0.018308
   119  H    0.003028
   120  H    0.016190
   121  H    0.013215
   122  H    0.025210
   123  H    0.018705
   124  H    0.033658
   125  H    0.022884
   126  H    0.007471
   127  H    0.023784
   128  H    0.017149
   129  H    0.013815
   130  H    0.014768
   131  H    0.012706
   132  H    0.011303
   133  H    0.013733
   134  H    0.009889
   135  H    0.013849
   136  H    0.026948
   137  H    0.019257
   138  H    0.015097
   139  H    0.018846
   140  H    0.029474
 Sum of Mulliken charges =  -0.00000

 Dipole moment (field-independent basis, Debye):
    X=              8.5035    Y=              3.6062    Z=              0.6851  Tot=              9.2619
 N-N= 4.489206598621D+03 E-N= 0.000000000000D+00  KE=-9.652568099664D+03
 Leave Link  601 at Wed Apr 27 16:24:21 2022, MaxMem=  6710886400 cpu:               0.7 elap:               0.0
 (Enter /sw/apps/gaussian-16.0/g16/l9999.exe)
 1\1\GINC-BP1-COMPUTE196\SP\RZINDO CIS\STO-3G\C55H74Mg1N4O6\OF15641\27-
 Apr-2022\0\\#p ZINDO=(nstates=5)\\step_1251_chromophore_12 ZINDO\\0,1\
 Mg,0,46.164,16.433,28.432\C,0,44.409,15.447,31.363\C,0,47.72,18.752,30
 .475\C,0,47.657,17.531,25.787\C,0,44.16,14.271,26.684\N,0,46.149,16.87
 8,30.71\C,0,45.379,16.38,31.685\C,0,45.81,16.812,33.07\C,0,46.593,18.1
 17,32.722\C,0,46.902,17.888,31.222\C,0,45.87,19.509,32.991\C,0,46.667,
 15.729,33.817\C,0,46.485,15.677,35.358\C,0,47.797,15.437,36.143\O,0,48

 Normal termination of Gaussian 16 at Wed Apr 27 16:24:21 2022.
