 Gaussian 16, Revision A.03,
 Gaussian 16:  ES64L-G16RevA.03 25-Dec-2016

 ------------------------------
 #p blyp/Def2SVP td=(nstates=5)
 ------------------------------

 -------------------------------------------------
 step_551_chromophore_9 TDDFT with blyp functional
 -------------------------------------------------
 Symbolic Z-matrix:
 Charge =  0 Multiplicity = 1

                         Standard orientation:
 ---------------------------------------------------------------------
 Center     Atomic      Atomic             Coordinates (Angstroms)
 Number     Number       Type             X           Y           Z
 ---------------------------------------------------------------------
      1         12           0       -4.998234    0.797275   -0.129063
      2          6           0       -3.876430   -2.531935    0.279181
      3          6           0       -1.748784    1.796368   -0.303322
      4          6           0       -6.156223    3.959353   -0.279837
      5          6           0       -8.294279   -0.358659    0.559521
      6          7           0       -3.061553   -0.240193    0.047783
      7          6           0       -2.813309   -1.620027    0.098829
      8          6           0       -1.367435   -1.897131   -0.077155
      9          6           0       -0.693714   -0.529761    0.134551
     10          6           0       -1.924892    0.448188   -0.118776
     11          6           0       -0.142779   -0.432003    1.577459
     12          6           0       -0.975939   -2.534251   -1.434583
     13          6           0        0.444983   -3.280428   -1.577558
     14          6           0        1.408693   -3.250599   -0.337547
     15          8           0        1.411794   -4.068769    0.596256
     16          8           0        2.346468   -2.268945   -0.537971
     17          7           0       -4.067958    2.660769   -0.423806
     18          6           0       -2.677641    2.840581   -0.319951
     19          6           0       -2.428411    4.259718   -0.416245
     20          6           0       -3.758765    4.891737   -0.592249
     21          6           0       -4.755791    3.828179   -0.416219
     22          6           0       -1.082436    4.874595   -0.540164
     23          6           0       -4.126707    6.375089   -0.791131
     24          8           0       -5.275349    6.777427   -0.652871
     25          6           0       -3.029900    7.329753   -1.202470
     26          7           0       -7.039730    1.654613   -0.209913
     27          6           0       -7.201656    3.003006   -0.204687
     28          6           0       -8.557023    3.284150    0.378093
     29          6           0       -9.265232    1.935116    0.414380
     30          6           0       -8.131220    0.988074    0.275067
     31          6           0       -8.658759    4.202807    1.677168
     32          6           0      -10.412782    1.700370   -0.629964
     33          6           0       -9.902979    1.122076   -2.048138
     34          7           0       -5.897832   -1.055161    0.362268
     35          6           0       -7.272576   -1.383815    0.586278
     36          6           0       -7.445272   -2.864608    0.626296
     37          6           0       -6.099208   -3.337170    0.568555
     38          6           0       -5.251506   -2.194509    0.382227
     39          6           0       -8.739303   -3.557698    0.942726
     40          6           0       -5.253047   -4.486106    0.643606
     41          8           0       -5.561698   -5.652744    0.797991
     42          6           0       -3.803147   -4.009416    0.293019
     43          6           0       -2.841658   -4.593666    1.296176
     44          8           0       -2.587890   -4.075156    2.308252
     45          8           0       -2.267233   -5.780663    0.854302
     46          6           0       -1.173618   -6.335140    1.642528
     47          6           0        3.427998   -2.178085    0.437118
     48          6           0        4.790425   -1.992597   -0.266892
     49          6           0        5.536302   -2.826155   -1.099747
     50          6           0        5.159774   -4.196927   -1.492572
     51          6           0        6.879801   -2.281678   -1.606135
     52          6           0        6.816970   -1.299213   -2.764390
     53          6           0        8.056423   -1.396572   -3.581600
     54          6           0        8.561491   -0.062776   -4.145533
     55          6           0        8.673615   -0.087631   -5.754945
     56          6           0        9.947112    0.442112   -3.469167
     57          6           0        9.671792    1.141961   -2.228825
     58          6           0       10.842573    0.876238   -1.315495
     59          6           0       10.846278    1.886729   -0.108613
     60          6           0       11.800337    3.058383   -0.585558
     61          6           0       11.251289    1.321613    1.303308
     62          6           0       10.249298    1.763455    2.414383
     63          6           0       11.001629    2.395886    3.555880
     64          6           0       10.317554    1.996875    4.919859
     65          6           0       10.386326    3.127571    5.970946
     66          6           0       10.942439    0.692828    5.425047
     67          1           0       -0.724262    2.128088   -0.480811
     68          1           0       -6.624606    4.945167   -0.257093
     69          1           0       -9.309763   -0.689308    0.787222
     70          1           0       -0.970080   -2.585269    0.669476
     71          1           0        0.036842   -0.277479   -0.634963
     72          1           0       -0.959572   -0.769740    2.215863
     73          1           0        0.157158    0.566936    1.894924
     74          1           0        0.769845   -1.026725    1.606788
     75          1           0       -1.181133   -1.842396   -2.251728
     76          1           0       -1.723339   -3.322668   -1.520694
     77          1           0        1.014462   -2.889320   -2.420060
     78          1           0        0.097786   -4.263045   -1.898496
     79          1           0       -1.109865    5.752893    0.105069
     80          1           0       -0.793201    5.096678   -1.566577
     81          1           0       -0.344710    4.166985   -0.160925
     82          1           0       -2.346479    7.532061   -0.377773
     83          1           0       -3.413259    8.313086   -1.474236
     84          1           0       -2.517345    6.985160   -2.100980
     85          1           0       -8.962147    3.885916   -0.434964
     86          1           0       -9.586467    1.871756    1.454362
     87          1           0       -9.598527    4.740763    1.798802
     88          1           0       -7.861453    4.947330    1.663341
     89          1           0       -8.651419    3.570555    2.564423
     90          1           0      -10.975104    2.629512   -0.725129
     91          1           0      -11.064821    1.016425   -0.087564
     92          1           0      -10.391374    1.702113   -2.831047
     93          1           0      -10.162114    0.086451   -2.269758
     94          1           0       -8.838443    1.230894   -2.252536
     95          1           0       -9.245191   -2.813732    1.557802
     96          1           0       -8.601311   -4.454365    1.547021
     97          1           0       -9.380905   -3.790787    0.093035
     98          1           0       -3.719661   -4.437371   -0.706526
     99          1           0       -1.548294   -7.186812    2.208566
    100          1           0       -0.508334   -5.638432    2.152492
    101          1           0       -0.536768   -6.635700    0.809852
    102          1           0        3.614442   -3.011631    1.112962
    103          1           0        3.181182   -1.357142    1.109995
    104          1           0        5.219480   -1.049588    0.071583
    105          1           0        4.186640   -4.463338   -1.080838
    106          1           0        5.840531   -4.988656   -1.180352
    107          1           0        5.138430   -4.178655   -2.581422
    108          1           0        7.566125   -3.121275   -1.713324
    109          1           0        7.316166   -1.778693   -0.743499
    110          1           0        6.587976   -0.348483   -2.282664
    111          1           0        5.946864   -1.575709   -3.358769
    112          1           0        7.706425   -2.105358   -4.332754
    113          1           0        8.824108   -1.875602   -2.974512
    114          1           0        7.835137    0.748476   -4.104821
    115          1           0        8.180150    0.739324   -6.266568
    116          1           0        8.070561   -0.924451   -6.107105
    117          1           0        9.721382   -0.195689   -6.036384
    118          1           0       10.314623    1.209049   -4.150528
    119          1           0       10.611585   -0.410967   -3.327371
    120          1           0        8.814440    0.632677   -1.789497
    121          1           0        9.520762    2.192786   -2.475893
    122          1           0       11.761821    0.829677   -1.899423
    123          1           0       10.677709   -0.133130   -0.936575
    124          1           0        9.884721    2.387752    0.009245
    125          1           0       11.304093    4.023671   -0.686735
    126          1           0       12.293712    2.928927   -1.549131
    127          1           0       12.614368    3.214638    0.121534
    128          1           0       12.257722    1.662151    1.547078
    129          1           0       11.399908    0.242517    1.260243
    130          1           0        9.725102    0.866572    2.746682
    131          1           0        9.506409    2.459950    2.026671
    132          1           0       11.072362    3.476641    3.436668
    133          1           0       12.035932    2.080521    3.684657
    134          1           0        9.308979    1.730253    4.603441
    135          1           0       10.377216    4.081688    5.443482
    136          1           0       11.323042    3.149965    6.528560
    137          1           0        9.552699    3.162417    6.673029
    138          1           0       10.151609    0.012001    5.738833
    139          1           0       11.710564    0.689959    6.197845
    140          1           0       11.434386    0.148914    4.618818
 ---------------------------------------------------------------------

 SCF Done:  E(RB-LYP) =  -3007.37535808     A.U. after   20 cycles

 Excitation energies and oscillator strengths:

 Excited State   1:      Singlet-A      1.7446 eV  710.67 nm  f=0.1448  <S**2>=0.000
     244 -> 247       -0.38064
     245 -> 247       -0.27110
     245 -> 248        0.13709
     246 -> 247        0.51685
     246 <- 247       -0.11236
 This state for optimization and/or second-order correction.
 Total Energy, E(TD-HF/TD-DFT) =  -3007.31124440
 Copying the excited state density for this state as the 1-particle RhoCI density.

 Excited State   2:      Singlet-A      1.7909 eV  692.28 nm  f=0.1793  <S**2>=0.000
     244 -> 247        0.43139
     245 -> 247        0.29278
     245 -> 248        0.12666
     246 -> 247        0.46045
     246 <- 247       -0.10584

 Excited State   3:      Singlet-A      1.8975 eV  653.42 nm  f=0.0070  <S**2>=0.000
     243 -> 247        0.67645
     244 -> 247        0.13507
     245 -> 247       -0.12230

 Excited State   4:      Singlet-A      1.9744 eV  627.96 nm  f=0.0566  <S**2>=0.000
     243 -> 247        0.18803
     244 -> 247       -0.37932
     245 -> 247        0.51111
     246 -> 248       -0.21331

 Excited State   5:      Singlet-A      2.2904 eV  541.31 nm  f=0.0002  <S**2>=0.000
     241 -> 247        0.70419

 The electronic state is 1-A.
 Alpha  occ. eigenvalues --  -46.27537 -18.83721 -18.80095 -18.78130 -18.76044
 Alpha  occ. eigenvalues --  -18.75607 -18.75101 -14.03259 -14.02769 -14.01123
 Alpha  occ. eigenvalues --  -14.00836 -10.05655 -10.02610  -9.99933  -9.98890
 Alpha  occ. eigenvalues --   -9.98701  -9.96647  -9.96160  -9.96137  -9.96135
 Alpha  occ. eigenvalues --   -9.95954  -9.95889  -9.95826  -9.95628  -9.94656
 Alpha  occ. eigenvalues --   -9.94394  -9.94351  -9.94043  -9.94039  -9.93959
 Alpha  occ. eigenvalues --   -9.93538  -9.93513  -9.93376  -9.93343  -9.93150
 Alpha  occ. eigenvalues --   -9.93067  -9.93035  -9.93015  -9.92818  -9.92807
 Alpha  occ. eigenvalues --   -9.92716  -9.92708  -9.92679  -9.92526  -9.92438
 Alpha  occ. eigenvalues --   -9.92355  -9.92224  -9.92211  -9.92134  -9.92110
 Alpha  occ. eigenvalues --   -9.92087  -9.92081  -9.91907  -9.91705  -9.91549
 Alpha  occ. eigenvalues --   -9.91462  -9.91143  -9.91122  -9.91090  -9.91051
 Alpha  occ. eigenvalues --   -9.90945  -9.90861  -9.90756  -9.90710  -9.90659
 Alpha  occ. eigenvalues --   -9.90647  -2.91950  -1.72409  -1.71804  -1.71672
 Alpha  occ. eigenvalues --   -0.98562  -0.97645  -0.91359  -0.91145  -0.90420
 Alpha  occ. eigenvalues --   -0.90056  -0.86308  -0.85902  -0.85123  -0.84220
 Alpha  occ. eigenvalues --   -0.75397  -0.74419  -0.73403  -0.72784  -0.72398
 Alpha  occ. eigenvalues --   -0.72124  -0.71279  -0.70935  -0.70524  -0.70179
 Alpha  occ. eigenvalues --   -0.69442  -0.69248  -0.68549  -0.67130  -0.66541
 Alpha  occ. eigenvalues --   -0.66317  -0.65728  -0.65368  -0.64725  -0.64561
 Alpha  occ. eigenvalues --   -0.64250  -0.62555  -0.62068  -0.61285  -0.61001
 Alpha  occ. eigenvalues --   -0.60415  -0.60358  -0.59910  -0.59154  -0.58783
 Alpha  occ. eigenvalues --   -0.58335  -0.57719  -0.56769  -0.55662  -0.55529
 Alpha  occ. eigenvalues --   -0.53714  -0.53528  -0.52617  -0.52259  -0.51415
 Alpha  occ. eigenvalues --   -0.50964  -0.50863  -0.50690  -0.50638  -0.50450
 Alpha  occ. eigenvalues --   -0.49972  -0.49717  -0.49099  -0.47335  -0.46402
 Alpha  occ. eigenvalues --   -0.46304  -0.46119  -0.45726  -0.44946  -0.44604
 Alpha  occ. eigenvalues --   -0.44043  -0.43727  -0.43470  -0.42915  -0.42720
 Alpha  occ. eigenvalues --   -0.42321  -0.41893  -0.41662  -0.41456  -0.41360
 Alpha  occ. eigenvalues --   -0.40839  -0.40541  -0.40190  -0.39931  -0.39780
 Alpha  occ. eigenvalues --   -0.39654  -0.39564  -0.39451  -0.39062  -0.38975
 Alpha  occ. eigenvalues --   -0.38936  -0.38771  -0.38491  -0.38353  -0.38254
 Alpha  occ. eigenvalues --   -0.37833  -0.37612  -0.37521  -0.37412  -0.37151
 Alpha  occ. eigenvalues --   -0.36921  -0.36711  -0.36440  -0.36403  -0.36312
 Alpha  occ. eigenvalues --   -0.36099  -0.35864  -0.35851  -0.35748  -0.35544
 Alpha  occ. eigenvalues --   -0.35457  -0.35062  -0.35032  -0.34849  -0.34735
 Alpha  occ. eigenvalues --   -0.34501  -0.34397  -0.34255  -0.34001  -0.33706
 Alpha  occ. eigenvalues --   -0.33658  -0.33497  -0.33276  -0.33214  -0.33187
 Alpha  occ. eigenvalues --   -0.33101  -0.32788  -0.32710  -0.32522  -0.32478
 Alpha  occ. eigenvalues --   -0.32248  -0.32106  -0.31907  -0.31737  -0.31469
 Alpha  occ. eigenvalues --   -0.31334  -0.31260  -0.31138  -0.30867  -0.30821
 Alpha  occ. eigenvalues --   -0.30655  -0.30355  -0.30309  -0.30103  -0.29857
 Alpha  occ. eigenvalues --   -0.29750  -0.29564  -0.29072  -0.28850  -0.28771
 Alpha  occ. eigenvalues --   -0.28541  -0.28493  -0.28404  -0.28044  -0.27887
 Alpha  occ. eigenvalues --   -0.27662  -0.27600  -0.27364  -0.27028  -0.26944
 Alpha  occ. eigenvalues --   -0.26284  -0.26153  -0.26042  -0.25675  -0.25129
 Alpha  occ. eigenvalues --   -0.24964  -0.24899  -0.23779  -0.23647  -0.23186
 Alpha  occ. eigenvalues --   -0.23084  -0.22907  -0.21711  -0.21452  -0.20698
 Alpha  occ. eigenvalues --   -0.20192  -0.19852  -0.18619  -0.18324  -0.17119
 Alpha  occ. eigenvalues --   -0.15897
 Alpha virt. eigenvalues --   -0.11775  -0.06912  -0.06020  -0.04652  -0.04394
 Alpha virt. eigenvalues --   -0.03423  -0.01626  -0.01014  -0.00678  -0.00130
 Alpha virt. eigenvalues --    0.00921   0.01349   0.01502   0.02397   0.02837

 Mulliken charges:
               1
     1  Mg   0.658479
     2  C    0.043399
     3  C   -0.075505
     4  C   -0.051589
     5  C   -0.041510
     6  N   -0.213206
     7  C   -0.047081
     8  C   -0.012789
     9  C   -0.000159
    10  C    0.027888
    11  C    0.136545
    12  C    0.084865
    13  C    0.152013
    14  C    0.111774
    15  O   -0.209441
    16  O   -0.259574
    17  N   -0.314461
    18  C    0.168876
    19  C   -0.163625
    20  C   -0.005811
    21  C    0.146573
    22  C    0.183838
    23  C   -0.058155
    24  O   -0.161583
    25  C    0.123066
    26  N   -0.210635
    27  C   -0.027109
    28  C    0.032828
    29  C    0.037415
    30  C    0.008625
    31  C    0.124630
    32  C    0.106217
    33  C    0.058147
    34  N   -0.240468
    35  C    0.088960
    36  C   -0.176525
    37  C    0.122058
    38  C    0.040798
    39  C    0.161854
    40  C   -0.111983
    41  O   -0.124245
    42  C    0.046354
    43  C    0.094586
    44  O   -0.120947
    45  O   -0.292759
    46  C    0.213311
    47  C    0.296176
    48  C   -0.115225
    49  C   -0.148739
    50  C    0.160809
    51  C    0.081050
    52  C    0.097146
    53  C    0.148389
    54  C   -0.090737
    55  C    0.073573
    56  C    0.112745
    57  C    0.086401
    58  C    0.080573
    59  C   -0.063491
    60  C    0.077071
    61  C    0.120585
    62  C    0.087372
    63  C    0.066649
    64  C   -0.074068
    65  C    0.117794
    66  C    0.099505
    67  H   -0.064273
    68  H   -0.028323
    69  H   -0.064165
    70  H    0.000540
    71  H   -0.039625
    72  H    0.014109
    73  H   -0.020345
    74  H    0.000444
    75  H   -0.023558
    76  H   -0.025608
    77  H   -0.003981
    78  H   -0.002300
    79  H   -0.000706
    80  H    0.014079
    81  H   -0.016820
    82  H    0.009514
    83  H   -0.018381
    84  H    0.008059
    85  H   -0.033465
    86  H   -0.039837
    87  H   -0.011370
    88  H    0.005799
    89  H   -0.010764
    90  H   -0.016292
    91  H   -0.017091
    92  H   -0.014004
    93  H   -0.002876
    94  H    0.013835
    95  H   -0.004544
    96  H    0.011389
    97  H    0.006636
    98  H    0.017046
    99  H    0.021434
   100  H    0.025808
   101  H    0.000500
   102  H    0.014483
   103  H   -0.013517
   104  H   -0.038348
   105  H   -0.009919
   106  H    0.005377
   107  H   -0.003662
   108  H   -0.038618
   109  H   -0.027707
   110  H   -0.020715
   111  H   -0.033777
   112  H   -0.029245
   113  H   -0.026568
   114  H   -0.035444
   115  H   -0.017448
   116  H   -0.034813
   117  H   -0.006732
   118  H   -0.040426
   119  H   -0.024035
   120  H   -0.031590
   121  H   -0.028315
   122  H   -0.021214
   123  H   -0.045542
   124  H   -0.028346
   125  H   -0.022097
   126  H   -0.019703
   127  H   -0.024137
   128  H   -0.034464
   129  H   -0.041978
   130  H   -0.024184
   131  H   -0.020612
   132  H   -0.040885
   133  H   -0.030241
   134  H   -0.035621
   135  H   -0.030235
   136  H   -0.017075
   137  H   -0.012422
   138  H   -0.022292
   139  H   -0.015283
   140  H   -0.031032
 Sum of Mulliken charges =  -0.00000

 Dipole moment (field-independent basis, Debye):
    X=              3.8611    Y=              2.5910    Z=             -2.6177  Tot=              5.3361
 Quadrupole moment (field-independent basis, Debye-Ang):
   XX=           -374.5365   YY=           -439.0044   ZZ=           -408.2275
   XY=            -13.4199   XZ=              0.4528   YZ=             12.9462

 Normal termination of Gaussian 16 at Sat Apr 30 05:12:32 2022.
