 Gaussian 16, Revision A.03,
 Gaussian 16:  ES64L-G16RevA.03 25-Dec-2016

 -----------------------------------
 #p cam-b3lyp/Def2SVP td=(nstates=5)
 -----------------------------------

 ------------------------------------------------------
 step_551_chromophore_9 TDDFT with cam-b3lyp functional
 ------------------------------------------------------
 Symbolic Z-matrix:
 Charge =  0 Multiplicity = 1

                         Standard orientation:
 ---------------------------------------------------------------------
 Center     Atomic      Atomic             Coordinates (Angstroms)
 Number     Number       Type             X           Y           Z
 ---------------------------------------------------------------------
      1         12           0       -4.998234    0.797275   -0.129063
      2          6           0       -3.876430   -2.531935    0.279181
      3          6           0       -1.748784    1.796368   -0.303322
      4          6           0       -6.156223    3.959353   -0.279837
      5          6           0       -8.294279   -0.358659    0.559521
      6          7           0       -3.061553   -0.240193    0.047783
      7          6           0       -2.813309   -1.620027    0.098829
      8          6           0       -1.367435   -1.897131   -0.077155
      9          6           0       -0.693714   -0.529761    0.134551
     10          6           0       -1.924892    0.448188   -0.118776
     11          6           0       -0.142779   -0.432003    1.577459
     12          6           0       -0.975939   -2.534251   -1.434583
     13          6           0        0.444983   -3.280428   -1.577558
     14          6           0        1.408693   -3.250599   -0.337547
     15          8           0        1.411794   -4.068769    0.596256
     16          8           0        2.346468   -2.268945   -0.537971
     17          7           0       -4.067958    2.660769   -0.423806
     18          6           0       -2.677641    2.840581   -0.319951
     19          6           0       -2.428411    4.259718   -0.416245
     20          6           0       -3.758765    4.891737   -0.592249
     21          6           0       -4.755791    3.828179   -0.416219
     22          6           0       -1.082436    4.874595   -0.540164
     23          6           0       -4.126707    6.375089   -0.791131
     24          8           0       -5.275349    6.777427   -0.652871
     25          6           0       -3.029900    7.329753   -1.202470
     26          7           0       -7.039730    1.654613   -0.209913
     27          6           0       -7.201656    3.003006   -0.204687
     28          6           0       -8.557023    3.284150    0.378093
     29          6           0       -9.265232    1.935116    0.414380
     30          6           0       -8.131220    0.988074    0.275067
     31          6           0       -8.658759    4.202807    1.677168
     32          6           0      -10.412782    1.700370   -0.629964
     33          6           0       -9.902979    1.122076   -2.048138
     34          7           0       -5.897832   -1.055161    0.362268
     35          6           0       -7.272576   -1.383815    0.586278
     36          6           0       -7.445272   -2.864608    0.626296
     37          6           0       -6.099208   -3.337170    0.568555
     38          6           0       -5.251506   -2.194509    0.382227
     39          6           0       -8.739303   -3.557698    0.942726
     40          6           0       -5.253047   -4.486106    0.643606
     41          8           0       -5.561698   -5.652744    0.797991
     42          6           0       -3.803147   -4.009416    0.293019
     43          6           0       -2.841658   -4.593666    1.296176
     44          8           0       -2.587890   -4.075156    2.308252
     45          8           0       -2.267233   -5.780663    0.854302
     46          6           0       -1.173618   -6.335140    1.642528
     47          6           0        3.427998   -2.178085    0.437118
     48          6           0        4.790425   -1.992597   -0.266892
     49          6           0        5.536302   -2.826155   -1.099747
     50          6           0        5.159774   -4.196927   -1.492572
     51          6           0        6.879801   -2.281678   -1.606135
     52          6           0        6.816970   -1.299213   -2.764390
     53          6           0        8.056423   -1.396572   -3.581600
     54          6           0        8.561491   -0.062776   -4.145533
     55          6           0        8.673615   -0.087631   -5.754945
     56          6           0        9.947112    0.442112   -3.469167
     57          6           0        9.671792    1.141961   -2.228825
     58          6           0       10.842573    0.876238   -1.315495
     59          6           0       10.846278    1.886729   -0.108613
     60          6           0       11.800337    3.058383   -0.585558
     61          6           0       11.251289    1.321613    1.303308
     62          6           0       10.249298    1.763455    2.414383
     63          6           0       11.001629    2.395886    3.555880
     64          6           0       10.317554    1.996875    4.919859
     65          6           0       10.386326    3.127571    5.970946
     66          6           0       10.942439    0.692828    5.425047
     67          1           0       -0.724262    2.128088   -0.480811
     68          1           0       -6.624606    4.945167   -0.257093
     69          1           0       -9.309763   -0.689308    0.787222
     70          1           0       -0.970080   -2.585269    0.669476
     71          1           0        0.036842   -0.277479   -0.634963
     72          1           0       -0.959572   -0.769740    2.215863
     73          1           0        0.157158    0.566936    1.894924
     74          1           0        0.769845   -1.026725    1.606788
     75          1           0       -1.181133   -1.842396   -2.251728
     76          1           0       -1.723339   -3.322668   -1.520694
     77          1           0        1.014462   -2.889320   -2.420060
     78          1           0        0.097786   -4.263045   -1.898496
     79          1           0       -1.109865    5.752893    0.105069
     80          1           0       -0.793201    5.096678   -1.566577
     81          1           0       -0.344710    4.166985   -0.160925
     82          1           0       -2.346479    7.532061   -0.377773
     83          1           0       -3.413259    8.313086   -1.474236
     84          1           0       -2.517345    6.985160   -2.100980
     85          1           0       -8.962147    3.885916   -0.434964
     86          1           0       -9.586467    1.871756    1.454362
     87          1           0       -9.598527    4.740763    1.798802
     88          1           0       -7.861453    4.947330    1.663341
     89          1           0       -8.651419    3.570555    2.564423
     90          1           0      -10.975104    2.629512   -0.725129
     91          1           0      -11.064821    1.016425   -0.087564
     92          1           0      -10.391374    1.702113   -2.831047
     93          1           0      -10.162114    0.086451   -2.269758
     94          1           0       -8.838443    1.230894   -2.252536
     95          1           0       -9.245191   -2.813732    1.557802
     96          1           0       -8.601311   -4.454365    1.547021
     97          1           0       -9.380905   -3.790787    0.093035
     98          1           0       -3.719661   -4.437371   -0.706526
     99          1           0       -1.548294   -7.186812    2.208566
    100          1           0       -0.508334   -5.638432    2.152492
    101          1           0       -0.536768   -6.635700    0.809852
    102          1           0        3.614442   -3.011631    1.112962
    103          1           0        3.181182   -1.357142    1.109995
    104          1           0        5.219480   -1.049588    0.071583
    105          1           0        4.186640   -4.463338   -1.080838
    106          1           0        5.840531   -4.988656   -1.180352
    107          1           0        5.138430   -4.178655   -2.581422
    108          1           0        7.566125   -3.121275   -1.713324
    109          1           0        7.316166   -1.778693   -0.743499
    110          1           0        6.587976   -0.348483   -2.282664
    111          1           0        5.946864   -1.575709   -3.358769
    112          1           0        7.706425   -2.105358   -4.332754
    113          1           0        8.824108   -1.875602   -2.974512
    114          1           0        7.835137    0.748476   -4.104821
    115          1           0        8.180150    0.739324   -6.266568
    116          1           0        8.070561   -0.924451   -6.107105
    117          1           0        9.721382   -0.195689   -6.036384
    118          1           0       10.314623    1.209049   -4.150528
    119          1           0       10.611585   -0.410967   -3.327371
    120          1           0        8.814440    0.632677   -1.789497
    121          1           0        9.520762    2.192786   -2.475893
    122          1           0       11.761821    0.829677   -1.899423
    123          1           0       10.677709   -0.133130   -0.936575
    124          1           0        9.884721    2.387752    0.009245
    125          1           0       11.304093    4.023671   -0.686735
    126          1           0       12.293712    2.928927   -1.549131
    127          1           0       12.614368    3.214638    0.121534
    128          1           0       12.257722    1.662151    1.547078
    129          1           0       11.399908    0.242517    1.260243
    130          1           0        9.725102    0.866572    2.746682
    131          1           0        9.506409    2.459950    2.026671
    132          1           0       11.072362    3.476641    3.436668
    133          1           0       12.035932    2.080521    3.684657
    134          1           0        9.308979    1.730253    4.603441
    135          1           0       10.377216    4.081688    5.443482
    136          1           0       11.323042    3.149965    6.528560
    137          1           0        9.552699    3.162417    6.673029
    138          1           0       10.151609    0.012001    5.738833
    139          1           0       11.710564    0.689959    6.197845
    140          1           0       11.434386    0.148914    4.618818
 ---------------------------------------------------------------------

 SCF Done:  E(RCAM-B3LYP) =  -3007.16452205     A.U. after   18 cycles

 Excitation energies and oscillator strengths:

 Excited State   1:      Singlet-A      1.6511 eV  750.90 nm  f=0.3745  <S**2>=0.000
     245 -> 248        0.17925
     246 -> 247        0.68624
     245 <- 248        0.10950
 This state for optimization and/or second-order correction.
 Total Energy, E(TD-HF/TD-DFT) =  -3007.10384405
 Copying the excited state density for this state as the 1-particle RhoCI density.

 Excited State   2:      Singlet-A      2.1403 eV  579.28 nm  f=0.1271  <S**2>=0.000
     245 -> 247        0.64896
     246 -> 248       -0.26566

 Excited State   3:      Singlet-A      3.1339 eV  395.62 nm  f=0.0040  <S**2>=0.000
     244 -> 247        0.68725
     246 -> 248        0.10287

 Excited State   4:      Singlet-A      3.3651 eV  368.44 nm  f=0.0254  <S**2>=0.000
     240 -> 247       -0.12300
     240 -> 249        0.12169
     241 -> 247        0.51343
     241 -> 249       -0.20662
     241 -> 250       -0.14824
     242 -> 247        0.22968
     246 -> 248        0.20188

 Excited State   5:      Singlet-A      3.4839 eV  355.88 nm  f=0.0535  <S**2>=0.000
     240 -> 247        0.10734
     241 -> 247       -0.25547
     241 -> 249        0.10761
     242 -> 247        0.55390
     246 -> 248        0.27667

 The electronic state is 1-A.
 Alpha  occ. eigenvalues --  -46.89136 -19.26615 -19.22894 -19.21114 -19.19139
 Alpha  occ. eigenvalues --  -19.19043 -19.18121 -14.42172 -14.41617 -14.39526
 Alpha  occ. eigenvalues --  -14.39332 -10.41088 -10.37946 -10.35374 -10.34049
 Alpha  occ. eigenvalues --  -10.32806 -10.31102 -10.30740 -10.30719 -10.30479
 Alpha  occ. eigenvalues --  -10.30322 -10.30217 -10.30010 -10.29778 -10.28942
 Alpha  occ. eigenvalues --  -10.28725 -10.28720 -10.28562 -10.28269 -10.27939
 Alpha  occ. eigenvalues --  -10.27613 -10.27571 -10.27497 -10.27418 -10.27369
 Alpha  occ. eigenvalues --  -10.27211 -10.27130 -10.27085 -10.26896 -10.26831
 Alpha  occ. eigenvalues --  -10.26721 -10.26581 -10.26371 -10.26315 -10.26171
 Alpha  occ. eigenvalues --  -10.26148 -10.26144 -10.26131 -10.26016 -10.25855
 Alpha  occ. eigenvalues --  -10.25829 -10.25807 -10.25642 -10.25306 -10.25163
 Alpha  occ. eigenvalues --  -10.25106 -10.24993 -10.24845 -10.24790 -10.24752
 Alpha  occ. eigenvalues --  -10.24592 -10.24461 -10.24414 -10.24329 -10.24234
 Alpha  occ. eigenvalues --  -10.24200  -3.17445  -1.92385  -1.91870  -1.91756
 Alpha  occ. eigenvalues --   -1.16977  -1.16273  -1.09970  -1.09421  -1.08291
 Alpha  occ. eigenvalues --   -1.07912  -1.04027  -1.03602  -1.02627  -1.01835
 Alpha  occ. eigenvalues --   -0.92479  -0.91301  -0.90204  -0.89574  -0.89124
 Alpha  occ. eigenvalues --   -0.88879  -0.87862  -0.87464  -0.87057  -0.86800
 Alpha  occ. eigenvalues --   -0.86058  -0.85579  -0.84840  -0.83315  -0.82626
 Alpha  occ. eigenvalues --   -0.82439  -0.81687  -0.81559  -0.80640  -0.80405
 Alpha  occ. eigenvalues --   -0.79984  -0.78175  -0.77873  -0.76787  -0.76367
 Alpha  occ. eigenvalues --   -0.75763  -0.75733  -0.75177  -0.74418  -0.74007
 Alpha  occ. eigenvalues --   -0.73345  -0.72692  -0.71692  -0.70460  -0.70150
 Alpha  occ. eigenvalues --   -0.68326  -0.68047  -0.67007  -0.66726  -0.65496
 Alpha  occ. eigenvalues --   -0.65156  -0.64876  -0.64795  -0.64691  -0.64404
 Alpha  occ. eigenvalues --   -0.63925  -0.63718  -0.62991  -0.60977  -0.60022
 Alpha  occ. eigenvalues --   -0.59847  -0.59825  -0.59288  -0.58260  -0.58234
 Alpha  occ. eigenvalues --   -0.57276  -0.57012  -0.56480  -0.56161  -0.55883
 Alpha  occ. eigenvalues --   -0.55479  -0.55097  -0.54879  -0.54577  -0.54114
 Alpha  occ. eigenvalues --   -0.53488  -0.53341  -0.53093  -0.52888  -0.52604
 Alpha  occ. eigenvalues --   -0.52383  -0.52374  -0.52188  -0.51911  -0.51480
 Alpha  occ. eigenvalues --   -0.51387  -0.51290  -0.51022  -0.51008  -0.50666
 Alpha  occ. eigenvalues --   -0.50334  -0.50044  -0.49771  -0.49672  -0.49495
 Alpha  occ. eigenvalues --   -0.49306  -0.49082  -0.48990  -0.48693  -0.48516
 Alpha  occ. eigenvalues --   -0.48394  -0.48052  -0.47929  -0.47870  -0.47778
 Alpha  occ. eigenvalues --   -0.47528  -0.47331  -0.47103  -0.46720  -0.46613
 Alpha  occ. eigenvalues --   -0.46313  -0.46248  -0.46122  -0.45671  -0.45640
 Alpha  occ. eigenvalues --   -0.45536  -0.45331  -0.45065  -0.44903  -0.44840
 Alpha  occ. eigenvalues --   -0.44825  -0.44500  -0.44421  -0.44256  -0.44180
 Alpha  occ. eigenvalues --   -0.43693  -0.43641  -0.43598  -0.43344  -0.43291
 Alpha  occ. eigenvalues --   -0.42927  -0.42708  -0.42513  -0.42331  -0.42251
 Alpha  occ. eigenvalues --   -0.42049  -0.41701  -0.41650  -0.41279  -0.41163
 Alpha  occ. eigenvalues --   -0.41059  -0.40584  -0.40459  -0.40161  -0.39954
 Alpha  occ. eigenvalues --   -0.39811  -0.39679  -0.39441  -0.39017  -0.38812
 Alpha  occ. eigenvalues --   -0.38581  -0.38530  -0.38261  -0.37834  -0.37790
 Alpha  occ. eigenvalues --   -0.37443  -0.37318  -0.36735  -0.36693  -0.35721
 Alpha  occ. eigenvalues --   -0.35664  -0.35467  -0.35404  -0.34933  -0.34173
 Alpha  occ. eigenvalues --   -0.33807  -0.33457  -0.32722  -0.31177  -0.30985
 Alpha  occ. eigenvalues --   -0.29953  -0.29880  -0.29746  -0.29148  -0.23900
 Alpha  occ. eigenvalues --   -0.21205
 Alpha virt. eigenvalues --   -0.09038  -0.01762   0.00394   0.02565   0.02919
 Alpha virt. eigenvalues --    0.03813   0.04126   0.05157   0.06209   0.07152
 Alpha virt. eigenvalues --    0.07542   0.08042   0.08588   0.08901   0.09130

 Mulliken charges:
               1
     1  Mg   0.790602
     2  C    0.017190
     3  C   -0.092537
     4  C   -0.075891
     5  C   -0.046566
     6  N   -0.283019
     7  C   -0.002289
     8  C   -0.071950
     9  C   -0.055138
    10  C    0.047449
    11  C    0.088037
    12  C    0.044378
    13  C    0.089675
    14  C    0.179365
    15  O   -0.250174
    16  O   -0.321862
    17  N   -0.403021
    18  C    0.178879
    19  C   -0.167605
    20  C   -0.065306
    21  C    0.169396
    22  C    0.123806
    23  C    0.021664
    24  O   -0.201680
    25  C    0.038906
    26  N   -0.278951
    27  C    0.012754
    28  C   -0.039087
    29  C   -0.020008
    30  C    0.020018
    31  C    0.072435
    32  C    0.053853
    33  C   -0.003948
    34  N   -0.327367
    35  C    0.087859
    36  C   -0.160700
    37  C    0.037288
    38  C    0.077402
    39  C    0.107219
    40  C   -0.005718
    41  O   -0.164060
    42  C   -0.035701
    43  C    0.180585
    44  O   -0.156097
    45  O   -0.355688
    46  C    0.174807
    47  C    0.264879
    48  C   -0.140134
    49  C   -0.166634
    50  C    0.101256
    51  C    0.025592
    52  C    0.044390
    53  C    0.088697
    54  C   -0.148540
    55  C    0.021976
    56  C    0.053848
    57  C    0.039054
    58  C    0.027614
    59  C   -0.121399
    60  C    0.023316
    61  C    0.069317
    62  C    0.027834
    63  C    0.014235
    64  C   -0.136594
    65  C    0.059184
    66  C    0.037676
    67  H   -0.028749
    68  H    0.010654
    69  H   -0.028658
    70  H    0.033891
    71  H   -0.003154
    72  H    0.037819
    73  H    0.005812
    74  H    0.017672
    75  H    0.007202
    76  H    0.002623
    77  H    0.029655
    78  H    0.030894
    79  H    0.024614
    80  H    0.041513
    81  H    0.011323
    82  H    0.037345
    83  H    0.018637
    84  H    0.036103
    85  H    0.002033
    86  H   -0.002580
    87  H    0.013768
    88  H    0.029095
    89  H    0.012138
    90  H    0.011693
    91  H    0.009870
    92  H    0.009953
    93  H    0.021010
    94  H    0.034716
    95  H    0.017449
    96  H    0.038753
    97  H    0.032771
    98  H    0.057888
    99  H    0.043092
   100  H    0.049555
   101  H    0.022800
   102  H    0.045441
   103  H    0.013624
   104  H   -0.006773
   105  H    0.012526
   106  H    0.030190
   107  H    0.018400
   108  H   -0.008022
   109  H    0.001729
   110  H    0.005169
   111  H   -0.004382
   112  H    0.000812
   113  H    0.000710
   114  H   -0.002365
   115  H    0.006378
   116  H   -0.010420
   117  H    0.015733
   118  H   -0.009962
   119  H    0.004348
   120  H   -0.007772
   121  H   -0.000679
   122  H    0.007008
   123  H   -0.017820
   124  H    0.002919
   125  H    0.001577
   126  H    0.003642
   127  H   -0.000732
   128  H   -0.006111
   129  H   -0.012197
   130  H    0.003778
   131  H    0.007708
   132  H   -0.011282
   133  H   -0.002036
   134  H   -0.003103
   135  H   -0.005942
   136  H    0.006238
   137  H    0.012401
   138  H    0.002719
   139  H    0.009605
   140  H   -0.007029
 Sum of Mulliken charges =  -0.00000

 Dipole moment (field-independent basis, Debye):
    X=              4.2756    Y=              3.4375    Z=             -2.8428  Tot=              6.1789
 Quadrupole moment (field-independent basis, Debye-Ang):
   XX=           -375.5103   YY=           -434.9837   ZZ=           -408.1070
   XY=            -15.8257   XZ=              0.8023   YZ=             12.8564

 Normal termination of Gaussian 16 at Sat Apr 30 04:13:54 2022.
