 Gaussian 16, Revision A.03,
 Gaussian 16:  ES64L-G16RevA.03 25-Dec-2016

 ---------------------------------
 #p PBE1PBE/Def2SVP td=(nstates=5)
 ---------------------------------

 ----------------------------------------------------
 step_551_chromophore_9 TDDFT with PBE1PBE functional
 ----------------------------------------------------
 Symbolic Z-matrix:
 Charge =  0 Multiplicity = 1

                         Standard orientation:
 ---------------------------------------------------------------------
 Center     Atomic      Atomic             Coordinates (Angstroms)
 Number     Number       Type             X           Y           Z
 ---------------------------------------------------------------------
      1         12           0       -4.998234    0.797275   -0.129063
      2          6           0       -3.876430   -2.531935    0.279181
      3          6           0       -1.748784    1.796368   -0.303322
      4          6           0       -6.156223    3.959353   -0.279837
      5          6           0       -8.294279   -0.358659    0.559521
      6          7           0       -3.061553   -0.240193    0.047783
      7          6           0       -2.813309   -1.620027    0.098829
      8          6           0       -1.367435   -1.897131   -0.077155
      9          6           0       -0.693714   -0.529761    0.134551
     10          6           0       -1.924892    0.448188   -0.118776
     11          6           0       -0.142779   -0.432003    1.577459
     12          6           0       -0.975939   -2.534251   -1.434583
     13          6           0        0.444983   -3.280428   -1.577558
     14          6           0        1.408693   -3.250599   -0.337547
     15          8           0        1.411794   -4.068769    0.596256
     16          8           0        2.346468   -2.268945   -0.537971
     17          7           0       -4.067958    2.660769   -0.423806
     18          6           0       -2.677641    2.840581   -0.319951
     19          6           0       -2.428411    4.259718   -0.416245
     20          6           0       -3.758765    4.891737   -0.592249
     21          6           0       -4.755791    3.828179   -0.416219
     22          6           0       -1.082436    4.874595   -0.540164
     23          6           0       -4.126707    6.375089   -0.791131
     24          8           0       -5.275349    6.777427   -0.652871
     25          6           0       -3.029900    7.329753   -1.202470
     26          7           0       -7.039730    1.654613   -0.209913
     27          6           0       -7.201656    3.003006   -0.204687
     28          6           0       -8.557023    3.284150    0.378093
     29          6           0       -9.265232    1.935116    0.414380
     30          6           0       -8.131220    0.988074    0.275067
     31          6           0       -8.658759    4.202807    1.677168
     32          6           0      -10.412782    1.700370   -0.629964
     33          6           0       -9.902979    1.122076   -2.048138
     34          7           0       -5.897832   -1.055161    0.362268
     35          6           0       -7.272576   -1.383815    0.586278
     36          6           0       -7.445272   -2.864608    0.626296
     37          6           0       -6.099208   -3.337170    0.568555
     38          6           0       -5.251506   -2.194509    0.382227
     39          6           0       -8.739303   -3.557698    0.942726
     40          6           0       -5.253047   -4.486106    0.643606
     41          8           0       -5.561698   -5.652744    0.797991
     42          6           0       -3.803147   -4.009416    0.293019
     43          6           0       -2.841658   -4.593666    1.296176
     44          8           0       -2.587890   -4.075156    2.308252
     45          8           0       -2.267233   -5.780663    0.854302
     46          6           0       -1.173618   -6.335140    1.642528
     47          6           0        3.427998   -2.178085    0.437118
     48          6           0        4.790425   -1.992597   -0.266892
     49          6           0        5.536302   -2.826155   -1.099747
     50          6           0        5.159774   -4.196927   -1.492572
     51          6           0        6.879801   -2.281678   -1.606135
     52          6           0        6.816970   -1.299213   -2.764390
     53          6           0        8.056423   -1.396572   -3.581600
     54          6           0        8.561491   -0.062776   -4.145533
     55          6           0        8.673615   -0.087631   -5.754945
     56          6           0        9.947112    0.442112   -3.469167
     57          6           0        9.671792    1.141961   -2.228825
     58          6           0       10.842573    0.876238   -1.315495
     59          6           0       10.846278    1.886729   -0.108613
     60          6           0       11.800337    3.058383   -0.585558
     61          6           0       11.251289    1.321613    1.303308
     62          6           0       10.249298    1.763455    2.414383
     63          6           0       11.001629    2.395886    3.555880
     64          6           0       10.317554    1.996875    4.919859
     65          6           0       10.386326    3.127571    5.970946
     66          6           0       10.942439    0.692828    5.425047
     67          1           0       -0.724262    2.128088   -0.480811
     68          1           0       -6.624606    4.945167   -0.257093
     69          1           0       -9.309763   -0.689308    0.787222
     70          1           0       -0.970080   -2.585269    0.669476
     71          1           0        0.036842   -0.277479   -0.634963
     72          1           0       -0.959572   -0.769740    2.215863
     73          1           0        0.157158    0.566936    1.894924
     74          1           0        0.769845   -1.026725    1.606788
     75          1           0       -1.181133   -1.842396   -2.251728
     76          1           0       -1.723339   -3.322668   -1.520694
     77          1           0        1.014462   -2.889320   -2.420060
     78          1           0        0.097786   -4.263045   -1.898496
     79          1           0       -1.109865    5.752893    0.105069
     80          1           0       -0.793201    5.096678   -1.566577
     81          1           0       -0.344710    4.166985   -0.160925
     82          1           0       -2.346479    7.532061   -0.377773
     83          1           0       -3.413259    8.313086   -1.474236
     84          1           0       -2.517345    6.985160   -2.100980
     85          1           0       -8.962147    3.885916   -0.434964
     86          1           0       -9.586467    1.871756    1.454362
     87          1           0       -9.598527    4.740763    1.798802
     88          1           0       -7.861453    4.947330    1.663341
     89          1           0       -8.651419    3.570555    2.564423
     90          1           0      -10.975104    2.629512   -0.725129
     91          1           0      -11.064821    1.016425   -0.087564
     92          1           0      -10.391374    1.702113   -2.831047
     93          1           0      -10.162114    0.086451   -2.269758
     94          1           0       -8.838443    1.230894   -2.252536
     95          1           0       -9.245191   -2.813732    1.557802
     96          1           0       -8.601311   -4.454365    1.547021
     97          1           0       -9.380905   -3.790787    0.093035
     98          1           0       -3.719661   -4.437371   -0.706526
     99          1           0       -1.548294   -7.186812    2.208566
    100          1           0       -0.508334   -5.638432    2.152492
    101          1           0       -0.536768   -6.635700    0.809852
    102          1           0        3.614442   -3.011631    1.112962
    103          1           0        3.181182   -1.357142    1.109995
    104          1           0        5.219480   -1.049588    0.071583
    105          1           0        4.186640   -4.463338   -1.080838
    106          1           0        5.840531   -4.988656   -1.180352
    107          1           0        5.138430   -4.178655   -2.581422
    108          1           0        7.566125   -3.121275   -1.713324
    109          1           0        7.316166   -1.778693   -0.743499
    110          1           0        6.587976   -0.348483   -2.282664
    111          1           0        5.946864   -1.575709   -3.358769
    112          1           0        7.706425   -2.105358   -4.332754
    113          1           0        8.824108   -1.875602   -2.974512
    114          1           0        7.835137    0.748476   -4.104821
    115          1           0        8.180150    0.739324   -6.266568
    116          1           0        8.070561   -0.924451   -6.107105
    117          1           0        9.721382   -0.195689   -6.036384
    118          1           0       10.314623    1.209049   -4.150528
    119          1           0       10.611585   -0.410967   -3.327371
    120          1           0        8.814440    0.632677   -1.789497
    121          1           0        9.520762    2.192786   -2.475893
    122          1           0       11.761821    0.829677   -1.899423
    123          1           0       10.677709   -0.133130   -0.936575
    124          1           0        9.884721    2.387752    0.009245
    125          1           0       11.304093    4.023671   -0.686735
    126          1           0       12.293712    2.928927   -1.549131
    127          1           0       12.614368    3.214638    0.121534
    128          1           0       12.257722    1.662151    1.547078
    129          1           0       11.399908    0.242517    1.260243
    130          1           0        9.725102    0.866572    2.746682
    131          1           0        9.506409    2.459950    2.026671
    132          1           0       11.072362    3.476641    3.436668
    133          1           0       12.035932    2.080521    3.684657
    134          1           0        9.308979    1.730253    4.603441
    135          1           0       10.377216    4.081688    5.443482
    136          1           0       11.323042    3.149965    6.528560
    137          1           0        9.552699    3.162417    6.673029
    138          1           0       10.151609    0.012001    5.738833
    139          1           0       11.710564    0.689959    6.197845
    140          1           0       11.434386    0.148914    4.618818
 ---------------------------------------------------------------------

 SCF Done:  E(RPBE1PBE) =  -3005.35481511     A.U. after   15 cycles

 Excitation energies and oscillator strengths:

 Excited State   1:      Singlet-A      1.8082 eV  685.68 nm  f=0.3601  <S**2>=0.000
     245 -> 248        0.17139
     246 -> 247        0.69368
     246 <- 247       -0.11070
 This state for optimization and/or second-order correction.
 Total Energy, E(TD-HF/TD-DFT) =  -3005.28836527
 Copying the excited state density for this state as the 1-particle RhoCI density.

 Excited State   2:      Singlet-A      2.1435 eV  578.42 nm  f=0.1199  <S**2>=0.000
     245 -> 247        0.65833
     246 -> 248       -0.23869

 Excited State   3:      Singlet-A      2.7865 eV  444.95 nm  f=0.0076  <S**2>=0.000
     242 -> 247       -0.11310
     243 -> 247       -0.27594
     244 -> 247        0.62346

 Excited State   4:      Singlet-A      2.8612 eV  433.33 nm  f=0.0026  <S**2>=0.000
     242 -> 247        0.19804
     243 -> 247        0.56863
     244 -> 247        0.30632

 Excited State   5:      Singlet-A      3.0267 eV  409.63 nm  f=0.0018  <S**2>=0.000
     240 -> 247        0.59368
     240 -> 249       -0.10987
     241 -> 247        0.32765

 The electronic state is 1-A.
 Alpha  occ. eigenvalues --  -46.92497 -19.27298 -19.23607 -19.21394 -19.19331
 Alpha  occ. eigenvalues --  -19.19115 -19.18464 -14.41686 -14.41115 -14.39223
 Alpha  occ. eigenvalues --  -14.38955 -10.38143 -10.34958 -10.32367 -10.31290
 Alpha  occ. eigenvalues --  -10.30220 -10.28921 -10.28344 -10.28334 -10.28281
 Alpha  occ. eigenvalues --  -10.28013 -10.27855 -10.27737 -10.27048 -10.26567
 Alpha  occ. eigenvalues --  -10.26442 -10.26335 -10.26241 -10.25941 -10.25587
 Alpha  occ. eigenvalues --  -10.25398 -10.25372 -10.25168 -10.25090 -10.25088
 Alpha  occ. eigenvalues --  -10.24917 -10.24764 -10.24706 -10.24447 -10.24424
 Alpha  occ. eigenvalues --  -10.24393 -10.24334 -10.24000 -10.23935 -10.23754
 Alpha  occ. eigenvalues --  -10.23673 -10.23649 -10.23639 -10.23480 -10.23396
 Alpha  occ. eigenvalues --  -10.23308 -10.23282 -10.23116 -10.22868 -10.22838
 Alpha  occ. eigenvalues --  -10.22725 -10.22648 -10.22426 -10.22361 -10.22311
 Alpha  occ. eigenvalues --  -10.22024 -10.21972 -10.21830 -10.21742 -10.21677
 Alpha  occ. eigenvalues --  -10.21612  -3.14396  -1.87276  -1.86738  -1.86629
 Alpha  occ. eigenvalues --   -1.11786  -1.11057  -1.04563  -1.04274  -1.03144
 Alpha  occ. eigenvalues --   -1.02805  -0.98637  -0.98194  -0.97349  -0.96416
 Alpha  occ. eigenvalues --   -0.86898  -0.85416  -0.84326  -0.83805  -0.83227
 Alpha  occ. eigenvalues --   -0.83161  -0.82177  -0.81612  -0.81386  -0.81098
 Alpha  occ. eigenvalues --   -0.80304  -0.79747  -0.79017  -0.77570  -0.76951
 Alpha  occ. eigenvalues --   -0.76613  -0.75845  -0.75687  -0.74918  -0.74561
 Alpha  occ. eigenvalues --   -0.74339  -0.72483  -0.72083  -0.71072  -0.70568
 Alpha  occ. eigenvalues --   -0.70101  -0.69801  -0.69511  -0.68536  -0.68191
 Alpha  occ. eigenvalues --   -0.67736  -0.67115  -0.66097  -0.64761  -0.64530
 Alpha  occ. eigenvalues --   -0.62784  -0.62318  -0.61261  -0.61086  -0.60001
 Alpha  occ. eigenvalues --   -0.59368  -0.59341  -0.59233  -0.58911  -0.58839
 Alpha  occ. eigenvalues --   -0.58506  -0.57902  -0.57210  -0.55573  -0.54510
 Alpha  occ. eigenvalues --   -0.54310  -0.54243  -0.53863  -0.52936  -0.52681
 Alpha  occ. eigenvalues --   -0.51776  -0.51518  -0.50841  -0.50683  -0.50465
 Alpha  occ. eigenvalues --   -0.49962  -0.49607  -0.49419  -0.49075  -0.48580
 Alpha  occ. eigenvalues --   -0.47982  -0.47813  -0.47693  -0.47362  -0.47223
 Alpha  occ. eigenvalues --   -0.46899  -0.46740  -0.46682  -0.46502  -0.46027
 Alpha  occ. eigenvalues --   -0.45964  -0.45788  -0.45602  -0.45535  -0.45219
 Alpha  occ. eigenvalues --   -0.44811  -0.44659  -0.44303  -0.44203  -0.44024
 Alpha  occ. eigenvalues --   -0.43887  -0.43713  -0.43633  -0.43291  -0.43114
 Alpha  occ. eigenvalues --   -0.42980  -0.42629  -0.42521  -0.42446  -0.42387
 Alpha  occ. eigenvalues --   -0.42197  -0.41869  -0.41824  -0.41478  -0.41290
 Alpha  occ. eigenvalues --   -0.41067  -0.40917  -0.40835  -0.40383  -0.40285
 Alpha  occ. eigenvalues --   -0.40268  -0.39970  -0.39829  -0.39667  -0.39585
 Alpha  occ. eigenvalues --   -0.39493  -0.39257  -0.39140  -0.39012  -0.38936
 Alpha  occ. eigenvalues --   -0.38480  -0.38419  -0.38381  -0.38150  -0.37946
 Alpha  occ. eigenvalues --   -0.37707  -0.37567  -0.37275  -0.37137  -0.37038
 Alpha  occ. eigenvalues --   -0.36827  -0.36576  -0.36542  -0.36043  -0.35992
 Alpha  occ. eigenvalues --   -0.35850  -0.35460  -0.35321  -0.34893  -0.34878
 Alpha  occ. eigenvalues --   -0.34602  -0.34524  -0.34225  -0.33790  -0.33727
 Alpha  occ. eigenvalues --   -0.33521  -0.33302  -0.33075  -0.32626  -0.32589
 Alpha  occ. eigenvalues --   -0.32377  -0.32335  -0.31743  -0.31546  -0.30779
 Alpha  occ. eigenvalues --   -0.30607  -0.30386  -0.30328  -0.29766  -0.29392
 Alpha  occ. eigenvalues --   -0.28777  -0.28493  -0.28192  -0.26601  -0.25815
 Alpha  occ. eigenvalues --   -0.25620  -0.25092  -0.25049  -0.24621  -0.20845
 Alpha  occ. eigenvalues --   -0.18846
 Alpha virt. eigenvalues --   -0.11441  -0.05265  -0.03793  -0.01835  -0.01584
 Alpha virt. eigenvalues --   -0.00440   0.01054   0.01299   0.02340   0.02650
 Alpha virt. eigenvalues --    0.03759   0.04244   0.04646   0.05267   0.05772

 Mulliken charges:
               1
     1  Mg   0.935713
     2  C    0.008068
     3  C   -0.085686
     4  C   -0.076004
     5  C   -0.037225
     6  N   -0.387544
     7  C    0.078845
     8  C   -0.149295
     9  C   -0.130242
    10  C    0.084992
    11  C    0.024736
    12  C   -0.005998
    13  C    0.022535
    14  C    0.235027
    15  O   -0.283149
    16  O   -0.349593
    17  N   -0.514509
    18  C    0.203034
    19  C   -0.198745
    20  C   -0.105678
    21  C    0.197635
    22  C    0.060526
    23  C    0.070546
    24  O   -0.239961
    25  C   -0.033528
    26  N   -0.381606
    27  C    0.065716
    28  C   -0.121344
    29  C   -0.095746
    30  C    0.049540
    31  C    0.012406
    32  C   -0.006320
    33  C   -0.078126
    34  N   -0.452790
    35  C    0.105132
    36  C   -0.160812
    37  C   -0.015960
    38  C    0.127721
    39  C    0.050361
    40  C    0.097900
    41  O   -0.209603
    42  C   -0.156684
    43  C    0.275781
    44  O   -0.192948
    45  O   -0.390338
    46  C    0.119979
    47  C    0.220576
    48  C   -0.150872
    49  C   -0.208701
    50  C    0.036560
    51  C   -0.036401
    52  C   -0.018127
    53  C    0.033026
    54  C   -0.230018
    55  C   -0.037283
    56  C   -0.007812
    57  C   -0.024488
    58  C   -0.033776
    59  C   -0.206926
    60  C   -0.030006
    61  C    0.021471
    62  C   -0.040012
    63  C   -0.038681
    64  C   -0.234989
    65  C   -0.000976
    66  C   -0.018975
    67  H    0.002775
    68  H    0.042095
    69  H    0.001989
    70  H    0.076048
    71  H    0.032961
    72  H    0.065068
    73  H    0.034545
    74  H    0.051994
    75  H    0.039134
    76  H    0.041197
    77  H    0.060692
    78  H    0.061953
    79  H    0.053174
    80  H    0.067915
    81  H    0.038532
    82  H    0.063091
    83  H    0.046002
    84  H    0.062081
    85  H    0.041963
    86  H    0.036484
    87  H    0.041369
    88  H    0.056540
    89  H    0.039526
    90  H    0.044201
    91  H    0.041884
    92  H    0.038735
    93  H    0.048438
    94  H    0.064019
    95  H    0.044858
    96  H    0.066554
    97  H    0.060684
    98  H    0.094141
    99  H    0.065173
   100  H    0.071186
   101  H    0.045239
   102  H    0.071153
   103  H    0.040607
   104  H    0.022595
   105  H    0.043008
   106  H    0.057167
   107  H    0.046572
   108  H    0.023433
   109  H    0.035269
   110  H    0.035553
   111  H    0.029903
   112  H    0.033175
   113  H    0.032641
   114  H    0.036131
   115  H    0.033578
   116  H    0.017635
   117  H    0.042979
   118  H    0.024989
   119  H    0.035771
   120  H    0.032543
   121  H    0.031416
   122  H    0.038936
   123  H    0.016553
   124  H    0.040119
   125  H    0.028725
   126  H    0.030002
   127  H    0.026008
   128  H    0.025323
   129  H    0.019339
   130  H    0.036339
   131  H    0.039746
   132  H    0.021254
   133  H    0.030235
   134  H    0.035513
   135  H    0.022002
   136  H    0.033363
   137  H    0.040063
   138  H    0.030844
   139  H    0.036154
   140  H    0.020779
 Sum of Mulliken charges =  -0.00000

 Dipole moment (field-independent basis, Debye):
    X=              4.1154    Y=              3.1371    Z=             -2.8119  Tot=              5.8894
 Quadrupole moment (field-independent basis, Debye-Ang):
   XX=           -367.9970   YY=           -432.7842   ZZ=           -405.5457
   XY=            -14.9777   XZ=              0.1387   YZ=             13.0429

 Normal termination of Gaussian 16 at Sat Apr 30 04:31:41 2022.
