 Gaussian 16, Revision A.03,
 Gaussian 16:  ES64L-G16RevA.03 25-Dec-2016

 --------------------------------
 #p wB97XD/Def2SVP td=(nstates=5)
 --------------------------------

 ---------------------------------------------------
 step_551_chromophore_9 TDDFT with wB97XD functional
 ---------------------------------------------------
 Symbolic Z-matrix:
 Charge =  0 Multiplicity = 1

                         Standard orientation:
 ---------------------------------------------------------------------
 Center     Atomic      Atomic             Coordinates (Angstroms)
 Number     Number       Type             X           Y           Z
 ---------------------------------------------------------------------
      1         12           0       -4.998234    0.797275   -0.129063
      2          6           0       -3.876430   -2.531935    0.279181
      3          6           0       -1.748784    1.796368   -0.303322
      4          6           0       -6.156223    3.959353   -0.279837
      5          6           0       -8.294279   -0.358659    0.559521
      6          7           0       -3.061553   -0.240193    0.047783
      7          6           0       -2.813309   -1.620027    0.098829
      8          6           0       -1.367435   -1.897131   -0.077155
      9          6           0       -0.693714   -0.529761    0.134551
     10          6           0       -1.924892    0.448188   -0.118776
     11          6           0       -0.142779   -0.432003    1.577459
     12          6           0       -0.975939   -2.534251   -1.434583
     13          6           0        0.444983   -3.280428   -1.577558
     14          6           0        1.408693   -3.250599   -0.337547
     15          8           0        1.411794   -4.068769    0.596256
     16          8           0        2.346468   -2.268945   -0.537971
     17          7           0       -4.067958    2.660769   -0.423806
     18          6           0       -2.677641    2.840581   -0.319951
     19          6           0       -2.428411    4.259718   -0.416245
     20          6           0       -3.758765    4.891737   -0.592249
     21          6           0       -4.755791    3.828179   -0.416219
     22          6           0       -1.082436    4.874595   -0.540164
     23          6           0       -4.126707    6.375089   -0.791131
     24          8           0       -5.275349    6.777427   -0.652871
     25          6           0       -3.029900    7.329753   -1.202470
     26          7           0       -7.039730    1.654613   -0.209913
     27          6           0       -7.201656    3.003006   -0.204687
     28          6           0       -8.557023    3.284150    0.378093
     29          6           0       -9.265232    1.935116    0.414380
     30          6           0       -8.131220    0.988074    0.275067
     31          6           0       -8.658759    4.202807    1.677168
     32          6           0      -10.412782    1.700370   -0.629964
     33          6           0       -9.902979    1.122076   -2.048138
     34          7           0       -5.897832   -1.055161    0.362268
     35          6           0       -7.272576   -1.383815    0.586278
     36          6           0       -7.445272   -2.864608    0.626296
     37          6           0       -6.099208   -3.337170    0.568555
     38          6           0       -5.251506   -2.194509    0.382227
     39          6           0       -8.739303   -3.557698    0.942726
     40          6           0       -5.253047   -4.486106    0.643606
     41          8           0       -5.561698   -5.652744    0.797991
     42          6           0       -3.803147   -4.009416    0.293019
     43          6           0       -2.841658   -4.593666    1.296176
     44          8           0       -2.587890   -4.075156    2.308252
     45          8           0       -2.267233   -5.780663    0.854302
     46          6           0       -1.173618   -6.335140    1.642528
     47          6           0        3.427998   -2.178085    0.437118
     48          6           0        4.790425   -1.992597   -0.266892
     49          6           0        5.536302   -2.826155   -1.099747
     50          6           0        5.159774   -4.196927   -1.492572
     51          6           0        6.879801   -2.281678   -1.606135
     52          6           0        6.816970   -1.299213   -2.764390
     53          6           0        8.056423   -1.396572   -3.581600
     54          6           0        8.561491   -0.062776   -4.145533
     55          6           0        8.673615   -0.087631   -5.754945
     56          6           0        9.947112    0.442112   -3.469167
     57          6           0        9.671792    1.141961   -2.228825
     58          6           0       10.842573    0.876238   -1.315495
     59          6           0       10.846278    1.886729   -0.108613
     60          6           0       11.800337    3.058383   -0.585558
     61          6           0       11.251289    1.321613    1.303308
     62          6           0       10.249298    1.763455    2.414383
     63          6           0       11.001629    2.395886    3.555880
     64          6           0       10.317554    1.996875    4.919859
     65          6           0       10.386326    3.127571    5.970946
     66          6           0       10.942439    0.692828    5.425047
     67          1           0       -0.724262    2.128088   -0.480811
     68          1           0       -6.624606    4.945167   -0.257093
     69          1           0       -9.309763   -0.689308    0.787222
     70          1           0       -0.970080   -2.585269    0.669476
     71          1           0        0.036842   -0.277479   -0.634963
     72          1           0       -0.959572   -0.769740    2.215863
     73          1           0        0.157158    0.566936    1.894924
     74          1           0        0.769845   -1.026725    1.606788
     75          1           0       -1.181133   -1.842396   -2.251728
     76          1           0       -1.723339   -3.322668   -1.520694
     77          1           0        1.014462   -2.889320   -2.420060
     78          1           0        0.097786   -4.263045   -1.898496
     79          1           0       -1.109865    5.752893    0.105069
     80          1           0       -0.793201    5.096678   -1.566577
     81          1           0       -0.344710    4.166985   -0.160925
     82          1           0       -2.346479    7.532061   -0.377773
     83          1           0       -3.413259    8.313086   -1.474236
     84          1           0       -2.517345    6.985160   -2.100980
     85          1           0       -8.962147    3.885916   -0.434964
     86          1           0       -9.586467    1.871756    1.454362
     87          1           0       -9.598527    4.740763    1.798802
     88          1           0       -7.861453    4.947330    1.663341
     89          1           0       -8.651419    3.570555    2.564423
     90          1           0      -10.975104    2.629512   -0.725129
     91          1           0      -11.064821    1.016425   -0.087564
     92          1           0      -10.391374    1.702113   -2.831047
     93          1           0      -10.162114    0.086451   -2.269758
     94          1           0       -8.838443    1.230894   -2.252536
     95          1           0       -9.245191   -2.813732    1.557802
     96          1           0       -8.601311   -4.454365    1.547021
     97          1           0       -9.380905   -3.790787    0.093035
     98          1           0       -3.719661   -4.437371   -0.706526
     99          1           0       -1.548294   -7.186812    2.208566
    100          1           0       -0.508334   -5.638432    2.152492
    101          1           0       -0.536768   -6.635700    0.809852
    102          1           0        3.614442   -3.011631    1.112962
    103          1           0        3.181182   -1.357142    1.109995
    104          1           0        5.219480   -1.049588    0.071583
    105          1           0        4.186640   -4.463338   -1.080838
    106          1           0        5.840531   -4.988656   -1.180352
    107          1           0        5.138430   -4.178655   -2.581422
    108          1           0        7.566125   -3.121275   -1.713324
    109          1           0        7.316166   -1.778693   -0.743499
    110          1           0        6.587976   -0.348483   -2.282664
    111          1           0        5.946864   -1.575709   -3.358769
    112          1           0        7.706425   -2.105358   -4.332754
    113          1           0        8.824108   -1.875602   -2.974512
    114          1           0        7.835137    0.748476   -4.104821
    115          1           0        8.180150    0.739324   -6.266568
    116          1           0        8.070561   -0.924451   -6.107105
    117          1           0        9.721382   -0.195689   -6.036384
    118          1           0       10.314623    1.209049   -4.150528
    119          1           0       10.611585   -0.410967   -3.327371
    120          1           0        8.814440    0.632677   -1.789497
    121          1           0        9.520762    2.192786   -2.475893
    122          1           0       11.761821    0.829677   -1.899423
    123          1           0       10.677709   -0.133130   -0.936575
    124          1           0        9.884721    2.387752    0.009245
    125          1           0       11.304093    4.023671   -0.686735
    126          1           0       12.293712    2.928927   -1.549131
    127          1           0       12.614368    3.214638    0.121534
    128          1           0       12.257722    1.662151    1.547078
    129          1           0       11.399908    0.242517    1.260243
    130          1           0        9.725102    0.866572    2.746682
    131          1           0        9.506409    2.459950    2.026671
    132          1           0       11.072362    3.476641    3.436668
    133          1           0       12.035932    2.080521    3.684657
    134          1           0        9.308979    1.730253    4.603441
    135          1           0       10.377216    4.081688    5.443482
    136          1           0       11.323042    3.149965    6.528560
    137          1           0        9.552699    3.162417    6.673029
    138          1           0       10.151609    0.012001    5.738833
    139          1           0       11.710564    0.689959    6.197845
    140          1           0       11.434386    0.148914    4.618818
 ---------------------------------------------------------------------

 SCF Done:  E(RwB97XD) =  -3007.86443137     A.U. after   20 cycles

 Excitation energies and oscillator strengths:

 Excited State   1:      Singlet-A      1.5916 eV  778.97 nm  f=0.3731  <S**2>=0.000
     245 -> 248        0.18500
     246 -> 247        0.68397
     245 <- 248        0.11921
 This state for optimization and/or second-order correction.
 Total Energy, E(TD-HF/TD-DFT) =  -3007.80593950
 Copying the excited state density for this state as the 1-particle RhoCI density.

 Excited State   2:      Singlet-A      2.0828 eV  595.28 nm  f=0.1227  <S**2>=0.000
     245 -> 247        0.64642
     246 -> 248       -0.26924

 Excited State   3:      Singlet-A      3.1494 eV  393.68 nm  f=0.0030  <S**2>=0.000
     244 -> 247        0.67823
     246 -> 248        0.12008

 Excited State   4:      Singlet-A      3.4052 eV  364.10 nm  f=0.0428  <S**2>=0.000
     241 -> 247        0.14271
     242 -> 247        0.53068
     242 -> 249       -0.22612
     242 -> 250       -0.15887
     246 -> 248        0.23609

 Excited State   5:      Singlet-A      3.5171 eV  352.51 nm  f=0.1642  <S**2>=0.000
     239 -> 247       -0.12398
     241 -> 247        0.49543
     242 -> 247       -0.19443
     242 -> 249        0.11875
     245 -> 247        0.12418
     246 -> 248        0.37169

 The electronic state is 1-A.
 Alpha  occ. eigenvalues --  -46.95460 -19.31821 -19.28128 -19.26029 -19.24098
 Alpha  occ. eigenvalues --  -19.24023 -19.23141 -14.46775 -14.46201 -14.44100
 Alpha  occ. eigenvalues --  -14.43955 -10.44923 -10.41762 -10.39375 -10.38030
 Alpha  occ. eigenvalues --  -10.36696 -10.35120 -10.34785 -10.34752 -10.34557
 Alpha  occ. eigenvalues --  -10.34335 -10.34309 -10.33969 -10.33496 -10.33147
 Alpha  occ. eigenvalues --  -10.32830 -10.32631 -10.32509 -10.32280 -10.31913
 Alpha  occ. eigenvalues --  -10.31673 -10.31670 -10.31662 -10.31448 -10.31412
 Alpha  occ. eigenvalues --  -10.31155 -10.31110 -10.31095 -10.30925 -10.30881
 Alpha  occ. eigenvalues --  -10.30690 -10.30596 -10.30469 -10.30195 -10.30120
 Alpha  occ. eigenvalues --  -10.30033 -10.30030 -10.30023 -10.29977 -10.29766
 Alpha  occ. eigenvalues --  -10.29759 -10.29717 -10.29475 -10.29222 -10.29099
 Alpha  occ. eigenvalues --  -10.29018 -10.29006 -10.28784 -10.28732 -10.28681
 Alpha  occ. eigenvalues --  -10.28438 -10.28328 -10.28271 -10.28165 -10.28081
 Alpha  occ. eigenvalues --  -10.28041  -3.21230  -1.94857  -1.94316  -1.94208
 Alpha  occ. eigenvalues --   -1.19143  -1.18399  -1.12213  -1.11628  -1.10467
 Alpha  occ. eigenvalues --   -1.10111  -1.06008  -1.05592  -1.04640  -1.03899
 Alpha  occ. eigenvalues --   -0.94440  -0.93082  -0.91990  -0.91428  -0.90892
 Alpha  occ. eigenvalues --   -0.90802  -0.89762  -0.89271  -0.88970  -0.88741
 Alpha  occ. eigenvalues --   -0.88003  -0.87405  -0.86680  -0.85238  -0.84537
 Alpha  occ. eigenvalues --   -0.84296  -0.83577  -0.83441  -0.82543  -0.82226
 Alpha  occ. eigenvalues --   -0.81935  -0.80088  -0.79832  -0.78697  -0.78221
 Alpha  occ. eigenvalues --   -0.77700  -0.77505  -0.77099  -0.76228  -0.75854
 Alpha  occ. eigenvalues --   -0.75290  -0.74650  -0.73653  -0.72376  -0.72055
 Alpha  occ. eigenvalues --   -0.70309  -0.69938  -0.68883  -0.68713  -0.67475
 Alpha  occ. eigenvalues --   -0.66999  -0.66863  -0.66652  -0.66593  -0.66348
 Alpha  occ. eigenvalues --   -0.65921  -0.65548  -0.64838  -0.62959  -0.61976
 Alpha  occ. eigenvalues --   -0.61852  -0.61734  -0.61274  -0.60242  -0.60166
 Alpha  occ. eigenvalues --   -0.59183  -0.58964  -0.58333  -0.58103  -0.57865
 Alpha  occ. eigenvalues --   -0.57385  -0.57008  -0.56854  -0.56503  -0.55987
 Alpha  occ. eigenvalues --   -0.55369  -0.55230  -0.55047  -0.54824  -0.54541
 Alpha  occ. eigenvalues --   -0.54309  -0.54260  -0.54061  -0.53814  -0.53416
 Alpha  occ. eigenvalues --   -0.53294  -0.53157  -0.52925  -0.52886  -0.52558
 Alpha  occ. eigenvalues --   -0.52306  -0.51971  -0.51701  -0.51554  -0.51382
 Alpha  occ. eigenvalues --   -0.51228  -0.51005  -0.50931  -0.50609  -0.50405
 Alpha  occ. eigenvalues --   -0.50312  -0.49913  -0.49857  -0.49785  -0.49656
 Alpha  occ. eigenvalues --   -0.49419  -0.49283  -0.49022  -0.48645  -0.48487
 Alpha  occ. eigenvalues --   -0.48261  -0.48126  -0.48037  -0.47542  -0.47508
 Alpha  occ. eigenvalues --   -0.47461  -0.47190  -0.46964  -0.46767  -0.46747
 Alpha  occ. eigenvalues --   -0.46721  -0.46384  -0.46325  -0.46144  -0.46111
 Alpha  occ. eigenvalues --   -0.45567  -0.45528  -0.45495  -0.45264  -0.45246
 Alpha  occ. eigenvalues --   -0.44879  -0.44633  -0.44394  -0.44290  -0.44182
 Alpha  occ. eigenvalues --   -0.43930  -0.43637  -0.43615  -0.43145  -0.43041
 Alpha  occ. eigenvalues --   -0.42935  -0.42516  -0.42380  -0.42005  -0.41812
 Alpha  occ. eigenvalues --   -0.41666  -0.41576  -0.41299  -0.40862  -0.40690
 Alpha  occ. eigenvalues --   -0.40479  -0.40375  -0.40134  -0.39691  -0.39649
 Alpha  occ. eigenvalues --   -0.39370  -0.39286  -0.38691  -0.38585  -0.37738
 Alpha  occ. eigenvalues --   -0.37521  -0.37386  -0.37320  -0.36836  -0.36188
 Alpha  occ. eigenvalues --   -0.35768  -0.35291  -0.34928  -0.33259  -0.33044
 Alpha  occ. eigenvalues --   -0.32030  -0.31955  -0.31783  -0.31350  -0.25811
 Alpha  occ. eigenvalues --   -0.22992
 Alpha virt. eigenvalues --   -0.07403   0.00149   0.02438   0.04669   0.05175
 Alpha virt. eigenvalues --    0.06289   0.06940   0.07823   0.08752   0.09364
 Alpha virt. eigenvalues --    0.10402   0.10931   0.11554   0.11967   0.12562

 Mulliken charges:
               1
     1  Mg   0.927853
     2  C    0.006664
     3  C   -0.103575
     4  C   -0.089277
     5  C   -0.053895
     6  N   -0.354301
     7  C    0.040179
     8  C   -0.111659
     9  C   -0.106963
    10  C    0.069348
    11  C    0.042769
    12  C    0.006338
    13  C    0.036088
    14  C    0.220347
    15  O   -0.278131
    16  O   -0.347087
    17  N   -0.484663
    18  C    0.196543
    19  C   -0.186173
    20  C   -0.101324
    21  C    0.190926
    22  C    0.074669
    23  C    0.067659
    24  O   -0.233233
    25  C   -0.023644
    26  N   -0.348416
    27  C    0.045822
    28  C   -0.097018
    29  C   -0.068273
    30  C    0.039852
    31  C    0.026388
    32  C    0.005173
    33  C   -0.057907
    34  N   -0.414941
    35  C    0.097953
    36  C   -0.164252
    37  C   -0.011947
    38  C    0.110636
    39  C    0.062774
    40  C    0.076865
    41  O   -0.201154
    42  C   -0.113670
    43  C    0.251593
    44  O   -0.187054
    45  O   -0.387885
    46  C    0.133605
    47  C    0.234015
    48  C   -0.160192
    49  C   -0.195605
    50  C    0.051575
    51  C   -0.016198
    52  C   -0.003805
    53  C    0.048658
    54  C   -0.202935
    55  C   -0.023252
    56  C    0.008605
    57  C   -0.006254
    58  C   -0.010346
    59  C   -0.177746
    60  C   -0.019281
    61  C    0.034372
    62  C   -0.022895
    63  C   -0.023474
    64  C   -0.201407
    65  C    0.011745
    66  C   -0.010906
    67  H   -0.003443
    68  H    0.036290
    69  H   -0.003727
    70  H    0.055271
    71  H    0.024495
    72  H    0.059277
    73  H    0.028848
    74  H    0.038117
    75  H    0.032609
    76  H    0.026715
    77  H    0.055773
    78  H    0.057926
    79  H    0.046535
    80  H    0.064857
    81  H    0.034122
    82  H    0.058659
    83  H    0.045350
    84  H    0.057530
    85  H    0.029588
    86  H    0.024842
    87  H    0.036260
    88  H    0.049912
    89  H    0.032849
    90  H    0.036685
    91  H    0.034448
    92  H    0.032889
    93  H    0.043159
    94  H    0.052808
    95  H    0.036873
    96  H    0.062941
    97  H    0.056177
    98  H    0.087655
    99  H    0.062031
   100  H    0.068159
   101  H    0.041476
   102  H    0.066127
   103  H    0.036831
   104  H    0.018969
   105  H    0.035457
   106  H    0.052657
   107  H    0.039781
   108  H    0.015136
   109  H    0.025849
   110  H    0.026860
   111  H    0.021266
   112  H    0.024849
   113  H    0.021172
   114  H    0.023626
   115  H    0.028455
   116  H    0.010320
   117  H    0.036816
   118  H    0.016034
   119  H    0.026226
   120  H    0.015304
   121  H    0.024067
   122  H    0.028219
   123  H    0.005236
   124  H    0.025845
   125  H    0.023375
   126  H    0.023200
   127  H    0.019369
   128  H    0.013916
   129  H    0.012441
   130  H    0.026958
   131  H    0.031817
   132  H    0.013156
   133  H    0.019116
   134  H    0.023062
   135  H    0.014699
   136  H    0.026995
   137  H    0.035217
   138  H    0.025529
   139  H    0.031286
   140  H    0.012529
 Sum of Mulliken charges =  -0.00000

 Dipole moment (field-independent basis, Debye):
    X=              4.3663    Y=              3.5851    Z=             -2.9119  Tot=              6.3558
 Quadrupole moment (field-independent basis, Debye-Ang):
   XX=           -370.9793   YY=           -430.5214   ZZ=           -404.9975
   XY=            -16.1470   XZ=              0.6153   YZ=             12.8769

 Normal termination of Gaussian 16 at Sat Apr 30 04:59:58 2022.
