 Gaussian 16, Revision A.03,
 Gaussian 16:  ES64L-G16RevA.03 25-Dec-2016

 --------------------
 #p ZINDO=(nstates=5)
 --------------------

 ----------------------------
 step_551_chromophore_9 ZINDO
 ----------------------------
 Symbolic Z-matrix:
 Charge =  0 Multiplicity = 1

                         Standard orientation:
 ---------------------------------------------------------------------
 Center     Atomic      Atomic             Coordinates (Angstroms)
 Number     Number       Type             X           Y           Z
 ---------------------------------------------------------------------
      1         12           0       -4.998234    0.797275   -0.129063
      2          6           0       -3.876430   -2.531935    0.279181
      3          6           0       -1.748784    1.796368   -0.303322
      4          6           0       -6.156223    3.959353   -0.279837
      5          6           0       -8.294279   -0.358659    0.559521
      6          7           0       -3.061553   -0.240193    0.047783
      7          6           0       -2.813309   -1.620027    0.098829
      8          6           0       -1.367435   -1.897131   -0.077155
      9          6           0       -0.693714   -0.529761    0.134551
     10          6           0       -1.924892    0.448188   -0.118776
     11          6           0       -0.142779   -0.432003    1.577459
     12          6           0       -0.975939   -2.534251   -1.434583
     13          6           0        0.444983   -3.280428   -1.577558
     14          6           0        1.408693   -3.250599   -0.337547
     15          8           0        1.411794   -4.068769    0.596256
     16          8           0        2.346468   -2.268945   -0.537971
     17          7           0       -4.067958    2.660769   -0.423806
     18          6           0       -2.677641    2.840581   -0.319951
     19          6           0       -2.428411    4.259718   -0.416245
     20          6           0       -3.758765    4.891737   -0.592249
     21          6           0       -4.755791    3.828179   -0.416219
     22          6           0       -1.082436    4.874595   -0.540164
     23          6           0       -4.126707    6.375089   -0.791131
     24          8           0       -5.275349    6.777427   -0.652871
     25          6           0       -3.029900    7.329753   -1.202470
     26          7           0       -7.039730    1.654613   -0.209913
     27          6           0       -7.201656    3.003006   -0.204687
     28          6           0       -8.557023    3.284150    0.378093
     29          6           0       -9.265232    1.935116    0.414380
     30          6           0       -8.131220    0.988074    0.275067
     31          6           0       -8.658759    4.202807    1.677168
     32          6           0      -10.412782    1.700370   -0.629964
     33          6           0       -9.902979    1.122076   -2.048138
     34          7           0       -5.897832   -1.055161    0.362268
     35          6           0       -7.272576   -1.383815    0.586278
     36          6           0       -7.445272   -2.864608    0.626296
     37          6           0       -6.099208   -3.337170    0.568555
     38          6           0       -5.251506   -2.194509    0.382227
     39          6           0       -8.739303   -3.557698    0.942726
     40          6           0       -5.253047   -4.486106    0.643606
     41          8           0       -5.561698   -5.652744    0.797991
     42          6           0       -3.803147   -4.009416    0.293019
     43          6           0       -2.841658   -4.593666    1.296176
     44          8           0       -2.587890   -4.075156    2.308252
     45          8           0       -2.267233   -5.780663    0.854302
     46          6           0       -1.173618   -6.335140    1.642528
     47          6           0        3.427998   -2.178085    0.437118
     48          6           0        4.790425   -1.992597   -0.266892
     49          6           0        5.536302   -2.826155   -1.099747
     50          6           0        5.159774   -4.196927   -1.492572
     51          6           0        6.879801   -2.281678   -1.606135
     52          6           0        6.816970   -1.299213   -2.764390
     53          6           0        8.056423   -1.396572   -3.581600
     54          6           0        8.561491   -0.062776   -4.145533
     55          6           0        8.673615   -0.087631   -5.754945
     56          6           0        9.947112    0.442112   -3.469167
     57          6           0        9.671792    1.141961   -2.228825
     58          6           0       10.842573    0.876238   -1.315495
     59          6           0       10.846278    1.886729   -0.108613
     60          6           0       11.800337    3.058383   -0.585558
     61          6           0       11.251289    1.321613    1.303308
     62          6           0       10.249298    1.763455    2.414383
     63          6           0       11.001629    2.395886    3.555880
     64          6           0       10.317554    1.996875    4.919859
     65          6           0       10.386326    3.127571    5.970946
     66          6           0       10.942439    0.692828    5.425047
     67          1           0       -0.724262    2.128088   -0.480811
     68          1           0       -6.624606    4.945167   -0.257093
     69          1           0       -9.309763   -0.689308    0.787222
     70          1           0       -0.970080   -2.585269    0.669476
     71          1           0        0.036842   -0.277479   -0.634963
     72          1           0       -0.959572   -0.769740    2.215863
     73          1           0        0.157158    0.566936    1.894924
     74          1           0        0.769845   -1.026725    1.606788
     75          1           0       -1.181133   -1.842396   -2.251728
     76          1           0       -1.723339   -3.322668   -1.520694
     77          1           0        1.014462   -2.889320   -2.420060
     78          1           0        0.097786   -4.263045   -1.898496
     79          1           0       -1.109865    5.752893    0.105069
     80          1           0       -0.793201    5.096678   -1.566577
     81          1           0       -0.344710    4.166985   -0.160925
     82          1           0       -2.346479    7.532061   -0.377773
     83          1           0       -3.413259    8.313086   -1.474236
     84          1           0       -2.517345    6.985160   -2.100980
     85          1           0       -8.962147    3.885916   -0.434964
     86          1           0       -9.586467    1.871756    1.454362
     87          1           0       -9.598527    4.740763    1.798802
     88          1           0       -7.861453    4.947330    1.663341
     89          1           0       -8.651419    3.570555    2.564423
     90          1           0      -10.975104    2.629512   -0.725129
     91          1           0      -11.064821    1.016425   -0.087564
     92          1           0      -10.391374    1.702113   -2.831047
     93          1           0      -10.162114    0.086451   -2.269758
     94          1           0       -8.838443    1.230894   -2.252536
     95          1           0       -9.245191   -2.813732    1.557802
     96          1           0       -8.601311   -4.454365    1.547021
     97          1           0       -9.380905   -3.790787    0.093035
     98          1           0       -3.719661   -4.437371   -0.706526
     99          1           0       -1.548294   -7.186812    2.208566
    100          1           0       -0.508334   -5.638432    2.152492
    101          1           0       -0.536768   -6.635700    0.809852
    102          1           0        3.614442   -3.011631    1.112962
    103          1           0        3.181182   -1.357142    1.109995
    104          1           0        5.219480   -1.049588    0.071583
    105          1           0        4.186640   -4.463338   -1.080838
    106          1           0        5.840531   -4.988656   -1.180352
    107          1           0        5.138430   -4.178655   -2.581422
    108          1           0        7.566125   -3.121275   -1.713324
    109          1           0        7.316166   -1.778693   -0.743499
    110          1           0        6.587976   -0.348483   -2.282664
    111          1           0        5.946864   -1.575709   -3.358769
    112          1           0        7.706425   -2.105358   -4.332754
    113          1           0        8.824108   -1.875602   -2.974512
    114          1           0        7.835137    0.748476   -4.104821
    115          1           0        8.180150    0.739324   -6.266568
    116          1           0        8.070561   -0.924451   -6.107105
    117          1           0        9.721382   -0.195689   -6.036384
    118          1           0       10.314623    1.209049   -4.150528
    119          1           0       10.611585   -0.410967   -3.327371
    120          1           0        8.814440    0.632677   -1.789497
    121          1           0        9.520762    2.192786   -2.475893
    122          1           0       11.761821    0.829677   -1.899423
    123          1           0       10.677709   -0.133130   -0.936575
    124          1           0        9.884721    2.387752    0.009245
    125          1           0       11.304093    4.023671   -0.686735
    126          1           0       12.293712    2.928927   -1.549131
    127          1           0       12.614368    3.214638    0.121534
    128          1           0       12.257722    1.662151    1.547078
    129          1           0       11.399908    0.242517    1.260243
    130          1           0        9.725102    0.866572    2.746682
    131          1           0        9.506409    2.459950    2.026671
    132          1           0       11.072362    3.476641    3.436668
    133          1           0       12.035932    2.080521    3.684657
    134          1           0        9.308979    1.730253    4.603441
    135          1           0       10.377216    4.081688    5.443482
    136          1           0       11.323042    3.149965    6.528560
    137          1           0        9.552699    3.162417    6.673029
    138          1           0       10.151609    0.012001    5.738833
    139          1           0       11.710564    0.689959    6.197845
    140          1           0       11.434386    0.148914    4.618818
 ---------------------------------------------------------------------

 SCF Done:  E(RZINDO/S) =  -474.233209144     A.U. after   20 cycles

 Excitation energies and oscillator strengths:

 Excited State   1:      Singlet-A      1.2099 eV 1024.73 nm  f=0.6171  <S**2>=0.000
     175 ->178         0.19387
     176 ->177         0.66206
 This state for optimization and/or second-order correction.
 Total Energy, E(CIS/TDA) =  -474.188745540
 Copying the excited state density for this state as the 1-particle RhoCI density.

 Excited State   2:      Singlet-A      1.8847 eV  657.85 nm  f=0.0751  <S**2>=0.000
     175 ->177         0.56892
     176 ->178        -0.39436

 Excited State   3:      Singlet-A      2.9423 eV  421.38 nm  f=0.0923  <S**2>=0.000
     169 ->177         0.24440
     169 ->179         0.23663
     169 ->181        -0.22516
     169 ->187         0.12068
     170 ->177         0.22304
     170 ->179         0.22434
     170 ->181        -0.21836
     170 ->187         0.11738
     173 ->177         0.14472
     175 ->177         0.10131
     176 ->178         0.16700

 Excited State   4:      Singlet-A      2.9745 eV  416.82 nm  f=0.0052  <S**2>=0.000
     168 ->177         0.23825
     168 ->178        -0.10897
     168 ->179        -0.26957
     168 ->181        -0.25388
     168 ->186        -0.19932
     171 ->177         0.11999
     172 ->177        -0.33107
     173 ->177         0.19768
     176 ->179         0.12375

 Excited State   5:      Singlet-A      3.0156 eV  411.14 nm  f=0.9286  <S**2>=0.000
     171 ->177         0.14156
     172 ->177        -0.13391
     175 ->177         0.32825
     176 ->178         0.50077
     176 ->179        -0.12728
     176 ->181         0.10165

 The electronic state is 1-A.
 Alpha  occ. eigenvalues --   -1.83359  -1.82287  -1.79164  -1.72629  -1.71903
 Alpha  occ. eigenvalues --   -1.70159  -1.66774  -1.61739  -1.58723  -1.57950
 Alpha  occ. eigenvalues --   -1.56584  -1.49977  -1.49749  -1.47351  -1.44525
 Alpha  occ. eigenvalues --   -1.44298  -1.42775  -1.40384  -1.38861  -1.37950
 Alpha  occ. eigenvalues --   -1.35144  -1.33246  -1.32853  -1.32168  -1.28059
 Alpha  occ. eigenvalues --   -1.27175  -1.24580  -1.22794  -1.21558  -1.18225
 Alpha  occ. eigenvalues --   -1.16615  -1.16568  -1.15045  -1.13825  -1.12730
 Alpha  occ. eigenvalues --   -1.12341  -1.10156  -1.10094  -1.05281  -1.03910
 Alpha  occ. eigenvalues --   -1.01849  -1.01759  -0.98542  -0.98028  -0.97547
 Alpha  occ. eigenvalues --   -0.96502  -0.95468  -0.94134  -0.93030  -0.92415
 Alpha  occ. eigenvalues --   -0.91772  -0.90341  -0.87952  -0.87537  -0.87331
 Alpha  occ. eigenvalues --   -0.85599  -0.85001  -0.82838  -0.82044  -0.81265
 Alpha  occ. eigenvalues --   -0.79454  -0.78780  -0.78492  -0.76829  -0.76117
 Alpha  occ. eigenvalues --   -0.75499  -0.74969  -0.74817  -0.74322  -0.73996
 Alpha  occ. eigenvalues --   -0.72992  -0.72855  -0.71966  -0.71548  -0.70696
 Alpha  occ. eigenvalues --   -0.70285  -0.69706  -0.68411  -0.68253  -0.67637
 Alpha  occ. eigenvalues --   -0.66945  -0.66863  -0.66521  -0.66266  -0.65058
 Alpha  occ. eigenvalues --   -0.64584  -0.64290  -0.64035  -0.63393  -0.63029
 Alpha  occ. eigenvalues --   -0.62581  -0.62222  -0.62087  -0.62000  -0.61472
 Alpha  occ. eigenvalues --   -0.61312  -0.61214  -0.60648  -0.60639  -0.60412
 Alpha  occ. eigenvalues --   -0.59980  -0.59046  -0.58925  -0.58551  -0.58381
 Alpha  occ. eigenvalues --   -0.58281  -0.57492  -0.56968  -0.56796  -0.56294
 Alpha  occ. eigenvalues --   -0.56247  -0.55818  -0.55437  -0.55272  -0.54362
 Alpha  occ. eigenvalues --   -0.54130  -0.53989  -0.53920  -0.53269  -0.53188
 Alpha  occ. eigenvalues --   -0.52631  -0.52253  -0.51904  -0.51645  -0.51556
 Alpha  occ. eigenvalues --   -0.51451  -0.51038  -0.50920  -0.50646  -0.50254
 Alpha  occ. eigenvalues --   -0.49907  -0.49147  -0.48844  -0.48739  -0.48674
 Alpha  occ. eigenvalues --   -0.48506  -0.48460  -0.48302  -0.48081  -0.47854
 Alpha  occ. eigenvalues --   -0.47610  -0.47312  -0.47200  -0.46769  -0.46702
 Alpha  occ. eigenvalues --   -0.46165  -0.45971  -0.45528  -0.45254  -0.45024
 Alpha  occ. eigenvalues --   -0.44934  -0.44603  -0.44563  -0.44031  -0.43769
 Alpha  occ. eigenvalues --   -0.43527  -0.43446  -0.43063  -0.42349  -0.42044
 Alpha  occ. eigenvalues --   -0.41891  -0.41130  -0.41023  -0.39648  -0.38243
 Alpha  occ. eigenvalues --   -0.37677  -0.36948  -0.35410  -0.34401  -0.34315
 Alpha  occ. eigenvalues --   -0.32633  -0.32254  -0.31798  -0.31689  -0.26395
 Alpha  occ. eigenvalues --   -0.21732
 Alpha virt. eigenvalues --   -0.08781  -0.01888  -0.00399   0.00926   0.01547
 Alpha virt. eigenvalues --    0.02874   0.03211   0.03919   0.04095   0.04803
 Alpha virt. eigenvalues --    0.06285   0.06545   0.07355   0.07717   0.08202

 Mulliken charges:
               1
     1  Mg   0.421622
     2  C   -0.041234
     3  C   -0.074652
     4  C   -0.058221
     5  C   -0.066018
     6  N   -0.289057
     7  C    0.119330
     8  C    0.016709
     9  C   -0.004367
    10  C    0.141884
    11  C   -0.046736
    12  C   -0.026061
    13  C   -0.001675
    14  C    0.470348
    15  O   -0.514885
    16  O   -0.257849
    17  N   -0.335886
    18  C    0.112436
    19  C    0.003188
    20  C   -0.060292
    21  C    0.148916
    22  C   -0.038685
    23  C    0.330097
    24  O   -0.518165
    25  C   -0.029921
    26  N   -0.271773
    27  C    0.136564
    28  C    0.004656
    29  C    0.003641
    30  C    0.131009
    31  C   -0.052124
    32  C   -0.024139
    33  C   -0.056810
    34  N   -0.313881
    35  C    0.061192
    36  C    0.029447
    37  C   -0.062424
    38  C    0.129685
    39  C   -0.033333
    40  C    0.334462
    41  O   -0.527507
    42  C    0.056081
    43  C    0.492284
    44  O   -0.499564
    45  O   -0.283176
    46  C    0.071509
    47  C    0.102735
    48  C   -0.111187
    49  C    0.005876
    50  C   -0.033839
    51  C   -0.025225
    52  C   -0.019527
    53  C   -0.022430
    54  C   -0.033853
    55  C   -0.074299
    56  C   -0.033833
    57  C   -0.029950
    58  C   -0.031331
    59  C   -0.021787
    60  C   -0.066544
    61  C   -0.039833
    62  C   -0.027345
    63  C   -0.033515
    64  C   -0.011452
    65  C   -0.054990
    66  C   -0.057750
    67  H    0.020808
    68  H    0.046851
    69  H    0.029351
    70  H    0.043290
    71  H    0.023951
    72  H    0.036605
    73  H    0.014726
    74  H    0.026252
    75  H    0.028314
    76  H    0.014658
    77  H    0.032750
    78  H    0.043749
    79  H    0.030421
    80  H    0.037687
    81  H    0.021650
    82  H    0.040564
    83  H    0.029068
    84  H    0.033534
    85  H    0.020347
    86  H    0.023232
    87  H    0.019735
    88  H    0.032145
    89  H    0.020979
    90  H    0.024741
    91  H    0.020631
    92  H    0.010934
    93  H    0.025415
    94  H    0.031724
    95  H    0.021884
    96  H    0.036532
    97  H    0.037370
    98  H    0.057495
    99  H    0.050844
   100  H    0.059026
   101  H    0.022621
   102  H    0.056022
   103  H    0.035271
   104  H    0.020362
   105  H    0.024697
   106  H    0.033259
   107  H    0.026938
   108  H    0.018436
   109  H    0.013377
   110  H    0.023057
   111  H    0.016714
   112  H    0.022420
   113  H    0.022133
   114  H    0.021658
   115  H    0.020296
   116  H    0.011641
   117  H    0.022820
   118  H    0.017427
   119  H    0.029244
   120  H    0.020880
   121  H    0.026603
   122  H    0.027111
   123  H    0.008729
   124  H    0.024866
   125  H    0.012646
   126  H    0.017216
   127  H    0.014083
   128  H    0.018863
   129  H    0.018102
   130  H    0.020380
   131  H    0.025278
   132  H    0.015594
   133  H    0.019660
   134  H    0.023801
   135  H    0.009605
   136  H    0.021360
   137  H    0.020067
   138  H    0.010194
   139  H    0.024225
   140  H    0.008533
 Sum of Mulliken charges =  -0.00000

 Dipole moment (field-independent basis, Debye):
    X=              5.6395    Y=              4.6322    Z=             -4.6373  Tot=              8.6467
 N-N= 4.364273398088D+03 E-N= 0.000000000000D+00  KE=-9.403056021978D+03
 Leave Link  601 at Sat Apr 30 05:12:38 2022, MaxMem=  6710886400 cpu:               1.0 elap:               0.1
 (Enter /sw/apps/gaussian-16.0/g16/l9999.exe)
 1\1\GINC-BP1-COMPUTE070\SP\RZINDO CIS\STO-3G\C55H74Mg1N4O6\OF15641\30-
 Apr-2022\0\\#p ZINDO=(nstates=5)\\step_551_chromophore_9 ZINDO\\0,1\Mg
 ,0,35.362,1.151,29.763\C,0,32.996,2.261,32.146\C,0,37.738,1.207,32.2\C
 ,0,37.589,0.317,27.374\C,0,32.876,1.619,27.258\N,0,35.369,1.74,31.887\
 C,0,34.276,2.058,32.707\C,0,34.689,2.111,34.13\C,0,36.226,2.165,34.074
 \C,0,36.488,1.598,32.609\C,0,36.708,3.626,34.242\C,0,34.18,0.942,35.01
 1\C,0,34.172,1.105,36.614\C,0,34.767,2.43,37.212\O,0,34.139,3.484,37.4

 Normal termination of Gaussian 16 at Sat Apr 30 05:12:38 2022.
