 Gaussian 16, Revision A.03,
 Gaussian 16:  ES64L-G16RevA.03 25-Dec-2016

 ------------------------------
 #p blyp/Def2SVP td=(nstates=5)
 ------------------------------

 --------------------------------------------------
 step_651_chromophore_25 TDDFT with blyp functional
 --------------------------------------------------
 Symbolic Z-matrix:
 Charge =  0 Multiplicity = 1

                         Standard orientation:
 ---------------------------------------------------------------------
 Center     Atomic      Atomic             Coordinates (Angstroms)
 Number     Number       Type             X           Y           Z
 ---------------------------------------------------------------------
      1         12           0        6.146926    0.440454    0.081015
      2          6           0        3.797918   -2.246440    0.016146
      3          6           0        3.391251    2.643363    0.264908
      4          6           0        8.223134    2.886470   -0.273825
      5          6           0        8.672425   -1.916338   -0.087895
      6          7           0        3.884298    0.179419    0.016754
      7          6           0        3.185610   -0.998078    0.046320
      8          6           0        1.639858   -0.654798    0.065991
      9          6           0        1.583740    0.840965    0.170444
     10          6           0        3.028815    1.275076    0.240536
     11          6           0        0.730577    1.425133   -0.949249
     12          6           0        0.934985   -1.442013    1.244582
     13          6           0       -0.308940   -2.309979    0.817757
     14          6           0       -1.690502   -2.012376    1.451432
     15          8           0       -2.002701   -2.387646    2.567433
     16          8           0       -2.552166   -1.169806    0.662242
     17          7           0        5.881448    2.471952   -0.037264
     18          6           0        4.659716    3.225298    0.116106
     19          6           0        4.991453    4.638630    0.155263
     20          6           0        6.435363    4.754681   -0.094359
     21          6           0        6.887463    3.345435   -0.165266
     22          6           0        3.919850    5.701688    0.327630
     23          6           0        7.363818    5.988336   -0.178854
     24          8           0        8.604762    5.939062   -0.281214
     25          6           0        6.722968    7.289928   -0.172616
     26          7           0        8.188690    0.458960   -0.236303
     27          6           0        8.845800    1.621055   -0.263614
     28          6           0       10.329191    1.494282   -0.034235
     29          6           0       10.440248   -0.030517    0.199800
     30          6           0        8.976076   -0.535613   -0.023880
     31          6           0       11.302736    2.021116   -1.096247
     32          6           0       10.866912   -0.476732    1.669725
     33          6           0       11.778808   -1.742416    1.677029
     34          7           0        6.290473   -1.626735   -0.006691
     35          6           0        7.403163   -2.434119   -0.145402
     36          6           0        7.006261   -3.814478   -0.041554
     37          6           0        5.603018   -3.793204   -0.064399
     38          6           0        5.188360   -2.426526   -0.069255
     39          6           0        7.891219   -4.969186    0.080679
     40          6           0        4.399405   -4.606224   -0.121621
     41          8           0        4.305541   -5.847233   -0.137164
     42          6           0        3.205061   -3.671613   -0.007566
     43          6           0        2.236081   -3.879077   -1.091391
     44          8           0        2.158383   -3.328406   -2.196238
     45          8           0        1.366815   -4.902234   -0.680528
     46          6           0        0.299082   -5.156009   -1.700538
     47          6           0       -3.949344   -1.115222    1.053320
     48          6           0       -4.784974   -0.419091   -0.036075
     49          6           0       -6.095066   -0.451838   -0.375599
     50          6           0       -7.147619   -1.193046    0.508322
     51          6           0       -6.664663    0.482505   -1.531640
     52          6           0       -8.077872    0.171938   -2.031753
     53          6           0       -8.790613    1.522151   -2.360525
     54          6           0      -10.240386    1.320422   -2.904128
     55          6           0      -10.614435    2.275339   -4.007665
     56          6           0      -11.289464    1.312390   -1.746137
     57          6           0      -11.986770   -0.098895   -1.612793
     58          6           0      -13.575126   -0.085563   -1.847203
     59          6           0      -14.316581   -0.479596   -0.499500
     60          6           0      -15.670531   -1.085156   -0.753954
     61          6           0      -14.262719    0.722854    0.616080
     62          6           0      -14.047566    0.311715    2.125028
     63          6           0      -13.266827    1.424601    2.914492
     64          6           0      -11.864659    0.968439    3.261476
     65          6           0      -11.625115    1.121973    4.793237
     66          6           0      -10.855476    1.705560    2.344190
     67          1           0        2.514830    3.269549    0.440016
     68          1           0        8.977097    3.668119   -0.158401
     69          1           0        9.527048   -2.575395    0.073862
     70          1           0        1.230815   -0.988375   -0.887025
     71          1           0        0.962563    1.194624    0.993817
     72          1           0        1.357147    1.930164   -1.684947
     73          1           0        0.123380    2.220569   -0.517597
     74          1           0        0.149411    0.665924   -1.473147
     75          1           0        0.637451   -0.826072    2.093589
     76          1           0        1.714081   -2.110769    1.611439
     77          1           0       -0.147442   -3.387648    0.802666
     78          1           0       -0.466178   -2.009809   -0.217899
     79          1           0        4.091629    6.233596    1.263104
     80          1           0        2.904550    5.314508    0.250871
     81          1           0        4.037040    6.438473   -0.467891
     82          1           0        7.347936    8.174209   -0.052185
     83          1           0        6.115649    7.302166    0.731961
     84          1           0        6.116171    7.294277   -1.078592
     85          1           0       10.565946    1.930646    0.935898
     86          1           0       11.035927   -0.466806   -0.601705
     87          1           0       10.831926    2.053988   -2.079682
     88          1           0       12.235665    1.468189   -1.204947
     89          1           0       11.497434    3.054439   -0.809239
     90          1           0        9.991466   -0.830052    2.214085
     91          1           0       11.261221    0.271942    2.357120
     92          1           0       12.074108   -1.986095    0.656028
     93          1           0       11.334168   -2.639467    2.107978
     94          1           0       12.772455   -1.494232    2.049247
     95          1           0        8.128286   -5.443092   -0.872839
     96          1           0        7.333833   -5.658228    0.715091
     97          1           0        8.883098   -4.853565    0.517620
     98          1           0        2.611873   -3.911803    0.875251
     99          1           0        0.594199   -5.253816   -2.745104
    100          1           0       -0.497926   -4.412970   -1.664069
    101          1           0       -0.191497   -6.120484   -1.564771
    102          1           0       -3.976631   -0.505030    1.955905
    103          1           0       -4.291645   -2.125626    1.278154
    104          1           0       -4.165898    0.282473   -0.596511
    105          1           0       -7.540095   -2.033838   -0.063505
    106          1           0       -7.948329   -0.512923    0.796357
    107          1           0       -6.727493   -1.723482    1.362609
    108          1           0       -5.896176    0.445196   -2.304061
    109          1           0       -6.587698    1.523803   -1.218150
    110          1           0       -8.675212   -0.495651   -1.409235
    111          1           0       -7.992958   -0.199067   -3.052904
    112          1           0       -8.189348    2.096182   -3.065847
    113          1           0       -8.848125    2.074213   -1.421989
    114          1           0      -10.322584    0.318156   -3.324272
    115          1           0      -11.444644    2.924460   -3.728497
    116          1           0      -10.849919    1.676636   -4.887874
    117          1           0       -9.848544    2.988103   -4.313146
    118          1           0      -11.977556    2.153642   -1.820957
    119          1           0      -10.688797    1.380213   -0.838547
    120          1           0      -11.618965   -0.342378   -0.617063
    121          1           0      -11.720203   -0.931516   -2.263312
    122          1           0      -13.662647   -0.817049   -2.651092
    123          1           0      -13.951966    0.802613   -2.353664
    124          1           0      -13.610906   -1.180114   -0.053187
    125          1           0      -16.373339   -0.840571    0.041972
    126          1           0      -15.604485   -2.172017   -0.794897
    127          1           0      -16.085230   -0.558560   -1.614226
    128          1           0      -15.188162    1.296592    0.579188
    129          1           0      -13.567577    1.484404    0.261266
    130          1           0      -13.452054   -0.600748    2.142194
    131          1           0      -14.992541    0.184086    2.653385
    132          1           0      -13.923153    1.748644    3.722983
    133          1           0      -13.208595    2.350527    2.343211
    134          1           0      -11.659865   -0.049806    2.932032
    135          1           0      -11.187759    0.198716    5.173214
    136          1           0      -12.559312    1.196275    5.350880
    137          1           0      -10.958134    1.961742    4.984333
    138          1           0      -10.222744    0.930742    1.909097
    139          1           0      -10.206711    2.421375    2.849612
    140          1           0      -11.342598    2.349174    1.612544
 ---------------------------------------------------------------------

 SCF Done:  E(RB-LYP) =  -3007.34787638     A.U. after   21 cycles

 Excitation energies and oscillator strengths:

 Excited State   1:      Singlet-A      1.8060 eV  686.51 nm  f=0.2906  <S**2>=0.000
     245 -> 248        0.18620
     246 -> 247        0.68334
     246 <- 247       -0.14643
 This state for optimization and/or second-order correction.
 Total Energy, E(TD-HF/TD-DFT) =  -3007.28150730
 Copying the excited state density for this state as the 1-particle RhoCI density.

 Excited State   2:      Singlet-A      1.8969 eV  653.61 nm  f=0.0158  <S**2>=0.000
     244 -> 247        0.67520
     245 -> 247       -0.18187

 Excited State   3:      Singlet-A      1.9892 eV  623.27 nm  f=0.0205  <S**2>=0.000
     243 -> 247        0.60768
     244 -> 247        0.12440
     245 -> 247        0.31436
     246 -> 248       -0.10797

 Excited State   4:      Singlet-A      2.0461 eV  605.95 nm  f=0.0552  <S**2>=0.000
     243 -> 247       -0.35702
     244 -> 247        0.14732
     245 -> 247        0.53097
     246 -> 248       -0.23207

 Excited State   5:      Singlet-A      2.2420 eV  553.02 nm  f=0.0003  <S**2>=0.000
     242 -> 247        0.70701

 The electronic state is 1-A.
 Alpha  occ. eigenvalues --  -46.26859 -18.82721 -18.81220 -18.77504 -18.77263
 Alpha  occ. eigenvalues --  -18.75737 -18.75508 -14.03488 -14.03109 -14.01394
 Alpha  occ. eigenvalues --  -14.00902 -10.04425 -10.04378 -10.00083  -9.99983
 Alpha  occ. eigenvalues --   -9.98000  -9.97521  -9.96950  -9.96747  -9.96366
 Alpha  occ. eigenvalues --   -9.96247  -9.96064  -9.95984  -9.95328  -9.94971
 Alpha  occ. eigenvalues --   -9.94795  -9.94707  -9.93982  -9.93958  -9.93911
 Alpha  occ. eigenvalues --   -9.93860  -9.93773  -9.93714  -9.93651  -9.93535
 Alpha  occ. eigenvalues --   -9.93514  -9.93459  -9.93408  -9.93296  -9.93280
 Alpha  occ. eigenvalues --   -9.92659  -9.92535  -9.92501  -9.92265  -9.92177
 Alpha  occ. eigenvalues --   -9.92076  -9.92074  -9.92029  -9.92002  -9.91899
 Alpha  occ. eigenvalues --   -9.91875  -9.91840  -9.91782  -9.91466  -9.91464
 Alpha  occ. eigenvalues --   -9.91407  -9.91303  -9.91295  -9.91293  -9.91239
 Alpha  occ. eigenvalues --   -9.91043  -9.90904  -9.90883  -9.90652  -9.90611
 Alpha  occ. eigenvalues --   -9.90441  -2.91590  -1.72016  -1.71484  -1.71293
 Alpha  occ. eigenvalues --   -0.96933  -0.96254  -0.90393  -0.90391  -0.89595
 Alpha  occ. eigenvalues --   -0.89287  -0.88790  -0.85992  -0.84956  -0.84254
 Alpha  occ. eigenvalues --   -0.76156  -0.73008  -0.72919  -0.72336  -0.72244
 Alpha  occ. eigenvalues --   -0.72105  -0.71464  -0.71211  -0.70761  -0.70257
 Alpha  occ. eigenvalues --   -0.70110  -0.69027  -0.68122  -0.67708  -0.67038
 Alpha  occ. eigenvalues --   -0.66543  -0.65903  -0.65443  -0.64929  -0.64480
 Alpha  occ. eigenvalues --   -0.63943  -0.62681  -0.62188  -0.61723  -0.61095
 Alpha  occ. eigenvalues --   -0.60579  -0.60484  -0.60398  -0.59312  -0.58690
 Alpha  occ. eigenvalues --   -0.58180  -0.57688  -0.57220  -0.55722  -0.54841
 Alpha  occ. eigenvalues --   -0.54236  -0.53004  -0.52647  -0.52406  -0.52074
 Alpha  occ. eigenvalues --   -0.51454  -0.51015  -0.50692  -0.50569  -0.50057
 Alpha  occ. eigenvalues --   -0.49408  -0.48979  -0.48922  -0.48332  -0.46826
 Alpha  occ. eigenvalues --   -0.46429  -0.46087  -0.46025  -0.45465  -0.44804
 Alpha  occ. eigenvalues --   -0.44475  -0.43615  -0.43405  -0.42758  -0.42329
 Alpha  occ. eigenvalues --   -0.42017  -0.41823  -0.41477  -0.41158  -0.40708
 Alpha  occ. eigenvalues --   -0.40635  -0.40535  -0.40307  -0.40168  -0.39934
 Alpha  occ. eigenvalues --   -0.39625  -0.39544  -0.39540  -0.39441  -0.39166
 Alpha  occ. eigenvalues --   -0.38857  -0.38677  -0.38334  -0.38256  -0.38166
 Alpha  occ. eigenvalues --   -0.38094  -0.38003  -0.37810  -0.37484  -0.37377
 Alpha  occ. eigenvalues --   -0.37145  -0.37124  -0.36845  -0.36750  -0.36364
 Alpha  occ. eigenvalues --   -0.36150  -0.36096  -0.35928  -0.35695  -0.35542
 Alpha  occ. eigenvalues --   -0.35450  -0.35103  -0.34970  -0.34676  -0.34624
 Alpha  occ. eigenvalues --   -0.34529  -0.34410  -0.34358  -0.34217  -0.34002
 Alpha  occ. eigenvalues --   -0.33810  -0.33678  -0.33594  -0.33402  -0.33282
 Alpha  occ. eigenvalues --   -0.32992  -0.32874  -0.32832  -0.32652  -0.32521
 Alpha  occ. eigenvalues --   -0.32407  -0.31811  -0.31626  -0.31539  -0.31379
 Alpha  occ. eigenvalues --   -0.31248  -0.31128  -0.30913  -0.30731  -0.30585
 Alpha  occ. eigenvalues --   -0.30520  -0.30361  -0.30137  -0.29841  -0.29729
 Alpha  occ. eigenvalues --   -0.29620  -0.29556  -0.29383  -0.29159  -0.28972
 Alpha  occ. eigenvalues --   -0.28607  -0.28444  -0.28367  -0.28125  -0.27871
 Alpha  occ. eigenvalues --   -0.27754  -0.27517  -0.26936  -0.26671  -0.26518
 Alpha  occ. eigenvalues --   -0.26110  -0.25960  -0.25816  -0.25607  -0.25441
 Alpha  occ. eigenvalues --   -0.24987  -0.24595  -0.24344  -0.23737  -0.23516
 Alpha  occ. eigenvalues --   -0.23171  -0.22468  -0.22100  -0.21664  -0.20730
 Alpha  occ. eigenvalues --   -0.20480  -0.19966  -0.18954  -0.18639  -0.17585
 Alpha  occ. eigenvalues --   -0.16022
 Alpha virt. eigenvalues --   -0.11727  -0.07189  -0.06539  -0.04942  -0.03938
 Alpha virt. eigenvalues --   -0.03586  -0.02232  -0.01850  -0.01549  -0.00058
 Alpha virt. eigenvalues --    0.00658   0.01310   0.01634   0.02371   0.02903

 Mulliken charges:
               1
     1  Mg   0.695737
     2  C    0.033461
     3  C   -0.073192
     4  C   -0.027594
     5  C   -0.100230
     6  N   -0.215538
     7  C   -0.088936
     8  C    0.022960
     9  C    0.008075
    10  C    0.033772
    11  C    0.109498
    12  C    0.128343
    13  C    0.088323
    14  C    0.084193
    15  O   -0.184186
    16  O   -0.316687
    17  N   -0.316083
    18  C    0.182664
    19  C   -0.146635
    20  C   -0.000402
    21  C    0.102166
    22  C    0.169862
    23  C   -0.049512
    24  O   -0.179848
    25  C    0.150278
    26  N   -0.171055
    27  C   -0.025206
    28  C    0.056635
    29  C    0.003654
    30  C   -0.028115
    31  C    0.134714
    32  C    0.082962
    33  C    0.052897
    34  N   -0.286246
    35  C    0.195239
    36  C   -0.174043
    37  C    0.099535
    38  C    0.074789
    39  C    0.159487
    40  C   -0.040340
    41  O   -0.144948
    42  C    0.088223
    43  C    0.110172
    44  O   -0.188435
    45  O   -0.286090
    46  C    0.221183
    47  C    0.329724
    48  C   -0.110350
    49  C   -0.136733
    50  C    0.111839
    51  C    0.126061
    52  C    0.068903
    53  C    0.048040
    54  C   -0.061170
    55  C    0.122288
    56  C    0.103441
    57  C    0.002835
    58  C    0.080881
    59  C   -0.064801
    60  C    0.158137
    61  C    0.064426
    62  C    0.076864
    63  C    0.088125
    64  C   -0.088208
    65  C    0.119213
    66  C    0.072177
    67  H   -0.066932
    68  H   -0.046887
    69  H   -0.067730
    70  H    0.001799
    71  H   -0.027409
    72  H   -0.015175
    73  H   -0.016630
    74  H    0.005564
    75  H   -0.010166
    76  H   -0.021980
    77  H    0.027516
    78  H   -0.008830
    79  H    0.011152
    80  H   -0.008792
    81  H   -0.003842
    82  H   -0.008971
    83  H   -0.005555
    84  H    0.022676
    85  H   -0.024582
    86  H   -0.021424
    87  H   -0.008983
    88  H   -0.003434
    89  H    0.007107
    90  H   -0.016319
    91  H   -0.013314
    92  H   -0.021527
    93  H    0.008377
    94  H   -0.010378
    95  H    0.007106
    96  H    0.012500
    97  H   -0.018827
    98  H    0.014225
    99  H    0.018465
   100  H    0.005989
   101  H    0.006396
   102  H   -0.004469
   103  H   -0.000821
   104  H   -0.036764
   105  H   -0.000039
   106  H    0.020686
   107  H   -0.018783
   108  H   -0.020869
   109  H   -0.014114
   110  H   -0.014908
   111  H   -0.026237
   112  H   -0.030243
   113  H   -0.028378
   114  H   -0.040992
   115  H   -0.026269
   116  H   -0.015188
   117  H   -0.029500
   118  H   -0.014738
   119  H   -0.037699
   120  H   -0.017790
   121  H   -0.016301
   122  H   -0.044313
   123  H   -0.029271
   124  H   -0.041942
   125  H   -0.032939
   126  H   -0.008434
   127  H   -0.016310
   128  H   -0.044702
   129  H   -0.032952
   130  H   -0.023912
   131  H   -0.021973
   132  H   -0.042593
   133  H   -0.040329
   134  H   -0.027568
   135  H   -0.021774
   136  H   -0.014613
   137  H   -0.009759
   138  H   -0.001373
   139  H   -0.028971
   140  H   -0.001230
 Sum of Mulliken charges =  -0.00000

 Dipole moment (field-independent basis, Debye):
    X=             -1.4255    Y=              3.2023    Z=              0.8534  Tot=              3.6077
 Quadrupole moment (field-independent basis, Debye-Ang):
   XX=           -368.6215   YY=           -423.3302   ZZ=           -413.1039
   XY=             -9.2438   XZ=             16.7632   YZ=              7.4100

 Normal termination of Gaussian 16 at Sat Apr 30 08:46:25 2022.
