 Gaussian 16, Revision A.03,
 Gaussian 16:  ES64L-G16RevA.03 25-Dec-2016

 -----------------------------------
 #p cam-b3lyp/Def2SVP td=(nstates=5)
 -----------------------------------

 -------------------------------------------------------
 step_651_chromophore_25 TDDFT with cam-b3lyp functional
 -------------------------------------------------------
 Symbolic Z-matrix:
 Charge =  0 Multiplicity = 1

                         Standard orientation:
 ---------------------------------------------------------------------
 Center     Atomic      Atomic             Coordinates (Angstroms)
 Number     Number       Type             X           Y           Z
 ---------------------------------------------------------------------
      1         12           0        6.146926    0.440454    0.081015
      2          6           0        3.797918   -2.246440    0.016146
      3          6           0        3.391251    2.643363    0.264908
      4          6           0        8.223134    2.886470   -0.273825
      5          6           0        8.672425   -1.916338   -0.087895
      6          7           0        3.884298    0.179419    0.016754
      7          6           0        3.185610   -0.998078    0.046320
      8          6           0        1.639858   -0.654798    0.065991
      9          6           0        1.583740    0.840965    0.170444
     10          6           0        3.028815    1.275076    0.240536
     11          6           0        0.730577    1.425133   -0.949249
     12          6           0        0.934985   -1.442013    1.244582
     13          6           0       -0.308940   -2.309979    0.817757
     14          6           0       -1.690502   -2.012376    1.451432
     15          8           0       -2.002701   -2.387646    2.567433
     16          8           0       -2.552166   -1.169806    0.662242
     17          7           0        5.881448    2.471952   -0.037264
     18          6           0        4.659716    3.225298    0.116106
     19          6           0        4.991453    4.638630    0.155263
     20          6           0        6.435363    4.754681   -0.094359
     21          6           0        6.887463    3.345435   -0.165266
     22          6           0        3.919850    5.701688    0.327630
     23          6           0        7.363818    5.988336   -0.178854
     24          8           0        8.604762    5.939062   -0.281214
     25          6           0        6.722968    7.289928   -0.172616
     26          7           0        8.188690    0.458960   -0.236303
     27          6           0        8.845800    1.621055   -0.263614
     28          6           0       10.329191    1.494282   -0.034235
     29          6           0       10.440248   -0.030517    0.199800
     30          6           0        8.976076   -0.535613   -0.023880
     31          6           0       11.302736    2.021116   -1.096247
     32          6           0       10.866912   -0.476732    1.669725
     33          6           0       11.778808   -1.742416    1.677029
     34          7           0        6.290473   -1.626735   -0.006691
     35          6           0        7.403163   -2.434119   -0.145402
     36          6           0        7.006261   -3.814478   -0.041554
     37          6           0        5.603018   -3.793204   -0.064399
     38          6           0        5.188360   -2.426526   -0.069255
     39          6           0        7.891219   -4.969186    0.080679
     40          6           0        4.399405   -4.606224   -0.121621
     41          8           0        4.305541   -5.847233   -0.137164
     42          6           0        3.205061   -3.671613   -0.007566
     43          6           0        2.236081   -3.879077   -1.091391
     44          8           0        2.158383   -3.328406   -2.196238
     45          8           0        1.366815   -4.902234   -0.680528
     46          6           0        0.299082   -5.156009   -1.700538
     47          6           0       -3.949344   -1.115222    1.053320
     48          6           0       -4.784974   -0.419091   -0.036075
     49          6           0       -6.095066   -0.451838   -0.375599
     50          6           0       -7.147619   -1.193046    0.508322
     51          6           0       -6.664663    0.482505   -1.531640
     52          6           0       -8.077872    0.171938   -2.031753
     53          6           0       -8.790613    1.522151   -2.360525
     54          6           0      -10.240386    1.320422   -2.904128
     55          6           0      -10.614435    2.275339   -4.007665
     56          6           0      -11.289464    1.312390   -1.746137
     57          6           0      -11.986770   -0.098895   -1.612793
     58          6           0      -13.575126   -0.085563   -1.847203
     59          6           0      -14.316581   -0.479596   -0.499500
     60          6           0      -15.670531   -1.085156   -0.753954
     61          6           0      -14.262719    0.722854    0.616080
     62          6           0      -14.047566    0.311715    2.125028
     63          6           0      -13.266827    1.424601    2.914492
     64          6           0      -11.864659    0.968439    3.261476
     65          6           0      -11.625115    1.121973    4.793237
     66          6           0      -10.855476    1.705560    2.344190
     67          1           0        2.514830    3.269549    0.440016
     68          1           0        8.977097    3.668119   -0.158401
     69          1           0        9.527048   -2.575395    0.073862
     70          1           0        1.230815   -0.988375   -0.887025
     71          1           0        0.962563    1.194624    0.993817
     72          1           0        1.357147    1.930164   -1.684947
     73          1           0        0.123380    2.220569   -0.517597
     74          1           0        0.149411    0.665924   -1.473147
     75          1           0        0.637451   -0.826072    2.093589
     76          1           0        1.714081   -2.110769    1.611439
     77          1           0       -0.147442   -3.387648    0.802666
     78          1           0       -0.466178   -2.009809   -0.217899
     79          1           0        4.091629    6.233596    1.263104
     80          1           0        2.904550    5.314508    0.250871
     81          1           0        4.037040    6.438473   -0.467891
     82          1           0        7.347936    8.174209   -0.052185
     83          1           0        6.115649    7.302166    0.731961
     84          1           0        6.116171    7.294277   -1.078592
     85          1           0       10.565946    1.930646    0.935898
     86          1           0       11.035927   -0.466806   -0.601705
     87          1           0       10.831926    2.053988   -2.079682
     88          1           0       12.235665    1.468189   -1.204947
     89          1           0       11.497434    3.054439   -0.809239
     90          1           0        9.991466   -0.830052    2.214085
     91          1           0       11.261221    0.271942    2.357120
     92          1           0       12.074108   -1.986095    0.656028
     93          1           0       11.334168   -2.639467    2.107978
     94          1           0       12.772455   -1.494232    2.049247
     95          1           0        8.128286   -5.443092   -0.872839
     96          1           0        7.333833   -5.658228    0.715091
     97          1           0        8.883098   -4.853565    0.517620
     98          1           0        2.611873   -3.911803    0.875251
     99          1           0        0.594199   -5.253816   -2.745104
    100          1           0       -0.497926   -4.412970   -1.664069
    101          1           0       -0.191497   -6.120484   -1.564771
    102          1           0       -3.976631   -0.505030    1.955905
    103          1           0       -4.291645   -2.125626    1.278154
    104          1           0       -4.165898    0.282473   -0.596511
    105          1           0       -7.540095   -2.033838   -0.063505
    106          1           0       -7.948329   -0.512923    0.796357
    107          1           0       -6.727493   -1.723482    1.362609
    108          1           0       -5.896176    0.445196   -2.304061
    109          1           0       -6.587698    1.523803   -1.218150
    110          1           0       -8.675212   -0.495651   -1.409235
    111          1           0       -7.992958   -0.199067   -3.052904
    112          1           0       -8.189348    2.096182   -3.065847
    113          1           0       -8.848125    2.074213   -1.421989
    114          1           0      -10.322584    0.318156   -3.324272
    115          1           0      -11.444644    2.924460   -3.728497
    116          1           0      -10.849919    1.676636   -4.887874
    117          1           0       -9.848544    2.988103   -4.313146
    118          1           0      -11.977556    2.153642   -1.820957
    119          1           0      -10.688797    1.380213   -0.838547
    120          1           0      -11.618965   -0.342378   -0.617063
    121          1           0      -11.720203   -0.931516   -2.263312
    122          1           0      -13.662647   -0.817049   -2.651092
    123          1           0      -13.951966    0.802613   -2.353664
    124          1           0      -13.610906   -1.180114   -0.053187
    125          1           0      -16.373339   -0.840571    0.041972
    126          1           0      -15.604485   -2.172017   -0.794897
    127          1           0      -16.085230   -0.558560   -1.614226
    128          1           0      -15.188162    1.296592    0.579188
    129          1           0      -13.567577    1.484404    0.261266
    130          1           0      -13.452054   -0.600748    2.142194
    131          1           0      -14.992541    0.184086    2.653385
    132          1           0      -13.923153    1.748644    3.722983
    133          1           0      -13.208595    2.350527    2.343211
    134          1           0      -11.659865   -0.049806    2.932032
    135          1           0      -11.187759    0.198716    5.173214
    136          1           0      -12.559312    1.196275    5.350880
    137          1           0      -10.958134    1.961742    4.984333
    138          1           0      -10.222744    0.930742    1.909097
    139          1           0      -10.206711    2.421375    2.849612
    140          1           0      -11.342598    2.349174    1.612544
 ---------------------------------------------------------------------

 SCF Done:  E(RCAM-B3LYP) =  -3007.13110625     A.U. after   19 cycles

 Excitation energies and oscillator strengths:

 Excited State   1:      Singlet-A      1.7166 eV  722.28 nm  f=0.3895  <S**2>=0.000
     245 -> 248        0.18535
     246 -> 247        0.68414
     245 <- 248        0.10883
 This state for optimization and/or second-order correction.
 Total Energy, E(TD-HF/TD-DFT) =  -3007.06802394
 Copying the excited state density for this state as the 1-particle RhoCI density.

 Excited State   2:      Singlet-A      2.2590 eV  548.85 nm  f=0.0959  <S**2>=0.000
     245 -> 247        0.62778
     246 -> 248       -0.31320

 Excited State   3:      Singlet-A      3.3885 eV  365.90 nm  f=0.0384  <S**2>=0.000
     239 -> 247        0.17654
     239 -> 249       -0.11664
     242 -> 247        0.47355
     244 -> 247       -0.40550
     246 -> 248        0.18362

 Excited State   4:      Singlet-A      3.4326 eV  361.19 nm  f=0.0258  <S**2>=0.000
     239 -> 247        0.48049
     239 -> 249       -0.29946
     239 -> 250        0.14492
     240 -> 247       -0.13947
     242 -> 247       -0.13781
     244 -> 247        0.26461
     246 -> 248        0.12691

 Excited State   5:      Singlet-A      3.4731 eV  356.98 nm  f=0.3151  <S**2>=0.000
     239 -> 247       -0.17632
     239 -> 249        0.10970
     242 -> 247        0.20265
     244 -> 247        0.34613
     245 -> 247        0.20829
     246 -> 248        0.48452

 The electronic state is 1-A.
 Alpha  occ. eigenvalues --  -46.88344 -19.25881 -19.24128 -19.20900 -19.20451
 Alpha  occ. eigenvalues --  -19.19296 -19.18461 -14.42343 -14.41927 -14.39745
 Alpha  occ. eigenvalues --  -14.39407 -10.40173 -10.39971 -10.35643 -10.35103
 Alpha  occ. eigenvalues --  -10.32055 -10.31704 -10.31667 -10.30972 -10.30930
 Alpha  occ. eigenvalues --  -10.30450 -10.30114 -10.30046 -10.29865 -10.29620
 Alpha  occ. eigenvalues --  -10.29258 -10.29139 -10.28638 -10.28295 -10.28091
 Alpha  occ. eigenvalues --  -10.28039 -10.28001 -10.27894 -10.27726 -10.27641
 Alpha  occ. eigenvalues --  -10.27474 -10.27243 -10.27212 -10.27073 -10.27070
 Alpha  occ. eigenvalues --  -10.26873 -10.26275 -10.26235 -10.26194 -10.25909
 Alpha  occ. eigenvalues --  -10.25893 -10.25858 -10.25851 -10.25772 -10.25765
 Alpha  occ. eigenvalues --  -10.25749 -10.25586 -10.25586 -10.25568 -10.25162
 Alpha  occ. eigenvalues --  -10.25156 -10.25067 -10.25057 -10.25029 -10.24970
 Alpha  occ. eigenvalues --  -10.24780 -10.24498 -10.24477 -10.24284 -10.24160
 Alpha  occ. eigenvalues --  -10.24028  -3.16985  -1.91885  -1.91452  -1.91285
 Alpha  occ. eigenvalues --   -1.15675  -1.14796  -1.09076  -1.08516  -1.07510
 Alpha  occ. eigenvalues --   -1.07395  -1.06604  -1.03831  -1.02503  -1.01562
 Alpha  occ. eigenvalues --   -0.93535  -0.89842  -0.89690  -0.88973  -0.88958
 Alpha  occ. eigenvalues --   -0.88792  -0.88165  -0.87854  -0.87480  -0.86828
 Alpha  occ. eigenvalues --   -0.86651  -0.85430  -0.84471  -0.83938  -0.83203
 Alpha  occ. eigenvalues --   -0.82595  -0.81950  -0.81431  -0.80776  -0.80365
 Alpha  occ. eigenvalues --   -0.79711  -0.78342  -0.77778  -0.77232  -0.76599
 Alpha  occ. eigenvalues --   -0.75913  -0.75844  -0.75718  -0.74597  -0.73920
 Alpha  occ. eigenvalues --   -0.73339  -0.72720  -0.72116  -0.70588  -0.69475
 Alpha  occ. eigenvalues --   -0.68915  -0.67515  -0.66928  -0.66625  -0.66422
 Alpha  occ. eigenvalues --   -0.65676  -0.65247  -0.64720  -0.64547  -0.64087
 Alpha  occ. eigenvalues --   -0.63408  -0.62896  -0.62743  -0.62202  -0.60447
 Alpha  occ. eigenvalues --   -0.59967  -0.59784  -0.59516  -0.58880  -0.58394
 Alpha  occ. eigenvalues --   -0.57998  -0.56902  -0.56591  -0.56055  -0.55495
 Alpha  occ. eigenvalues --   -0.55087  -0.54890  -0.54498  -0.54279  -0.53682
 Alpha  occ. eigenvalues --   -0.53516  -0.53150  -0.53147  -0.53085  -0.52765
 Alpha  occ. eigenvalues --   -0.52494  -0.52028  -0.51958  -0.51922  -0.51894
 Alpha  occ. eigenvalues --   -0.51551  -0.51297  -0.50916  -0.50629  -0.50508
 Alpha  occ. eigenvalues --   -0.50399  -0.50306  -0.50159  -0.49981  -0.49753
 Alpha  occ. eigenvalues --   -0.49629  -0.49306  -0.49179  -0.49019  -0.48841
 Alpha  occ. eigenvalues --   -0.48612  -0.48211  -0.48147  -0.48017  -0.47927
 Alpha  occ. eigenvalues --   -0.47398  -0.47111  -0.46884  -0.46617  -0.46522
 Alpha  occ. eigenvalues --   -0.46393  -0.46259  -0.46147  -0.45957  -0.45889
 Alpha  occ. eigenvalues --   -0.45556  -0.45467  -0.45296  -0.45154  -0.45064
 Alpha  occ. eigenvalues --   -0.44982  -0.44742  -0.44562  -0.44486  -0.44097
 Alpha  occ. eigenvalues --   -0.44009  -0.43622  -0.43319  -0.43075  -0.43015
 Alpha  occ. eigenvalues --   -0.42696  -0.42660  -0.42600  -0.42402  -0.42124
 Alpha  occ. eigenvalues --   -0.41985  -0.41793  -0.41399  -0.41299  -0.40992
 Alpha  occ. eigenvalues --   -0.40838  -0.40761  -0.40513  -0.40332  -0.40106
 Alpha  occ. eigenvalues --   -0.39861  -0.39437  -0.39324  -0.39163  -0.38821
 Alpha  occ. eigenvalues --   -0.38666  -0.38378  -0.37908  -0.37769  -0.37425
 Alpha  occ. eigenvalues --   -0.37033  -0.36809  -0.36661  -0.36566  -0.36524
 Alpha  occ. eigenvalues --   -0.36196  -0.35605  -0.35062  -0.34592  -0.34115
 Alpha  occ. eigenvalues --   -0.33885  -0.33634  -0.33519  -0.31471  -0.31261
 Alpha  occ. eigenvalues --   -0.30729  -0.30229  -0.29688  -0.29614  -0.24365
 Alpha  occ. eigenvalues --   -0.21243
 Alpha virt. eigenvalues --   -0.08799  -0.02059  -0.00147   0.02023   0.02688
 Alpha virt. eigenvalues --    0.03540   0.04069   0.05435   0.05767   0.06739
 Alpha virt. eigenvalues --    0.06854   0.07860   0.08530   0.08841   0.09053

 Mulliken charges:
               1
     1  Mg   0.830883
     2  C   -0.005424
     3  C   -0.086690
     4  C   -0.043998
     5  C   -0.103603
     6  N   -0.284587
     7  C   -0.038375
     8  C   -0.026255
     9  C   -0.046838
    10  C    0.052074
    11  C    0.053215
    12  C    0.073232
    13  C    0.021926
    14  C    0.168020
    15  O   -0.221215
    16  O   -0.383041
    17  N   -0.401930
    18  C    0.178903
    19  C   -0.150417
    20  C   -0.068666
    21  C    0.125182
    22  C    0.114020
    23  C    0.033349
    24  O   -0.223701
    25  C    0.063583
    26  N   -0.248124
    27  C   -0.003684
    28  C   -0.002323
    29  C   -0.052633
    30  C   -0.003775
    31  C    0.076440
    32  C    0.026449
    33  C   -0.010617
    34  N   -0.376038
    35  C    0.199139
    36  C   -0.165112
    37  C    0.015296
    38  C    0.118137
    39  C    0.106012
    40  C    0.061974
    41  O   -0.179929
    42  C    0.012800
    43  C    0.197120
    44  O   -0.222867
    45  O   -0.349200
    46  C    0.180270
    47  C    0.299478
    48  C   -0.135295
    49  C   -0.155555
    50  C    0.050964
    51  C    0.074039
    52  C    0.010141
    53  C    0.000549
    54  C   -0.117966
    55  C    0.063681
    56  C    0.054259
    57  C   -0.043273
    58  C    0.029854
    59  C   -0.118198
    60  C    0.094090
    61  C    0.018077
    62  C    0.024864
    63  C    0.031008
    64  C   -0.149516
    65  C    0.061242
    66  C    0.023237
    67  H   -0.031925
    68  H   -0.007365
    69  H   -0.031259
    70  H    0.035530
    71  H    0.007803
    72  H    0.012561
    73  H    0.006953
    74  H    0.027864
    75  H    0.023131
    76  H    0.008798
    77  H    0.056717
    78  H    0.022108
    79  H    0.035396
    80  H    0.017692
    81  H    0.020771
    82  H    0.026242
    83  H    0.020638
    84  H    0.048010
    85  H    0.011287
    86  H    0.012874
    87  H    0.016889
    88  H    0.020367
    89  H    0.030520
    90  H    0.013742
    91  H    0.016281
    92  H    0.001161
    93  H    0.029982
    94  H    0.015320
    95  H    0.036112
    96  H    0.039234
    97  H    0.008222
    98  H    0.057078
    99  H    0.044217
   100  H    0.026556
   101  H    0.031708
   102  H    0.025005
   103  H    0.024662
   104  H   -0.003291
   105  H    0.023736
   106  H    0.039078
   107  H    0.007205
   108  H    0.009068
   109  H    0.014911
   110  H    0.010457
   111  H    0.003475
   112  H   -0.001338
   113  H   -0.002420
   114  H   -0.008012
   115  H   -0.002297
   116  H    0.008856
   117  H   -0.003911
   118  H    0.010436
   119  H   -0.012163
   120  H    0.004354
   121  H    0.010243
   122  H   -0.013111
   123  H   -0.002607
   124  H   -0.010887
   125  H   -0.007182
   126  H    0.016159
   127  H    0.006966
   128  H   -0.015914
   129  H   -0.009370
   130  H    0.001119
   131  H    0.005764
   132  H   -0.011838
   133  H   -0.011208
   134  H    0.003356
   135  H    0.002676
   136  H    0.009380
   137  H    0.012815
   138  H    0.015031
   139  H   -0.003553
   140  H    0.018475
 Sum of Mulliken charges =  -0.00000

 Dipole moment (field-independent basis, Debye):
    X=             -1.5155    Y=              2.8915    Z=              0.8328  Tot=              3.3691
 Quadrupole moment (field-independent basis, Debye-Ang):
   XX=           -366.9631   YY=           -419.7040   ZZ=           -413.6129
   XY=            -12.6012   XZ=             18.1622   YZ=              7.9906

 Normal termination of Gaussian 16 at Sat Apr 30 07:46:41 2022.
