 Gaussian 16, Revision A.03,
 Gaussian 16:  ES64L-G16RevA.03 25-Dec-2016

 ---------------------------------
 #p PBE1PBE/Def2SVP td=(nstates=5)
 ---------------------------------

 -----------------------------------------------------
 step_651_chromophore_25 TDDFT with PBE1PBE functional
 -----------------------------------------------------
 Symbolic Z-matrix:
 Charge =  0 Multiplicity = 1

                         Standard orientation:
 ---------------------------------------------------------------------
 Center     Atomic      Atomic             Coordinates (Angstroms)
 Number     Number       Type             X           Y           Z
 ---------------------------------------------------------------------
      1         12           0        6.146926    0.440454    0.081015
      2          6           0        3.797918   -2.246440    0.016146
      3          6           0        3.391251    2.643363    0.264908
      4          6           0        8.223134    2.886470   -0.273825
      5          6           0        8.672425   -1.916338   -0.087895
      6          7           0        3.884298    0.179419    0.016754
      7          6           0        3.185610   -0.998078    0.046320
      8          6           0        1.639858   -0.654798    0.065991
      9          6           0        1.583740    0.840965    0.170444
     10          6           0        3.028815    1.275076    0.240536
     11          6           0        0.730577    1.425133   -0.949249
     12          6           0        0.934985   -1.442013    1.244582
     13          6           0       -0.308940   -2.309979    0.817757
     14          6           0       -1.690502   -2.012376    1.451432
     15          8           0       -2.002701   -2.387646    2.567433
     16          8           0       -2.552166   -1.169806    0.662242
     17          7           0        5.881448    2.471952   -0.037264
     18          6           0        4.659716    3.225298    0.116106
     19          6           0        4.991453    4.638630    0.155263
     20          6           0        6.435363    4.754681   -0.094359
     21          6           0        6.887463    3.345435   -0.165266
     22          6           0        3.919850    5.701688    0.327630
     23          6           0        7.363818    5.988336   -0.178854
     24          8           0        8.604762    5.939062   -0.281214
     25          6           0        6.722968    7.289928   -0.172616
     26          7           0        8.188690    0.458960   -0.236303
     27          6           0        8.845800    1.621055   -0.263614
     28          6           0       10.329191    1.494282   -0.034235
     29          6           0       10.440248   -0.030517    0.199800
     30          6           0        8.976076   -0.535613   -0.023880
     31          6           0       11.302736    2.021116   -1.096247
     32          6           0       10.866912   -0.476732    1.669725
     33          6           0       11.778808   -1.742416    1.677029
     34          7           0        6.290473   -1.626735   -0.006691
     35          6           0        7.403163   -2.434119   -0.145402
     36          6           0        7.006261   -3.814478   -0.041554
     37          6           0        5.603018   -3.793204   -0.064399
     38          6           0        5.188360   -2.426526   -0.069255
     39          6           0        7.891219   -4.969186    0.080679
     40          6           0        4.399405   -4.606224   -0.121621
     41          8           0        4.305541   -5.847233   -0.137164
     42          6           0        3.205061   -3.671613   -0.007566
     43          6           0        2.236081   -3.879077   -1.091391
     44          8           0        2.158383   -3.328406   -2.196238
     45          8           0        1.366815   -4.902234   -0.680528
     46          6           0        0.299082   -5.156009   -1.700538
     47          6           0       -3.949344   -1.115222    1.053320
     48          6           0       -4.784974   -0.419091   -0.036075
     49          6           0       -6.095066   -0.451838   -0.375599
     50          6           0       -7.147619   -1.193046    0.508322
     51          6           0       -6.664663    0.482505   -1.531640
     52          6           0       -8.077872    0.171938   -2.031753
     53          6           0       -8.790613    1.522151   -2.360525
     54          6           0      -10.240386    1.320422   -2.904128
     55          6           0      -10.614435    2.275339   -4.007665
     56          6           0      -11.289464    1.312390   -1.746137
     57          6           0      -11.986770   -0.098895   -1.612793
     58          6           0      -13.575126   -0.085563   -1.847203
     59          6           0      -14.316581   -0.479596   -0.499500
     60          6           0      -15.670531   -1.085156   -0.753954
     61          6           0      -14.262719    0.722854    0.616080
     62          6           0      -14.047566    0.311715    2.125028
     63          6           0      -13.266827    1.424601    2.914492
     64          6           0      -11.864659    0.968439    3.261476
     65          6           0      -11.625115    1.121973    4.793237
     66          6           0      -10.855476    1.705560    2.344190
     67          1           0        2.514830    3.269549    0.440016
     68          1           0        8.977097    3.668119   -0.158401
     69          1           0        9.527048   -2.575395    0.073862
     70          1           0        1.230815   -0.988375   -0.887025
     71          1           0        0.962563    1.194624    0.993817
     72          1           0        1.357147    1.930164   -1.684947
     73          1           0        0.123380    2.220569   -0.517597
     74          1           0        0.149411    0.665924   -1.473147
     75          1           0        0.637451   -0.826072    2.093589
     76          1           0        1.714081   -2.110769    1.611439
     77          1           0       -0.147442   -3.387648    0.802666
     78          1           0       -0.466178   -2.009809   -0.217899
     79          1           0        4.091629    6.233596    1.263104
     80          1           0        2.904550    5.314508    0.250871
     81          1           0        4.037040    6.438473   -0.467891
     82          1           0        7.347936    8.174209   -0.052185
     83          1           0        6.115649    7.302166    0.731961
     84          1           0        6.116171    7.294277   -1.078592
     85          1           0       10.565946    1.930646    0.935898
     86          1           0       11.035927   -0.466806   -0.601705
     87          1           0       10.831926    2.053988   -2.079682
     88          1           0       12.235665    1.468189   -1.204947
     89          1           0       11.497434    3.054439   -0.809239
     90          1           0        9.991466   -0.830052    2.214085
     91          1           0       11.261221    0.271942    2.357120
     92          1           0       12.074108   -1.986095    0.656028
     93          1           0       11.334168   -2.639467    2.107978
     94          1           0       12.772455   -1.494232    2.049247
     95          1           0        8.128286   -5.443092   -0.872839
     96          1           0        7.333833   -5.658228    0.715091
     97          1           0        8.883098   -4.853565    0.517620
     98          1           0        2.611873   -3.911803    0.875251
     99          1           0        0.594199   -5.253816   -2.745104
    100          1           0       -0.497926   -4.412970   -1.664069
    101          1           0       -0.191497   -6.120484   -1.564771
    102          1           0       -3.976631   -0.505030    1.955905
    103          1           0       -4.291645   -2.125626    1.278154
    104          1           0       -4.165898    0.282473   -0.596511
    105          1           0       -7.540095   -2.033838   -0.063505
    106          1           0       -7.948329   -0.512923    0.796357
    107          1           0       -6.727493   -1.723482    1.362609
    108          1           0       -5.896176    0.445196   -2.304061
    109          1           0       -6.587698    1.523803   -1.218150
    110          1           0       -8.675212   -0.495651   -1.409235
    111          1           0       -7.992958   -0.199067   -3.052904
    112          1           0       -8.189348    2.096182   -3.065847
    113          1           0       -8.848125    2.074213   -1.421989
    114          1           0      -10.322584    0.318156   -3.324272
    115          1           0      -11.444644    2.924460   -3.728497
    116          1           0      -10.849919    1.676636   -4.887874
    117          1           0       -9.848544    2.988103   -4.313146
    118          1           0      -11.977556    2.153642   -1.820957
    119          1           0      -10.688797    1.380213   -0.838547
    120          1           0      -11.618965   -0.342378   -0.617063
    121          1           0      -11.720203   -0.931516   -2.263312
    122          1           0      -13.662647   -0.817049   -2.651092
    123          1           0      -13.951966    0.802613   -2.353664
    124          1           0      -13.610906   -1.180114   -0.053187
    125          1           0      -16.373339   -0.840571    0.041972
    126          1           0      -15.604485   -2.172017   -0.794897
    127          1           0      -16.085230   -0.558560   -1.614226
    128          1           0      -15.188162    1.296592    0.579188
    129          1           0      -13.567577    1.484404    0.261266
    130          1           0      -13.452054   -0.600748    2.142194
    131          1           0      -14.992541    0.184086    2.653385
    132          1           0      -13.923153    1.748644    3.722983
    133          1           0      -13.208595    2.350527    2.343211
    134          1           0      -11.659865   -0.049806    2.932032
    135          1           0      -11.187759    0.198716    5.173214
    136          1           0      -12.559312    1.196275    5.350880
    137          1           0      -10.958134    1.961742    4.984333
    138          1           0      -10.222744    0.930742    1.909097
    139          1           0      -10.206711    2.421375    2.849612
    140          1           0      -11.342598    2.349174    1.612544
 ---------------------------------------------------------------------

 SCF Done:  E(RPBE1PBE) =  -3005.31951118     A.U. after   16 cycles

 Excitation energies and oscillator strengths:

 Excited State   1:      Singlet-A      1.8630 eV  665.52 nm  f=0.3743  <S**2>=0.000
     245 -> 248        0.17792
     246 -> 247        0.69164
     246 <- 247       -0.10599
 This state for optimization and/or second-order correction.
 Total Energy, E(TD-HF/TD-DFT) =  -3005.25104834
 Copying the excited state density for this state as the 1-particle RhoCI density.

 Excited State   2:      Singlet-A      2.2539 eV  550.08 nm  f=0.0988  <S**2>=0.000
     245 -> 247        0.64275
     246 -> 248       -0.28093

 Excited State   3:      Singlet-A      3.0116 eV  411.69 nm  f=0.0012  <S**2>=0.000
     240 -> 247        0.64503
     240 -> 249       -0.20046
     243 -> 247       -0.14453

 Excited State   4:      Singlet-A      3.0649 eV  404.53 nm  f=0.0001  <S**2>=0.000
     240 -> 247       -0.10885
     242 -> 247        0.52191
     242 -> 249        0.10646
     243 -> 247       -0.42318

 Excited State   5:      Singlet-A      3.0720 eV  403.60 nm  f=0.0021  <S**2>=0.000
     240 -> 247        0.11269
     241 -> 247       -0.20317
     242 -> 247        0.41702
     243 -> 247        0.49363

 The electronic state is 1-A.
 Alpha  occ. eigenvalues --  -46.91761 -19.26442 -19.24850 -19.20999 -19.20692
 Alpha  occ. eigenvalues --  -19.19329 -19.18862 -14.41935 -14.41368 -14.39519
 Alpha  occ. eigenvalues --  -14.39027 -10.37064 -10.37040 -10.32604 -10.32378
 Alpha  occ. eigenvalues --  -10.29457 -10.29324 -10.28919 -10.28874 -10.28522
 Alpha  occ. eigenvalues --  -10.28294 -10.28048 -10.27973 -10.27342 -10.27135
 Alpha  occ. eigenvalues --  -10.27076 -10.26771 -10.26094 -10.26022 -10.25898
 Alpha  occ. eigenvalues --  -10.25653 -10.25619 -10.25614 -10.25552 -10.25519
 Alpha  occ. eigenvalues --  -10.25215 -10.25048 -10.24926 -10.24828 -10.24709
 Alpha  occ. eigenvalues --  -10.24396 -10.23863 -10.23654 -10.23596 -10.23500
 Alpha  occ. eigenvalues --  -10.23452 -10.23441 -10.23429 -10.23271 -10.23264
 Alpha  occ. eigenvalues --  -10.23236 -10.23195 -10.23151 -10.23149 -10.22765
 Alpha  occ. eigenvalues --  -10.22716 -10.22693 -10.22670 -10.22643 -10.22632
 Alpha  occ. eigenvalues --  -10.22393 -10.21918 -10.21878 -10.21876 -10.21504
 Alpha  occ. eigenvalues --  -10.21423  -3.13980  -1.86822  -1.86366  -1.86204
 Alpha  occ. eigenvalues --   -1.10291  -1.09585  -1.03612  -1.03383  -1.02395
 Alpha  occ. eigenvalues --   -1.02095  -1.01247  -0.98370  -0.97160  -0.96355
 Alpha  occ. eigenvalues --   -0.87784  -0.84028  -0.83902  -0.83310  -0.83106
 Alpha  occ. eigenvalues --   -0.83067  -0.82328  -0.82131  -0.81727  -0.80998
 Alpha  occ. eigenvalues --   -0.80893  -0.79717  -0.78708  -0.78140  -0.77478
 Alpha  occ. eigenvalues --   -0.76894  -0.76098  -0.75701  -0.75157  -0.74540
 Alpha  occ. eigenvalues --   -0.73926  -0.72711  -0.72088  -0.71517  -0.70844
 Alpha  occ. eigenvalues --   -0.70214  -0.69981  -0.69931  -0.68764  -0.68075
 Alpha  occ. eigenvalues --   -0.67730  -0.67058  -0.66599  -0.64909  -0.63780
 Alpha  occ. eigenvalues --   -0.63358  -0.61756  -0.61432  -0.61036  -0.60667
 Alpha  occ. eigenvalues --   -0.60191  -0.59467  -0.59240  -0.59130  -0.58227
 Alpha  occ. eigenvalues --   -0.57603  -0.57244  -0.57077  -0.56713  -0.55003
 Alpha  occ. eigenvalues --   -0.54593  -0.54288  -0.53929  -0.53480  -0.52855
 Alpha  occ. eigenvalues --   -0.52535  -0.51395  -0.51159  -0.50587  -0.49934
 Alpha  occ. eigenvalues --   -0.49626  -0.49444  -0.49052  -0.48729  -0.48227
 Alpha  occ. eigenvalues --   -0.48046  -0.47755  -0.47591  -0.47579  -0.47161
 Alpha  occ. eigenvalues --   -0.47038  -0.46670  -0.46472  -0.46432  -0.46419
 Alpha  occ. eigenvalues --   -0.46064  -0.45825  -0.45449  -0.45220  -0.45086
 Alpha  occ. eigenvalues --   -0.45014  -0.44974  -0.44724  -0.44644  -0.44433
 Alpha  occ. eigenvalues --   -0.44200  -0.43855  -0.43764  -0.43580  -0.43383
 Alpha  occ. eigenvalues --   -0.43238  -0.42869  -0.42751  -0.42704  -0.42609
 Alpha  occ. eigenvalues --   -0.41978  -0.41796  -0.41623  -0.41357  -0.41275
 Alpha  occ. eigenvalues --   -0.41099  -0.40874  -0.40753  -0.40620  -0.40505
 Alpha  occ. eigenvalues --   -0.40356  -0.40226  -0.40101  -0.39857  -0.39756
 Alpha  occ. eigenvalues --   -0.39680  -0.39497  -0.39293  -0.39195  -0.38853
 Alpha  occ. eigenvalues --   -0.38784  -0.38348  -0.38064  -0.37937  -0.37742
 Alpha  occ. eigenvalues --   -0.37564  -0.37434  -0.37301  -0.37205  -0.36942
 Alpha  occ. eigenvalues --   -0.36860  -0.36642  -0.36264  -0.36099  -0.35932
 Alpha  occ. eigenvalues --   -0.35638  -0.35566  -0.35270  -0.35250  -0.34863
 Alpha  occ. eigenvalues --   -0.34772  -0.34231  -0.34117  -0.34103  -0.33679
 Alpha  occ. eigenvalues --   -0.33656  -0.33191  -0.32957  -0.32620  -0.32312
 Alpha  occ. eigenvalues --   -0.32072  -0.31680  -0.31558  -0.31507  -0.31369
 Alpha  occ. eigenvalues --   -0.31139  -0.30438  -0.29806  -0.29764  -0.29217
 Alpha  occ. eigenvalues --   -0.29095  -0.28657  -0.28528  -0.27000  -0.26097
 Alpha  occ. eigenvalues --   -0.25742  -0.25628  -0.25399  -0.24952  -0.21298
 Alpha  occ. eigenvalues --   -0.18927
 Alpha virt. eigenvalues --   -0.11307  -0.05562  -0.04324  -0.02384  -0.00978
 Alpha virt. eigenvalues --   -0.00564   0.00003   0.01086   0.01395   0.02953
 Alpha virt. eigenvalues --    0.03351   0.04136   0.04451   0.05270   0.05784

 Mulliken charges:
               1
     1  Mg   0.983423
     2  C   -0.023104
     3  C   -0.088208
     4  C   -0.040111
     5  C   -0.087870
     6  N   -0.386072
     7  C    0.037284
     8  C   -0.096869
     9  C   -0.122736
    10  C    0.093834
    11  C   -0.001299
    12  C    0.024951
    13  C   -0.057793
    14  C    0.233161
    15  O   -0.251988
    16  O   -0.413868
    17  N   -0.516320
    18  C    0.198583
    19  C   -0.173876
    20  C   -0.110482
    21  C    0.160012
    22  C    0.053323
    23  C    0.080760
    24  O   -0.260609
    25  C   -0.010776
    26  N   -0.363446
    27  C    0.038244
    28  C   -0.081913
    29  C   -0.131008
    30  C    0.032962
    31  C    0.018055
    32  C   -0.029267
    33  C   -0.081866
    34  N   -0.497866
    35  C    0.214937
    36  C   -0.184617
    37  C   -0.040101
    38  C    0.170890
    39  C    0.057733
    40  C    0.158117
    41  O   -0.227199
    42  C   -0.093787
    43  C    0.285434
    44  O   -0.257952
    45  O   -0.378897
    46  C    0.121737
    47  C    0.261563
    48  C   -0.151261
    49  C   -0.191967
    50  C   -0.019695
    51  C    0.017959
    52  C   -0.058827
    53  C   -0.057855
    54  C   -0.201669
    55  C    0.008378
    56  C   -0.004260
    57  C   -0.100164
    58  C   -0.022050
    59  C   -0.205452
    60  C    0.030115
    61  C   -0.032165
    62  C   -0.041924
    63  C   -0.021709
    64  C   -0.241701
    65  C    0.000674
    66  C   -0.034547
    67  H    0.001323
    68  H    0.025428
    69  H    0.003347
    70  H    0.071890
    71  H    0.045145
    72  H    0.041559
    73  H    0.033549
    74  H    0.055373
    75  H    0.053449
    76  H    0.044823
    77  H    0.089578
    78  H    0.055444
    79  H    0.063767
    80  H    0.045374
    81  H    0.049877
    82  H    0.054212
    83  H    0.048946
    84  H    0.074857
    85  H    0.049842
    86  H    0.049284
    87  H    0.045275
    88  H    0.048028
    89  H    0.057240
    90  H    0.047761
    91  H    0.046397
    92  H    0.028135
    93  H    0.056403
    94  H    0.043522
    95  H    0.062771
    96  H    0.065655
    97  H    0.033223
    98  H    0.092703
    99  H    0.066009
   100  H    0.049506
   101  H    0.053839
   102  H    0.052555
   103  H    0.050361
   104  H    0.026102
   105  H    0.052157
   106  H    0.070051
   107  H    0.035473
   108  H    0.040879
   109  H    0.046309
   110  H    0.041968
   111  H    0.039186
   112  H    0.030899
   113  H    0.030578
   114  H    0.030998
   115  H    0.024375
   116  H    0.036038
   117  H    0.022885
   118  H    0.039186
   119  H    0.027075
   120  H    0.034910
   121  H    0.039577
   122  H    0.019923
   123  H    0.028470
   124  H    0.028837
   125  H    0.021483
   126  H    0.043449
   127  H    0.034551
   128  H    0.017478
   129  H    0.025421
   130  H    0.032731
   131  H    0.037857
   132  H    0.019878
   133  H    0.020731
   134  H    0.039833
   135  H    0.030626
   136  H    0.036314
   137  H    0.039547
   138  H    0.043778
   139  H    0.023754
   140  H    0.043256
 Sum of Mulliken charges =  -0.00000

 Dipole moment (field-independent basis, Debye):
    X=             -1.5012    Y=              3.3827    Z=              0.8693  Tot=              3.8016
 Quadrupole moment (field-independent basis, Debye-Ang):
   XX=           -361.1467   YY=           -416.7565   ZZ=           -411.2652
   XY=            -10.7528   XZ=             18.5011   YZ=              7.7505

 Normal termination of Gaussian 16 at Sat Apr 30 08:04:52 2022.
