 Gaussian 16, Revision A.03,
 Gaussian 16:  ES64L-G16RevA.03 25-Dec-2016

 --------------------------------
 #p wB97XD/Def2SVP td=(nstates=5)
 --------------------------------

 ----------------------------------------------------
 step_651_chromophore_25 TDDFT with wB97XD functional
 ----------------------------------------------------
 Symbolic Z-matrix:
 Charge =  0 Multiplicity = 1

                         Standard orientation:
 ---------------------------------------------------------------------
 Center     Atomic      Atomic             Coordinates (Angstroms)
 Number     Number       Type             X           Y           Z
 ---------------------------------------------------------------------
      1         12           0        6.146926    0.440454    0.081015
      2          6           0        3.797918   -2.246440    0.016146
      3          6           0        3.391251    2.643363    0.264908
      4          6           0        8.223134    2.886470   -0.273825
      5          6           0        8.672425   -1.916338   -0.087895
      6          7           0        3.884298    0.179419    0.016754
      7          6           0        3.185610   -0.998078    0.046320
      8          6           0        1.639858   -0.654798    0.065991
      9          6           0        1.583740    0.840965    0.170444
     10          6           0        3.028815    1.275076    0.240536
     11          6           0        0.730577    1.425133   -0.949249
     12          6           0        0.934985   -1.442013    1.244582
     13          6           0       -0.308940   -2.309979    0.817757
     14          6           0       -1.690502   -2.012376    1.451432
     15          8           0       -2.002701   -2.387646    2.567433
     16          8           0       -2.552166   -1.169806    0.662242
     17          7           0        5.881448    2.471952   -0.037264
     18          6           0        4.659716    3.225298    0.116106
     19          6           0        4.991453    4.638630    0.155263
     20          6           0        6.435363    4.754681   -0.094359
     21          6           0        6.887463    3.345435   -0.165266
     22          6           0        3.919850    5.701688    0.327630
     23          6           0        7.363818    5.988336   -0.178854
     24          8           0        8.604762    5.939062   -0.281214
     25          6           0        6.722968    7.289928   -0.172616
     26          7           0        8.188690    0.458960   -0.236303
     27          6           0        8.845800    1.621055   -0.263614
     28          6           0       10.329191    1.494282   -0.034235
     29          6           0       10.440248   -0.030517    0.199800
     30          6           0        8.976076   -0.535613   -0.023880
     31          6           0       11.302736    2.021116   -1.096247
     32          6           0       10.866912   -0.476732    1.669725
     33          6           0       11.778808   -1.742416    1.677029
     34          7           0        6.290473   -1.626735   -0.006691
     35          6           0        7.403163   -2.434119   -0.145402
     36          6           0        7.006261   -3.814478   -0.041554
     37          6           0        5.603018   -3.793204   -0.064399
     38          6           0        5.188360   -2.426526   -0.069255
     39          6           0        7.891219   -4.969186    0.080679
     40          6           0        4.399405   -4.606224   -0.121621
     41          8           0        4.305541   -5.847233   -0.137164
     42          6           0        3.205061   -3.671613   -0.007566
     43          6           0        2.236081   -3.879077   -1.091391
     44          8           0        2.158383   -3.328406   -2.196238
     45          8           0        1.366815   -4.902234   -0.680528
     46          6           0        0.299082   -5.156009   -1.700538
     47          6           0       -3.949344   -1.115222    1.053320
     48          6           0       -4.784974   -0.419091   -0.036075
     49          6           0       -6.095066   -0.451838   -0.375599
     50          6           0       -7.147619   -1.193046    0.508322
     51          6           0       -6.664663    0.482505   -1.531640
     52          6           0       -8.077872    0.171938   -2.031753
     53          6           0       -8.790613    1.522151   -2.360525
     54          6           0      -10.240386    1.320422   -2.904128
     55          6           0      -10.614435    2.275339   -4.007665
     56          6           0      -11.289464    1.312390   -1.746137
     57          6           0      -11.986770   -0.098895   -1.612793
     58          6           0      -13.575126   -0.085563   -1.847203
     59          6           0      -14.316581   -0.479596   -0.499500
     60          6           0      -15.670531   -1.085156   -0.753954
     61          6           0      -14.262719    0.722854    0.616080
     62          6           0      -14.047566    0.311715    2.125028
     63          6           0      -13.266827    1.424601    2.914492
     64          6           0      -11.864659    0.968439    3.261476
     65          6           0      -11.625115    1.121973    4.793237
     66          6           0      -10.855476    1.705560    2.344190
     67          1           0        2.514830    3.269549    0.440016
     68          1           0        8.977097    3.668119   -0.158401
     69          1           0        9.527048   -2.575395    0.073862
     70          1           0        1.230815   -0.988375   -0.887025
     71          1           0        0.962563    1.194624    0.993817
     72          1           0        1.357147    1.930164   -1.684947
     73          1           0        0.123380    2.220569   -0.517597
     74          1           0        0.149411    0.665924   -1.473147
     75          1           0        0.637451   -0.826072    2.093589
     76          1           0        1.714081   -2.110769    1.611439
     77          1           0       -0.147442   -3.387648    0.802666
     78          1           0       -0.466178   -2.009809   -0.217899
     79          1           0        4.091629    6.233596    1.263104
     80          1           0        2.904550    5.314508    0.250871
     81          1           0        4.037040    6.438473   -0.467891
     82          1           0        7.347936    8.174209   -0.052185
     83          1           0        6.115649    7.302166    0.731961
     84          1           0        6.116171    7.294277   -1.078592
     85          1           0       10.565946    1.930646    0.935898
     86          1           0       11.035927   -0.466806   -0.601705
     87          1           0       10.831926    2.053988   -2.079682
     88          1           0       12.235665    1.468189   -1.204947
     89          1           0       11.497434    3.054439   -0.809239
     90          1           0        9.991466   -0.830052    2.214085
     91          1           0       11.261221    0.271942    2.357120
     92          1           0       12.074108   -1.986095    0.656028
     93          1           0       11.334168   -2.639467    2.107978
     94          1           0       12.772455   -1.494232    2.049247
     95          1           0        8.128286   -5.443092   -0.872839
     96          1           0        7.333833   -5.658228    0.715091
     97          1           0        8.883098   -4.853565    0.517620
     98          1           0        2.611873   -3.911803    0.875251
     99          1           0        0.594199   -5.253816   -2.745104
    100          1           0       -0.497926   -4.412970   -1.664069
    101          1           0       -0.191497   -6.120484   -1.564771
    102          1           0       -3.976631   -0.505030    1.955905
    103          1           0       -4.291645   -2.125626    1.278154
    104          1           0       -4.165898    0.282473   -0.596511
    105          1           0       -7.540095   -2.033838   -0.063505
    106          1           0       -7.948329   -0.512923    0.796357
    107          1           0       -6.727493   -1.723482    1.362609
    108          1           0       -5.896176    0.445196   -2.304061
    109          1           0       -6.587698    1.523803   -1.218150
    110          1           0       -8.675212   -0.495651   -1.409235
    111          1           0       -7.992958   -0.199067   -3.052904
    112          1           0       -8.189348    2.096182   -3.065847
    113          1           0       -8.848125    2.074213   -1.421989
    114          1           0      -10.322584    0.318156   -3.324272
    115          1           0      -11.444644    2.924460   -3.728497
    116          1           0      -10.849919    1.676636   -4.887874
    117          1           0       -9.848544    2.988103   -4.313146
    118          1           0      -11.977556    2.153642   -1.820957
    119          1           0      -10.688797    1.380213   -0.838547
    120          1           0      -11.618965   -0.342378   -0.617063
    121          1           0      -11.720203   -0.931516   -2.263312
    122          1           0      -13.662647   -0.817049   -2.651092
    123          1           0      -13.951966    0.802613   -2.353664
    124          1           0      -13.610906   -1.180114   -0.053187
    125          1           0      -16.373339   -0.840571    0.041972
    126          1           0      -15.604485   -2.172017   -0.794897
    127          1           0      -16.085230   -0.558560   -1.614226
    128          1           0      -15.188162    1.296592    0.579188
    129          1           0      -13.567577    1.484404    0.261266
    130          1           0      -13.452054   -0.600748    2.142194
    131          1           0      -14.992541    0.184086    2.653385
    132          1           0      -13.923153    1.748644    3.722983
    133          1           0      -13.208595    2.350527    2.343211
    134          1           0      -11.659865   -0.049806    2.932032
    135          1           0      -11.187759    0.198716    5.173214
    136          1           0      -12.559312    1.196275    5.350880
    137          1           0      -10.958134    1.961742    4.984333
    138          1           0      -10.222744    0.930742    1.909097
    139          1           0      -10.206711    2.421375    2.849612
    140          1           0      -11.342598    2.349174    1.612544
 ---------------------------------------------------------------------

 SCF Done:  E(RwB97XD) =  -3007.82893492     A.U. after   19 cycles

 Excitation energies and oscillator strengths:

 Excited State   1:      Singlet-A      1.6623 eV  745.87 nm  f=0.3877  <S**2>=0.000
     245 -> 248        0.19062
     246 -> 247        0.68190
     245 <- 248        0.11798
 This state for optimization and/or second-order correction.
 Total Energy, E(TD-HF/TD-DFT) =  -3007.76784698
 Copying the excited state density for this state as the 1-particle RhoCI density.

 Excited State   2:      Singlet-A      2.2020 eV  563.05 nm  f=0.0931  <S**2>=0.000
     245 -> 247        0.62590
     246 -> 248       -0.31509

 Excited State   3:      Singlet-A      3.3890 eV  365.84 nm  f=0.0590  <S**2>=0.000
     240 -> 247        0.17356
     242 -> 247        0.50911
     243 -> 247       -0.31055
     246 -> 248        0.23567

 Excited State   4:      Singlet-A      3.4456 eV  359.83 nm  f=0.0087  <S**2>=0.000
     239 -> 247        0.30155
     239 -> 249       -0.19586
     240 -> 247        0.40731
     240 -> 249       -0.27437
     240 -> 250        0.13165
     242 -> 247       -0.18682
     243 -> 247        0.20421

 Excited State   5:      Singlet-A      3.4911 eV  355.14 nm  f=0.3614  <S**2>=0.000
     240 -> 247       -0.11287
     243 -> 247        0.39212
     245 -> 247        0.21969
     246 -> 248        0.49123

 The electronic state is 1-A.
 Alpha  occ. eigenvalues --  -46.94705 -19.31132 -19.29421 -19.25861 -19.25421
 Alpha  occ. eigenvalues --  -19.24435 -19.23466 -14.46958 -14.46494 -14.44347
 Alpha  occ. eigenvalues --  -14.44055 -10.44050 -10.43857 -10.39729 -10.39029
 Alpha  occ. eigenvalues --  -10.35965 -10.35751 -10.35493 -10.34974 -10.34952
 Alpha  occ. eigenvalues --  -10.34434 -10.34086 -10.34042 -10.33949 -10.33704
 Alpha  occ. eigenvalues --  -10.33351 -10.33237 -10.32851 -10.32453 -10.32177
 Alpha  occ. eigenvalues --  -10.32018 -10.32013 -10.31957 -10.31798 -10.31716
 Alpha  occ. eigenvalues --  -10.31493 -10.31234 -10.31144 -10.31078 -10.31034
 Alpha  occ. eigenvalues --  -10.30943 -10.30247 -10.30123 -10.30096 -10.30041
 Alpha  occ. eigenvalues --  -10.29884 -10.29833 -10.29829 -10.29667 -10.29621
 Alpha  occ. eigenvalues --  -10.29596 -10.29538 -10.29514 -10.29434 -10.29114
 Alpha  occ. eigenvalues --  -10.29070 -10.29016 -10.29012 -10.28997 -10.28972
 Alpha  occ. eigenvalues --  -10.28745 -10.28315 -10.28286 -10.28198 -10.27957
 Alpha  occ. eigenvalues --  -10.27854  -3.20766  -1.94360  -1.93906  -1.93741
 Alpha  occ. eigenvalues --   -1.17846  -1.16995  -1.11378  -1.10691  -1.09766
 Alpha  occ. eigenvalues --   -1.09614  -1.08617  -1.05916  -1.04507  -1.03567
 Alpha  occ. eigenvalues --   -0.95571  -0.91655  -0.91543  -0.90848  -0.90728
 Alpha  occ. eigenvalues --   -0.90690  -0.89997  -0.89782  -0.89460  -0.88634
 Alpha  occ. eigenvalues --   -0.88534  -0.87332  -0.86414  -0.85798  -0.85106
 Alpha  occ. eigenvalues --   -0.84491  -0.83769  -0.83392  -0.82745  -0.82219
 Alpha  occ. eigenvalues --   -0.81607  -0.80290  -0.79692  -0.79157  -0.78539
 Alpha  occ. eigenvalues --   -0.77799  -0.77646  -0.77600  -0.76436  -0.75743
 Alpha  occ. eigenvalues --   -0.75359  -0.74657  -0.74100  -0.72529  -0.71405
 Alpha  occ. eigenvalues --   -0.70931  -0.69391  -0.68895  -0.68550  -0.68304
 Alpha  occ. eigenvalues --   -0.67692  -0.67115  -0.66680  -0.66565  -0.65881
 Alpha  occ. eigenvalues --   -0.65254  -0.64761  -0.64708  -0.64235  -0.62439
 Alpha  occ. eigenvalues --   -0.61961  -0.61779  -0.61455  -0.60885  -0.60370
 Alpha  occ. eigenvalues --   -0.60013  -0.58869  -0.58568  -0.58024  -0.57401
 Alpha  occ. eigenvalues --   -0.57038  -0.56853  -0.56455  -0.56193  -0.55652
 Alpha  occ. eigenvalues --   -0.55439  -0.55088  -0.55030  -0.54978  -0.54619
 Alpha  occ. eigenvalues --   -0.54411  -0.53956  -0.53847  -0.53795  -0.53769
 Alpha  occ. eigenvalues --   -0.53533  -0.53195  -0.52897  -0.52581  -0.52393
 Alpha  occ. eigenvalues --   -0.52319  -0.52231  -0.52101  -0.51914  -0.51683
 Alpha  occ. eigenvalues --   -0.51517  -0.51184  -0.51081  -0.51010  -0.50721
 Alpha  occ. eigenvalues --   -0.50515  -0.50138  -0.50048  -0.49938  -0.49850
 Alpha  occ. eigenvalues --   -0.49251  -0.49060  -0.48849  -0.48540  -0.48462
 Alpha  occ. eigenvalues --   -0.48332  -0.48137  -0.48019  -0.47869  -0.47754
 Alpha  occ. eigenvalues --   -0.47470  -0.47385  -0.47251  -0.47103  -0.46982
 Alpha  occ. eigenvalues --   -0.46906  -0.46690  -0.46516  -0.46386  -0.45990
 Alpha  occ. eigenvalues --   -0.45935  -0.45627  -0.45294  -0.44952  -0.44885
 Alpha  occ. eigenvalues --   -0.44637  -0.44598  -0.44498  -0.44319  -0.44051
 Alpha  occ. eigenvalues --   -0.43906  -0.43729  -0.43309  -0.43207  -0.42999
 Alpha  occ. eigenvalues --   -0.42699  -0.42663  -0.42368  -0.42242  -0.41975
 Alpha  occ. eigenvalues --   -0.41765  -0.41293  -0.41161  -0.41106  -0.40692
 Alpha  occ. eigenvalues --   -0.40570  -0.40231  -0.39833  -0.39650  -0.39475
 Alpha  occ. eigenvalues --   -0.39153  -0.38664  -0.38527  -0.38480  -0.38407
 Alpha  occ. eigenvalues --   -0.38201  -0.37448  -0.37011  -0.36616  -0.36000
 Alpha  occ. eigenvalues --   -0.35945  -0.35725  -0.35377  -0.33556  -0.33438
 Alpha  occ. eigenvalues --   -0.32632  -0.32452  -0.31768  -0.31744  -0.26297
 Alpha  occ. eigenvalues --   -0.23053
 Alpha virt. eigenvalues --   -0.07166  -0.00147   0.01880   0.04132   0.05620
 Alpha virt. eigenvalues --    0.05869   0.06218   0.07804   0.08168   0.09521
 Alpha virt. eigenvalues --    0.10043   0.10428   0.11322   0.12099   0.12560

 Mulliken charges:
               1
     1  Mg   0.972587
     2  C   -0.026046
     3  C   -0.098924
     4  C   -0.051167
     5  C   -0.107429
     6  N   -0.353694
     7  C    0.010141
     8  C   -0.070725
     9  C   -0.097857
    10  C    0.075503
    11  C    0.008249
    12  C    0.036217
    13  C   -0.033870
    14  C    0.224458
    15  O   -0.249911
    16  O   -0.413132
    17  N   -0.484802
    18  C    0.190173
    19  C   -0.166226
    20  C   -0.109515
    21  C    0.149310
    22  C    0.066307
    23  C    0.079408
    24  O   -0.255980
    25  C    0.001629
    26  N   -0.325573
    27  C    0.018404
    28  C   -0.054417
    29  C   -0.104622
    30  C    0.024587
    31  C    0.026802
    32  C   -0.017000
    33  C   -0.066928
    34  N   -0.463694
    35  C    0.211201
    36  C   -0.177065
    37  C   -0.033687
    38  C    0.156005
    39  C    0.064414
    40  C    0.138977
    41  O   -0.214646
    42  C   -0.053549
    43  C    0.260355
    44  O   -0.250750
    45  O   -0.377789
    46  C    0.138068
    47  C    0.273230
    48  C   -0.157517
    49  C   -0.183270
    50  C   -0.003192
    51  C    0.033426
    52  C   -0.039229
    53  C   -0.035769
    54  C   -0.172445
    55  C    0.018771
    56  C    0.018640
    57  C   -0.081754
    58  C   -0.010976
    59  C   -0.170712
    60  C    0.041715
    61  C   -0.017163
    62  C   -0.021398
    63  C   -0.007063
    64  C   -0.212953
    65  C    0.014244
    66  C   -0.020634
    67  H   -0.006729
    68  H    0.018530
    69  H   -0.006215
    70  H    0.056870
    71  H    0.034782
    72  H    0.034703
    73  H    0.028502
    74  H    0.049134
    75  H    0.048895
    76  H    0.031960
    77  H    0.080694
    78  H    0.044269
    79  H    0.057895
    80  H    0.040738
    81  H    0.042388
    82  H    0.053008
    83  H    0.040716
    84  H    0.068628
    85  H    0.038960
    86  H    0.037311
    87  H    0.039478
    88  H    0.042485
    89  H    0.052333
    90  H    0.037097
    91  H    0.040946
    92  H    0.020345
    93  H    0.051374
    94  H    0.038773
    95  H    0.060096
    96  H    0.062197
    97  H    0.029903
    98  H    0.085167
    99  H    0.062112
   100  H    0.044392
   101  H    0.050898
   102  H    0.048451
   103  H    0.044815
   104  H    0.023556
   105  H    0.045486
   106  H    0.062188
   107  H    0.030662
   108  H    0.034036
   109  H    0.037832
   110  H    0.030889
   111  H    0.029743
   112  H    0.022146
   113  H    0.018748
   114  H    0.015217
   115  H    0.018090
   116  H    0.030941
   117  H    0.017111
   118  H    0.030484
   119  H    0.006435
   120  H    0.023554
   121  H    0.032216
   122  H    0.012341
   123  H    0.020261
   124  H    0.012525
   125  H    0.015202
   126  H    0.039098
   127  H    0.028138
   128  H    0.009148
   129  H    0.008437
   130  H    0.020773
   131  H    0.031281
   132  H    0.012460
   133  H    0.010429
   134  H    0.027505
   135  H    0.025014
   136  H    0.029780
   137  H    0.033250
   138  H    0.037001
   139  H    0.018090
   140  H    0.034286
 Sum of Mulliken charges =  -0.00000

 Dipole moment (field-independent basis, Debye):
    X=             -1.5336    Y=              2.8390    Z=              0.8429  Tot=              3.3350
 Quadrupole moment (field-independent basis, Debye-Ang):
   XX=           -361.3152   YY=           -415.3795   ZZ=           -410.9324
   XY=            -13.6720   XZ=             18.8239   YZ=              7.9521

 Normal termination of Gaussian 16 at Sat Apr 30 08:33:07 2022.
