 Gaussian 16, Revision A.03,
 Gaussian 16:  ES64L-G16RevA.03 25-Dec-2016

 --------------------
 #p ZINDO=(nstates=5)
 --------------------

 -----------------------------
 step_651_chromophore_25 ZINDO
 -----------------------------
 Symbolic Z-matrix:
 Charge =  0 Multiplicity = 1

                         Standard orientation:
 ---------------------------------------------------------------------
 Center     Atomic      Atomic             Coordinates (Angstroms)
 Number     Number       Type             X           Y           Z
 ---------------------------------------------------------------------
      1         12           0        6.146926    0.440454    0.081015
      2          6           0        3.797918   -2.246440    0.016146
      3          6           0        3.391251    2.643363    0.264908
      4          6           0        8.223134    2.886470   -0.273825
      5          6           0        8.672425   -1.916338   -0.087895
      6          7           0        3.884298    0.179419    0.016754
      7          6           0        3.185610   -0.998078    0.046320
      8          6           0        1.639858   -0.654798    0.065991
      9          6           0        1.583740    0.840965    0.170444
     10          6           0        3.028815    1.275076    0.240536
     11          6           0        0.730577    1.425133   -0.949249
     12          6           0        0.934985   -1.442013    1.244582
     13          6           0       -0.308940   -2.309979    0.817757
     14          6           0       -1.690502   -2.012376    1.451432
     15          8           0       -2.002701   -2.387646    2.567433
     16          8           0       -2.552166   -1.169806    0.662242
     17          7           0        5.881448    2.471952   -0.037264
     18          6           0        4.659716    3.225298    0.116106
     19          6           0        4.991453    4.638630    0.155263
     20          6           0        6.435363    4.754681   -0.094359
     21          6           0        6.887463    3.345435   -0.165266
     22          6           0        3.919850    5.701688    0.327630
     23          6           0        7.363818    5.988336   -0.178854
     24          8           0        8.604762    5.939062   -0.281214
     25          6           0        6.722968    7.289928   -0.172616
     26          7           0        8.188690    0.458960   -0.236303
     27          6           0        8.845800    1.621055   -0.263614
     28          6           0       10.329191    1.494282   -0.034235
     29          6           0       10.440248   -0.030517    0.199800
     30          6           0        8.976076   -0.535613   -0.023880
     31          6           0       11.302736    2.021116   -1.096247
     32          6           0       10.866912   -0.476732    1.669725
     33          6           0       11.778808   -1.742416    1.677029
     34          7           0        6.290473   -1.626735   -0.006691
     35          6           0        7.403163   -2.434119   -0.145402
     36          6           0        7.006261   -3.814478   -0.041554
     37          6           0        5.603018   -3.793204   -0.064399
     38          6           0        5.188360   -2.426526   -0.069255
     39          6           0        7.891219   -4.969186    0.080679
     40          6           0        4.399405   -4.606224   -0.121621
     41          8           0        4.305541   -5.847233   -0.137164
     42          6           0        3.205061   -3.671613   -0.007566
     43          6           0        2.236081   -3.879077   -1.091391
     44          8           0        2.158383   -3.328406   -2.196238
     45          8           0        1.366815   -4.902234   -0.680528
     46          6           0        0.299082   -5.156009   -1.700538
     47          6           0       -3.949344   -1.115222    1.053320
     48          6           0       -4.784974   -0.419091   -0.036075
     49          6           0       -6.095066   -0.451838   -0.375599
     50          6           0       -7.147619   -1.193046    0.508322
     51          6           0       -6.664663    0.482505   -1.531640
     52          6           0       -8.077872    0.171938   -2.031753
     53          6           0       -8.790613    1.522151   -2.360525
     54          6           0      -10.240386    1.320422   -2.904128
     55          6           0      -10.614435    2.275339   -4.007665
     56          6           0      -11.289464    1.312390   -1.746137
     57          6           0      -11.986770   -0.098895   -1.612793
     58          6           0      -13.575126   -0.085563   -1.847203
     59          6           0      -14.316581   -0.479596   -0.499500
     60          6           0      -15.670531   -1.085156   -0.753954
     61          6           0      -14.262719    0.722854    0.616080
     62          6           0      -14.047566    0.311715    2.125028
     63          6           0      -13.266827    1.424601    2.914492
     64          6           0      -11.864659    0.968439    3.261476
     65          6           0      -11.625115    1.121973    4.793237
     66          6           0      -10.855476    1.705560    2.344190
     67          1           0        2.514830    3.269549    0.440016
     68          1           0        8.977097    3.668119   -0.158401
     69          1           0        9.527048   -2.575395    0.073862
     70          1           0        1.230815   -0.988375   -0.887025
     71          1           0        0.962563    1.194624    0.993817
     72          1           0        1.357147    1.930164   -1.684947
     73          1           0        0.123380    2.220569   -0.517597
     74          1           0        0.149411    0.665924   -1.473147
     75          1           0        0.637451   -0.826072    2.093589
     76          1           0        1.714081   -2.110769    1.611439
     77          1           0       -0.147442   -3.387648    0.802666
     78          1           0       -0.466178   -2.009809   -0.217899
     79          1           0        4.091629    6.233596    1.263104
     80          1           0        2.904550    5.314508    0.250871
     81          1           0        4.037040    6.438473   -0.467891
     82          1           0        7.347936    8.174209   -0.052185
     83          1           0        6.115649    7.302166    0.731961
     84          1           0        6.116171    7.294277   -1.078592
     85          1           0       10.565946    1.930646    0.935898
     86          1           0       11.035927   -0.466806   -0.601705
     87          1           0       10.831926    2.053988   -2.079682
     88          1           0       12.235665    1.468189   -1.204947
     89          1           0       11.497434    3.054439   -0.809239
     90          1           0        9.991466   -0.830052    2.214085
     91          1           0       11.261221    0.271942    2.357120
     92          1           0       12.074108   -1.986095    0.656028
     93          1           0       11.334168   -2.639467    2.107978
     94          1           0       12.772455   -1.494232    2.049247
     95          1           0        8.128286   -5.443092   -0.872839
     96          1           0        7.333833   -5.658228    0.715091
     97          1           0        8.883098   -4.853565    0.517620
     98          1           0        2.611873   -3.911803    0.875251
     99          1           0        0.594199   -5.253816   -2.745104
    100          1           0       -0.497926   -4.412970   -1.664069
    101          1           0       -0.191497   -6.120484   -1.564771
    102          1           0       -3.976631   -0.505030    1.955905
    103          1           0       -4.291645   -2.125626    1.278154
    104          1           0       -4.165898    0.282473   -0.596511
    105          1           0       -7.540095   -2.033838   -0.063505
    106          1           0       -7.948329   -0.512923    0.796357
    107          1           0       -6.727493   -1.723482    1.362609
    108          1           0       -5.896176    0.445196   -2.304061
    109          1           0       -6.587698    1.523803   -1.218150
    110          1           0       -8.675212   -0.495651   -1.409235
    111          1           0       -7.992958   -0.199067   -3.052904
    112          1           0       -8.189348    2.096182   -3.065847
    113          1           0       -8.848125    2.074213   -1.421989
    114          1           0      -10.322584    0.318156   -3.324272
    115          1           0      -11.444644    2.924460   -3.728497
    116          1           0      -10.849919    1.676636   -4.887874
    117          1           0       -9.848544    2.988103   -4.313146
    118          1           0      -11.977556    2.153642   -1.820957
    119          1           0      -10.688797    1.380213   -0.838547
    120          1           0      -11.618965   -0.342378   -0.617063
    121          1           0      -11.720203   -0.931516   -2.263312
    122          1           0      -13.662647   -0.817049   -2.651092
    123          1           0      -13.951966    0.802613   -2.353664
    124          1           0      -13.610906   -1.180114   -0.053187
    125          1           0      -16.373339   -0.840571    0.041972
    126          1           0      -15.604485   -2.172017   -0.794897
    127          1           0      -16.085230   -0.558560   -1.614226
    128          1           0      -15.188162    1.296592    0.579188
    129          1           0      -13.567577    1.484404    0.261266
    130          1           0      -13.452054   -0.600748    2.142194
    131          1           0      -14.992541    0.184086    2.653385
    132          1           0      -13.923153    1.748644    3.722983
    133          1           0      -13.208595    2.350527    2.343211
    134          1           0      -11.659865   -0.049806    2.932032
    135          1           0      -11.187759    0.198716    5.173214
    136          1           0      -12.559312    1.196275    5.350880
    137          1           0      -10.958134    1.961742    4.984333
    138          1           0      -10.222744    0.930742    1.909097
    139          1           0      -10.206711    2.421375    2.849612
    140          1           0      -11.342598    2.349174    1.612544
 ---------------------------------------------------------------------

 SCF Done:  E(RZINDO/S) =  -474.006553179     A.U. after   20 cycles

 Excitation energies and oscillator strengths:

 Excited State   1:      Singlet-A      1.2838 eV  965.75 nm  f=0.5789  <S**2>=0.000
     175 ->178        -0.19001
     176 ->177         0.66400
 This state for optimization and/or second-order correction.
 Total Energy, E(CIS/TDA) =  -473.959374181
 Copying the excited state density for this state as the 1-particle RhoCI density.

 Excited State   2:      Singlet-A      1.9323 eV  641.64 nm  f=0.0246  <S**2>=0.000
     175 ->177         0.52665
     176 ->178         0.44571

 Excited State   3:      Singlet-A      2.9067 eV  426.55 nm  f=0.0867  <S**2>=0.000
     167 ->177         0.11215
     167 ->179        -0.16281
     168 ->177         0.35201
     168 ->178        -0.10188
     168 ->179        -0.40696
     168 ->182         0.17857
     168 ->186        -0.15890
     175 ->177         0.10743
     176 ->178        -0.14240

 Excited State   4:      Singlet-A      2.9813 eV  415.87 nm  f=0.5689  <S**2>=0.000
     168 ->179        -0.11049
     171 ->177         0.13005
     175 ->177        -0.28588
     176 ->178         0.37278
     176 ->179         0.43928

 Excited State   5:      Singlet-A      3.0144 eV  411.31 nm  f=0.5595  <S**2>=0.000
     175 ->177         0.28112
     176 ->178        -0.32145
     176 ->179         0.47454
     176 ->180        -0.18931

 The electronic state is 1-A.
 Alpha  occ. eigenvalues --   -1.86639  -1.83019  -1.77864  -1.71922  -1.70623
 Alpha  occ. eigenvalues --   -1.69034  -1.63764  -1.60030  -1.58515  -1.57036
 Alpha  occ. eigenvalues --   -1.53133  -1.49938  -1.49087  -1.47175  -1.46348
 Alpha  occ. eigenvalues --   -1.44815  -1.43310  -1.41851  -1.39343  -1.37061
 Alpha  occ. eigenvalues --   -1.35815  -1.35468  -1.32152  -1.30637  -1.29360
 Alpha  occ. eigenvalues --   -1.28094  -1.25562  -1.22439  -1.19885  -1.18030
 Alpha  occ. eigenvalues --   -1.17824  -1.16791  -1.15707  -1.14139  -1.12448
 Alpha  occ. eigenvalues --   -1.11384  -1.10493  -1.09973  -1.05883  -1.04480
 Alpha  occ. eigenvalues --   -1.02022  -1.01582  -0.98627  -0.97909  -0.97428
 Alpha  occ. eigenvalues --   -0.96265  -0.94292  -0.93237  -0.93066  -0.92587
 Alpha  occ. eigenvalues --   -0.91469  -0.91433  -0.89076  -0.87984  -0.87488
 Alpha  occ. eigenvalues --   -0.85933  -0.84064  -0.83701  -0.82063  -0.80508
 Alpha  occ. eigenvalues --   -0.79733  -0.78718  -0.76912  -0.76538  -0.76385
 Alpha  occ. eigenvalues --   -0.75217  -0.74879  -0.74481  -0.74347  -0.72991
 Alpha  occ. eigenvalues --   -0.72737  -0.72253  -0.71799  -0.71141  -0.70940
 Alpha  occ. eigenvalues --   -0.70231  -0.68987  -0.68472  -0.68134  -0.67632
 Alpha  occ. eigenvalues --   -0.67473  -0.66741  -0.66531  -0.66351  -0.65606
 Alpha  occ. eigenvalues --   -0.65424  -0.65339  -0.64440  -0.64081  -0.63735
 Alpha  occ. eigenvalues --   -0.63349  -0.62771  -0.62331  -0.62243  -0.62029
 Alpha  occ. eigenvalues --   -0.61408  -0.61319  -0.60873  -0.60398  -0.59921
 Alpha  occ. eigenvalues --   -0.59551  -0.59460  -0.59203  -0.58787  -0.58705
 Alpha  occ. eigenvalues --   -0.58322  -0.58024  -0.57705  -0.57227  -0.56502
 Alpha  occ. eigenvalues --   -0.55905  -0.55495  -0.55366  -0.55193  -0.55036
 Alpha  occ. eigenvalues --   -0.54277  -0.54097  -0.53840  -0.53076  -0.52787
 Alpha  occ. eigenvalues --   -0.52542  -0.52299  -0.52064  -0.51839  -0.51062
 Alpha  occ. eigenvalues --   -0.51008  -0.50932  -0.50558  -0.50308  -0.50141
 Alpha  occ. eigenvalues --   -0.49894  -0.49756  -0.49714  -0.49411  -0.49139
 Alpha  occ. eigenvalues --   -0.48651  -0.48426  -0.48391  -0.48267  -0.47931
 Alpha  occ. eigenvalues --   -0.47853  -0.47061  -0.46913  -0.46803  -0.46720
 Alpha  occ. eigenvalues --   -0.46288  -0.45833  -0.45469  -0.45456  -0.45398
 Alpha  occ. eigenvalues --   -0.45054  -0.44898  -0.44453  -0.43847  -0.43706
 Alpha  occ. eigenvalues --   -0.43395  -0.43118  -0.42965  -0.42632  -0.42564
 Alpha  occ. eigenvalues --   -0.42168  -0.42106  -0.41521  -0.39581  -0.39229
 Alpha  occ. eigenvalues --   -0.39019  -0.37384  -0.36175  -0.35365  -0.34464
 Alpha  occ. eigenvalues --   -0.33753  -0.32488  -0.32457  -0.31944  -0.26893
 Alpha  occ. eigenvalues --   -0.21894
 Alpha virt. eigenvalues --   -0.08529  -0.02363  -0.01159   0.01002   0.01403
 Alpha virt. eigenvalues --    0.01681   0.02643   0.02862   0.04539   0.04612
 Alpha virt. eigenvalues --    0.06185   0.06344   0.07216   0.07538   0.07679

 Mulliken charges:
               1
     1  Mg   0.428728
     2  C   -0.061989
     3  C   -0.058405
     4  C   -0.059086
     5  C   -0.069178
     6  N   -0.296561
     7  C    0.152356
     8  C    0.007731
     9  C    0.009593
    10  C    0.088814
    11  C   -0.051196
    12  C   -0.025012
    13  C   -0.000331
    14  C    0.458197
    15  O   -0.498419
    16  O   -0.289768
    17  N   -0.321697
    18  C    0.064186
    19  C   -0.007134
    20  C   -0.080061
    21  C    0.142076
    22  C   -0.041160
    23  C    0.337819
    24  O   -0.547563
    25  C   -0.024257
    26  N   -0.229316
    27  C    0.109584
    28  C    0.007707
    29  C   -0.005064
    30  C    0.160098
    31  C   -0.047124
    32  C   -0.032555
    33  C   -0.065591
    34  N   -0.344376
    35  C    0.119591
    36  C    0.071121
    37  C   -0.053539
    38  C    0.131935
    39  C   -0.034869
    40  C    0.341948
    41  O   -0.522400
    42  C    0.065959
    43  C    0.487546
    44  O   -0.521469
    45  O   -0.265265
    46  C    0.069747
    47  C    0.115089
    48  C   -0.077824
    49  C   -0.027182
    50  C   -0.047199
    51  C   -0.022345
    52  C   -0.037751
    53  C   -0.036296
    54  C   -0.016501
    55  C   -0.055737
    56  C   -0.041255
    57  C   -0.054336
    58  C   -0.044488
    59  C   -0.014996
    60  C   -0.050881
    61  C   -0.045935
    62  C   -0.037994
    63  C   -0.034661
    64  C   -0.008946
    65  C   -0.057630
    66  C   -0.062723
    67  H    0.027348
    68  H    0.037713
    69  H    0.030717
    70  H    0.046700
    71  H    0.028380
    72  H    0.018252
    73  H    0.015780
    74  H    0.027047
    75  H    0.036137
    76  H    0.021746
    77  H    0.053710
    78  H    0.025655
    79  H    0.030882
    80  H    0.028491
    81  H    0.021944
    82  H    0.037978
    83  H    0.030150
    84  H    0.044880
    85  H    0.032574
    86  H    0.035556
    87  H    0.022987
    88  H    0.023930
    89  H    0.024292
    90  H    0.016711
    91  H    0.032333
    92  H    0.010014
    93  H    0.029825
    94  H    0.020304
    95  H    0.040271
    96  H    0.033836
    97  H    0.024840
    98  H    0.065323
    99  H    0.049733
   100  H    0.036038
   101  H    0.028304
   102  H    0.049148
   103  H    0.050399
   104  H    0.023609
   105  H    0.022434
   106  H    0.033379
   107  H    0.021247
   108  H    0.024027
   109  H    0.027498
   110  H    0.039121
   111  H    0.017617
   112  H    0.021109
   113  H    0.015581
   114  H    0.018397
   115  H    0.017136
   116  H    0.016141
   117  H    0.014442
   118  H    0.031504
   119  H    0.015100
   120  H    0.020039
   121  H    0.025977
   122  H    0.011489
   123  H    0.025968
   124  H    0.016652
   125  H    0.011320
   126  H    0.026969
   127  H    0.023676
   128  H    0.010773
   129  H    0.021628
   130  H    0.024560
   131  H    0.023203
   132  H    0.014724
   133  H    0.016015
   134  H    0.024784
   135  H    0.012845
   136  H    0.020878
   137  H    0.025649
   138  H    0.016915
   139  H    0.013351
   140  H    0.022564
 Sum of Mulliken charges =  -0.00000

 Dipole moment (field-independent basis, Debye):
    X=             -1.6944    Y=              1.5959    Z=              1.8843  Tot=              2.9947
 N-N= 4.241204507985D+03 E-N= 0.000000000000D+00  KE=-9.156212982598D+03
 Leave Link  601 at Sat Apr 30 08:46:31 2022, MaxMem=  6710886400 cpu:               0.8 elap:               0.0
 (Enter /sw/apps/gaussian-16.0/g16/l9999.exe)
 1\1\GINC-BP1-COMPUTE082\SP\RZINDO CIS\STO-3G\C55H74Mg1N4O6\OF15641\30-
 Apr-2022\0\\#p ZINDO=(nstates=5)\\step_651_chromophore_25 ZINDO\\0,1\M
 g,0,-2.725,34.916,27.054\C,0,-3.844,32.933,29.803\C,0,-0.82,36.781,29.
 372\C,0,-2.028,36.966,24.66\C,0,-4.661,32.933,24.985\N,0,-2.497,34.894
 ,29.321\C,0,-3.003,33.969,30.195\C,0,-2.503,34.34,31.651\C,0,-1.568,35
 .496,31.449\C,0,-1.54,35.71,29.954\C,0,-1.981,36.678,32.318\C,0,-1.863
 ,33.064,32.335\C,0,-2.46,32.692,33.745\C,0,-1.522,32.658,34.977\O,0,-0

 Normal termination of Gaussian 16 at Sat Apr 30 08:46:31 2022.
