 Gaussian 16, Revision A.03,
 Gaussian 16:  ES64L-G16RevA.03 25-Dec-2016

 ------------------------------
 #p blyp/Def2SVP td=(nstates=5)
 ------------------------------

 --------------------------------------------------
 step_1701_chromophore_9 TDDFT with blyp functional
 --------------------------------------------------
 Symbolic Z-matrix:
 Charge =  0 Multiplicity = 1

                         Standard orientation:
 ---------------------------------------------------------------------
 Center     Atomic      Atomic             Coordinates (Angstroms)
 Number     Number       Type             X           Y           Z
 ---------------------------------------------------------------------
      1         12           0       -5.156305    0.651358   -0.156075
      2          6           0       -3.567676   -2.517547    0.295004
      3          6           0       -1.912475    1.826090   -0.672040
      4          6           0       -6.430974    3.643621   -0.037154
      5          6           0       -8.176337   -0.796380    0.826880
      6          7           0       -3.012754   -0.262938   -0.086285
      7          6           0       -2.639773   -1.513172    0.114727
      8          6           0       -1.166507   -1.765890   -0.259677
      9          6           0       -0.605848   -0.342637   -0.202429
     10          6           0       -1.913455    0.503262   -0.278661
     11          6           0        0.303406    0.099731    1.076935
     12          6           0       -0.949820   -2.347375   -1.702779
     13          6           0        0.199130   -3.328695   -1.936612
     14          6           0        1.524686   -2.934594   -1.301727
     15          8           0        2.152340   -3.469043   -0.380528
     16          8           0        1.939333   -1.742434   -1.840923
     17          7           0       -4.335692    2.471281   -0.484492
     18          6           0       -3.050505    2.762317   -0.761567
     19          6           0       -2.876585    4.174032   -1.031492
     20          6           0       -4.222777    4.693968   -0.784805
     21          6           0       -5.077546    3.610473   -0.463190
     22          6           0       -1.607782    4.812988   -1.422568
     23          6           0       -4.762849    6.107317   -0.917445
     24          8           0       -5.923074    6.497859   -0.816381
     25          6           0       -3.744965    7.109680   -1.492072
     26          7           0       -7.042285    1.289911    0.403264
     27          6           0       -7.249978    2.646754    0.501049
     28          6           0       -8.654718    2.967215    1.030211
     29          6           0       -9.346170    1.565041    1.103722
     30          6           0       -8.195805    0.600494    0.631069
     31          6           0       -8.684928    3.852374    2.382303
     32          6           0      -10.715980    1.422208    0.359607
     33          6           0      -10.638686    0.956872   -1.066968
     34          7           0       -5.796438   -1.275629    0.408384
     35          6           0       -6.986142   -1.700161    0.791459
     36          6           0       -6.933443   -3.116386    1.050542
     37          6           0       -5.627759   -3.507144    0.817934
     38          6           0       -4.938348   -2.364296    0.414964
     39          6           0       -8.153259   -3.919877    1.488325
     40          6           0       -4.777532   -4.699222    0.842550
     41          8           0       -5.062155   -5.868959    1.006617
     42          6           0       -3.298348   -4.025312    0.354215
     43          6           0       -2.327079   -4.452117    1.306430
     44          8           0       -2.194785   -4.010730    2.423430
     45          8           0       -1.400285   -5.303161    0.721876
     46          6           0       -0.144816   -5.342759    1.538478
     47          6           0        3.206803   -1.186049   -1.324676
     48          6           0        4.266210   -1.673117   -2.262639
     49          6           0        5.198856   -2.593997   -2.053230
     50          6           0        5.329306   -3.396409   -0.755555
     51          6           0        6.229866   -2.933132   -3.134033
     52          6           0        7.641913   -2.327614   -2.825000
     53          6           0        8.142188   -1.325534   -3.874058
     54          6           0        8.010080    0.139311   -3.283108
     55          6           0        7.642334    1.185744   -4.408706
     56          6           0        9.453260    0.598138   -2.783991
     57          6           0        9.422910    1.479074   -1.572329
     58          6           0       10.699662    1.999987   -1.103163
     59          6           0       10.689915    2.386774    0.444294
     60          6           0       11.581766    3.616304    0.643700
     61          6           0       11.075896    1.266295    1.388327
     62          6           0       10.299977    1.314318    2.630386
     63          6           0       10.875932    0.458301    3.813827
     64          6           0       11.306790    1.197056    5.079896
     65          6           0       10.093147    1.455888    5.989975
     66          6           0       12.212185    2.422692    4.861634
     67          1           0       -0.895707    2.125320   -0.935992
     68          1           0       -6.955394    4.601522   -0.042019
     69          1           0       -9.148745   -1.257640    1.010550
     70          1           0       -0.827374   -2.427417    0.536895
     71          1           0        0.049737   -0.114823   -1.042718
     72          1           0       -0.022856    1.043999    1.514138
     73          1           0        1.335937    0.256954    0.763802
     74          1           0        0.271218   -0.684708    1.832475
     75          1           0       -1.057216   -1.515600   -2.399075
     76          1           0       -1.751118   -3.051083   -1.929417
     77          1           0        0.422459   -3.265580   -3.002199
     78          1           0       -0.020958   -4.353492   -1.640650
     79          1           0       -1.838283    5.425880   -2.293725
     80          1           0       -0.871788    4.090175   -1.773686
     81          1           0       -1.176100    5.506667   -0.701337
     82          1           0       -2.785217    7.030651   -0.981057
     83          1           0       -4.118654    8.134201   -1.503840
     84          1           0       -3.719925    6.804098   -2.537829
     85          1           0       -9.192045    3.547336    0.279345
     86          1           0       -9.573983    1.395638    2.156131
     87          1           0       -8.744650    3.033482    3.098793
     88          1           0       -9.563101    4.493669    2.306407
     89          1           0       -7.732763    4.354542    2.551261
     90          1           0      -11.101866    2.438647    0.285976
     91          1           0      -11.537403    0.937877    0.886215
     92          1           0      -10.426793    1.756949   -1.775538
     93          1           0      -11.586897    0.476148   -1.306803
     94          1           0       -9.819480    0.292165   -1.339470
     95          1           0       -8.723598   -4.015019    0.564568
     96          1           0       -8.800721   -3.387784    2.184061
     97          1           0       -7.857869   -4.900514    1.862503
     98          1           0       -3.101865   -4.486585   -0.613654
     99          1           0        0.438591   -6.231740    1.298612
    100          1           0       -0.221882   -5.367682    2.625602
    101          1           0        0.481671   -4.483581    1.299654
    102          1           0        3.407277   -1.417919   -0.278654
    103          1           0        3.216961   -0.096237   -1.312612
    104          1           0        4.193287   -1.189159   -3.237041
    105          1           0        4.846882   -2.861011    0.061795
    106          1           0        6.385063   -3.509482   -0.508708
    107          1           0        4.949159   -4.418349   -0.783165
    108          1           0        5.981805   -2.766305   -4.182510
    109          1           0        6.393752   -4.010630   -3.109846
    110          1           0        8.379894   -3.126506   -2.758176
    111          1           0        7.633561   -1.835381   -1.851925
    112          1           0        7.611905   -1.455553   -4.817208
    113          1           0        9.194215   -1.493553   -4.105379
    114          1           0        7.307779    0.246031   -2.456223
    115          1           0        8.486654    1.709689   -4.857165
    116          1           0        6.993061    1.959732   -3.999481
    117          1           0        7.214785    0.729407   -5.301462
    118          1           0       10.122908    0.937592   -3.573973
    119          1           0        9.966982   -0.304943   -2.454235
    120          1           0        9.160261    0.830003   -0.737307
    121          1           0        8.792397    2.355363   -1.727210
    122          1           0       10.931837    2.956279   -1.571230
    123          1           0       11.572340    1.378822   -1.303410
    124          1           0        9.648891    2.648163    0.636642
    125          1           0       12.075474    3.511373    1.609354
    126          1           0       10.884181    4.452267    0.585648
    127          1           0       12.335354    3.777948   -0.126797
    128          1           0       12.116741    1.396267    1.685034
    129          1           0       11.069713    0.306018    0.872536
    130          1           0        9.276290    1.085792    2.336804
    131          1           0       10.247425    2.373668    2.881792
    132          1           0       11.751835   -0.091244    3.470241
    133          1           0       10.090853   -0.293574    3.896870
    134          1           0       11.954662    0.460978    5.557173
    135          1           0       10.349783    1.239543    7.026517
    136          1           0        9.231257    0.883391    5.648476
    137          1           0        9.901504    2.528854    6.029999
    138          1           0       12.539748    2.491102    3.824333
    139          1           0       13.153132    2.265268    5.388797
    140          1           0       11.735753    3.351287    5.177217
 ---------------------------------------------------------------------

 SCF Done:  E(RB-LYP) =  -3007.38861237     A.U. after   21 cycles

 Excitation energies and oscillator strengths:

 Excited State   1:      Singlet-A      1.7692 eV  700.81 nm  f=0.0295  <S**2>=0.000
     244 -> 247        0.67558
     246 -> 247        0.20106
 This state for optimization and/or second-order correction.
 Total Energy, E(TD-HF/TD-DFT) =  -3007.32359712
 Copying the excited state density for this state as the 1-particle RhoCI density.

 Excited State   2:      Singlet-A      1.8361 eV  675.25 nm  f=0.2835  <S**2>=0.000
     244 -> 247       -0.20163
     245 -> 248       -0.18244
     246 -> 247        0.66042
     246 <- 247       -0.14402

 Excited State   3:      Singlet-A      1.9982 eV  620.49 nm  f=0.0954  <S**2>=0.000
     243 -> 247        0.12311
     245 -> 247        0.64876
     246 -> 248        0.22323

 Excited State   4:      Singlet-A      2.2087 eV  561.35 nm  f=0.0033  <S**2>=0.000
     243 -> 247        0.69318
     245 -> 247       -0.10179

 Excited State   5:      Singlet-A      2.5302 eV  490.03 nm  f=0.0001  <S**2>=0.000
     240 -> 247        0.57900
     242 -> 247        0.39980

 The electronic state is 1-A.
 Alpha  occ. eigenvalues --  -46.27216 -18.82642 -18.81470 -18.77706 -18.77604
 Alpha  occ. eigenvalues --  -18.75965 -18.75532 -14.03195 -14.03075 -14.01279
 Alpha  occ. eigenvalues --  -14.01125 -10.04797 -10.02774 -10.01082  -9.99628
 Alpha  occ. eigenvalues --   -9.98222  -9.96933  -9.96360  -9.96167  -9.96156
 Alpha  occ. eigenvalues --   -9.96106  -9.96016  -9.95865  -9.95517  -9.94583
 Alpha  occ. eigenvalues --   -9.94517  -9.94308  -9.94225  -9.94224  -9.94104
 Alpha  occ. eigenvalues --   -9.94074  -9.93867  -9.93802  -9.93621  -9.93511
 Alpha  occ. eigenvalues --   -9.93478  -9.93394  -9.93219  -9.93211  -9.92733
 Alpha  occ. eigenvalues --   -9.92722  -9.92650  -9.92563  -9.92513  -9.92404
 Alpha  occ. eigenvalues --   -9.92281  -9.92152  -9.91867  -9.91816  -9.91774
 Alpha  occ. eigenvalues --   -9.91619  -9.91520  -9.91356  -9.91336  -9.91317
 Alpha  occ. eigenvalues --   -9.91226  -9.91129  -9.90945  -9.90930  -9.90797
 Alpha  occ. eigenvalues --   -9.90668  -9.90659  -9.90627  -9.90558  -9.90330
 Alpha  occ. eigenvalues --   -9.90176  -2.91926  -1.72352  -1.71830  -1.71620
 Alpha  occ. eigenvalues --   -0.98228  -0.97041  -0.92833  -0.91037  -0.89765
 Alpha  occ. eigenvalues --   -0.89072  -0.87648  -0.86749  -0.86359  -0.85229
 Alpha  occ. eigenvalues --   -0.75707  -0.74016  -0.73802  -0.73115  -0.72186
 Alpha  occ. eigenvalues --   -0.71986  -0.71638  -0.71012  -0.70773  -0.70449
 Alpha  occ. eigenvalues --   -0.69662  -0.69494  -0.68692  -0.67437  -0.67291
 Alpha  occ. eigenvalues --   -0.66736  -0.65802  -0.65190  -0.64700  -0.64178
 Alpha  occ. eigenvalues --   -0.64081  -0.62646  -0.62463  -0.61265  -0.60472
 Alpha  occ. eigenvalues --   -0.60425  -0.60325  -0.60072  -0.59461  -0.59234
 Alpha  occ. eigenvalues --   -0.58766  -0.58051  -0.56583  -0.56130  -0.55186
 Alpha  occ. eigenvalues --   -0.54298  -0.53752  -0.52832  -0.52517  -0.51733
 Alpha  occ. eigenvalues --   -0.51067  -0.50864  -0.50817  -0.50431  -0.50352
 Alpha  occ. eigenvalues --   -0.49981  -0.49343  -0.47591  -0.47472  -0.46913
 Alpha  occ. eigenvalues --   -0.46743  -0.46358  -0.45915  -0.45193  -0.44451
 Alpha  occ. eigenvalues --   -0.44226  -0.43798  -0.42960  -0.42736  -0.42520
 Alpha  occ. eigenvalues --   -0.42421  -0.42301  -0.41941  -0.41629  -0.41396
 Alpha  occ. eigenvalues --   -0.41276  -0.40531  -0.40447  -0.40020  -0.39865
 Alpha  occ. eigenvalues --   -0.39699  -0.39429  -0.39348  -0.39282  -0.38998
 Alpha  occ. eigenvalues --   -0.38884  -0.38584  -0.38488  -0.38179  -0.38022
 Alpha  occ. eigenvalues --   -0.37910  -0.37637  -0.37428  -0.37356  -0.37194
 Alpha  occ. eigenvalues --   -0.37115  -0.36976  -0.36842  -0.36485  -0.36374
 Alpha  occ. eigenvalues --   -0.36174  -0.36089  -0.35897  -0.35744  -0.35728
 Alpha  occ. eigenvalues --   -0.35416  -0.35238  -0.34923  -0.34838  -0.34756
 Alpha  occ. eigenvalues --   -0.34659  -0.34595  -0.34547  -0.34268  -0.34204
 Alpha  occ. eigenvalues --   -0.34076  -0.33973  -0.33790  -0.33669  -0.33205
 Alpha  occ. eigenvalues --   -0.33041  -0.32911  -0.32765  -0.32651  -0.32567
 Alpha  occ. eigenvalues --   -0.32141  -0.31842  -0.31542  -0.31488  -0.31355
 Alpha  occ. eigenvalues --   -0.31178  -0.31055  -0.30934  -0.30815  -0.30638
 Alpha  occ. eigenvalues --   -0.30328  -0.30213  -0.30139  -0.29960  -0.29914
 Alpha  occ. eigenvalues --   -0.29845  -0.29727  -0.29637  -0.29574  -0.29145
 Alpha  occ. eigenvalues --   -0.29063  -0.29041  -0.28925  -0.28878  -0.28215
 Alpha  occ. eigenvalues --   -0.27897  -0.27663  -0.26993  -0.26615  -0.26593
 Alpha  occ. eigenvalues --   -0.26397  -0.26138  -0.25816  -0.25770  -0.25585
 Alpha  occ. eigenvalues --   -0.24968  -0.24489  -0.24428  -0.23912  -0.23636
 Alpha  occ. eigenvalues --   -0.23569  -0.22514  -0.22331  -0.21488  -0.21145
 Alpha  occ. eigenvalues --   -0.21086  -0.20588  -0.19800  -0.18284  -0.17274
 Alpha  occ. eigenvalues --   -0.16164
 Alpha virt. eigenvalues --   -0.11832  -0.06875  -0.06431  -0.04644  -0.03851
 Alpha virt. eigenvalues --   -0.02847  -0.02578  -0.02118  -0.01321   0.00067
 Alpha virt. eigenvalues --    0.00759   0.01420   0.02399   0.02599   0.02733

 Mulliken charges:
               1
     1  Mg   0.714213
     2  C    0.037856
     3  C   -0.070895
     4  C   -0.032815
     5  C   -0.053088
     6  N   -0.144851
     7  C   -0.121667
     8  C    0.036716
     9  C   -0.028522
    10  C    0.014021
    11  C    0.102428
    12  C    0.124838
    13  C    0.177231
    14  C    0.076681
    15  O   -0.199761
    16  O   -0.284775
    17  N   -0.293219
    18  C    0.128288
    19  C   -0.135323
    20  C    0.007395
    21  C    0.116196
    22  C    0.183331
    23  C   -0.066470
    24  O   -0.164253
    25  C    0.108378
    26  N   -0.263810
    27  C    0.026834
    28  C   -0.025345
    29  C    0.043249
    30  C    0.036268
    31  C    0.128916
    32  C    0.097800
    33  C    0.054591
    34  N   -0.222758
    35  C    0.074213
    36  C   -0.191003
    37  C    0.068946
    38  C    0.088351
    39  C    0.181183
    40  C   -0.010897
    41  O   -0.101337
    42  C    0.002851
    43  C    0.109783
    44  O   -0.173967
    45  O   -0.291682
    46  C    0.203531
    47  C    0.322186
    48  C   -0.121078
    49  C   -0.114026
    50  C    0.163424
    51  C    0.158824
    52  C    0.048854
    53  C    0.126443
    54  C   -0.073706
    55  C    0.102754
    56  C    0.083288
    57  C    0.106678
    58  C    0.109785
    59  C   -0.135645
    60  C    0.134152
    61  C    0.131575
    62  C    0.047962
    63  C    0.102446
    64  C   -0.065608
    65  C    0.121999
    66  C    0.113100
    67  H   -0.067374
    68  H   -0.037568
    69  H   -0.059612
    70  H   -0.019219
    71  H   -0.015233
    72  H   -0.005821
    73  H   -0.010101
    74  H    0.006143
    75  H   -0.010908
    76  H   -0.021867
    77  H   -0.004777
    78  H    0.009756
    79  H   -0.009491
    80  H   -0.015252
    81  H    0.016190
    82  H   -0.001369
    83  H   -0.014375
    84  H    0.016008
    85  H   -0.018819
    86  H   -0.024497
    87  H   -0.013768
    88  H    0.012260
    89  H    0.008923
    90  H   -0.035247
    91  H   -0.024707
    92  H   -0.015830
    93  H   -0.009100
    94  H   -0.005155
    95  H   -0.000765
    96  H   -0.001826
    97  H    0.011636
    98  H    0.004314
    99  H    0.002645
   100  H    0.018790
   101  H    0.016166
   102  H   -0.005253
   103  H   -0.009347
   104  H   -0.042786
   105  H   -0.012515
   106  H   -0.023772
   107  H    0.011102
   108  H   -0.030225
   109  H   -0.041215
   110  H   -0.034728
   111  H   -0.011961
   112  H   -0.039943
   113  H   -0.033494
   114  H   -0.025304
   115  H   -0.025086
   116  H   -0.016674
   117  H   -0.027069
   118  H   -0.032304
   119  H   -0.053212
   120  H   -0.029999
   121  H   -0.031824
   122  H   -0.059874
   123  H   -0.046069
   124  H   -0.043146
   125  H   -0.021918
   126  H   -0.018095
   127  H   -0.014162
   128  H   -0.054070
   129  H   -0.045663
   130  H   -0.041435
   131  H   -0.037176
   132  H   -0.039833
   133  H   -0.034221
   134  H   -0.038667
   135  H   -0.019387
   136  H   -0.010268
   137  H   -0.024687
   138  H   -0.018356
   139  H   -0.020390
   140  H   -0.008186
 Sum of Mulliken charges =  -0.00000

 Dipole moment (field-independent basis, Debye):
    X=              2.4945    Y=              2.2972    Z=             -2.9302  Tot=              4.4818
 Quadrupole moment (field-independent basis, Debye-Ang):
   XX=           -370.0215   YY=           -445.7185   ZZ=           -404.2271
   XY=             -5.1938   XZ=              0.8399   YZ=             13.4356

 Normal termination of Gaussian 16 at Wed May  4 13:37:22 2022.
