 Gaussian 16, Revision A.03,
 Gaussian 16:  ES64L-G16RevA.03 25-Dec-2016

 -----------------------------------
 #p cam-b3lyp/Def2SVP td=(nstates=5)
 -----------------------------------

 -------------------------------------------------------
 step_1701_chromophore_9 TDDFT with cam-b3lyp functional
 -------------------------------------------------------
 Symbolic Z-matrix:
 Charge =  0 Multiplicity = 1

                         Standard orientation:
 ---------------------------------------------------------------------
 Center     Atomic      Atomic             Coordinates (Angstroms)
 Number     Number       Type             X           Y           Z
 ---------------------------------------------------------------------
      1         12           0       -5.156305    0.651358   -0.156075
      2          6           0       -3.567676   -2.517547    0.295004
      3          6           0       -1.912475    1.826090   -0.672040
      4          6           0       -6.430974    3.643621   -0.037154
      5          6           0       -8.176337   -0.796380    0.826880
      6          7           0       -3.012754   -0.262938   -0.086285
      7          6           0       -2.639773   -1.513172    0.114727
      8          6           0       -1.166507   -1.765890   -0.259677
      9          6           0       -0.605848   -0.342637   -0.202429
     10          6           0       -1.913455    0.503262   -0.278661
     11          6           0        0.303406    0.099731    1.076935
     12          6           0       -0.949820   -2.347375   -1.702779
     13          6           0        0.199130   -3.328695   -1.936612
     14          6           0        1.524686   -2.934594   -1.301727
     15          8           0        2.152340   -3.469043   -0.380528
     16          8           0        1.939333   -1.742434   -1.840923
     17          7           0       -4.335692    2.471281   -0.484492
     18          6           0       -3.050505    2.762317   -0.761567
     19          6           0       -2.876585    4.174032   -1.031492
     20          6           0       -4.222777    4.693968   -0.784805
     21          6           0       -5.077546    3.610473   -0.463190
     22          6           0       -1.607782    4.812988   -1.422568
     23          6           0       -4.762849    6.107317   -0.917445
     24          8           0       -5.923074    6.497859   -0.816381
     25          6           0       -3.744965    7.109680   -1.492072
     26          7           0       -7.042285    1.289911    0.403264
     27          6           0       -7.249978    2.646754    0.501049
     28          6           0       -8.654718    2.967215    1.030211
     29          6           0       -9.346170    1.565041    1.103722
     30          6           0       -8.195805    0.600494    0.631069
     31          6           0       -8.684928    3.852374    2.382303
     32          6           0      -10.715980    1.422208    0.359607
     33          6           0      -10.638686    0.956872   -1.066968
     34          7           0       -5.796438   -1.275629    0.408384
     35          6           0       -6.986142   -1.700161    0.791459
     36          6           0       -6.933443   -3.116386    1.050542
     37          6           0       -5.627759   -3.507144    0.817934
     38          6           0       -4.938348   -2.364296    0.414964
     39          6           0       -8.153259   -3.919877    1.488325
     40          6           0       -4.777532   -4.699222    0.842550
     41          8           0       -5.062155   -5.868959    1.006617
     42          6           0       -3.298348   -4.025312    0.354215
     43          6           0       -2.327079   -4.452117    1.306430
     44          8           0       -2.194785   -4.010730    2.423430
     45          8           0       -1.400285   -5.303161    0.721876
     46          6           0       -0.144816   -5.342759    1.538478
     47          6           0        3.206803   -1.186049   -1.324676
     48          6           0        4.266210   -1.673117   -2.262639
     49          6           0        5.198856   -2.593997   -2.053230
     50          6           0        5.329306   -3.396409   -0.755555
     51          6           0        6.229866   -2.933132   -3.134033
     52          6           0        7.641913   -2.327614   -2.825000
     53          6           0        8.142188   -1.325534   -3.874058
     54          6           0        8.010080    0.139311   -3.283108
     55          6           0        7.642334    1.185744   -4.408706
     56          6           0        9.453260    0.598138   -2.783991
     57          6           0        9.422910    1.479074   -1.572329
     58          6           0       10.699662    1.999987   -1.103163
     59          6           0       10.689915    2.386774    0.444294
     60          6           0       11.581766    3.616304    0.643700
     61          6           0       11.075896    1.266295    1.388327
     62          6           0       10.299977    1.314318    2.630386
     63          6           0       10.875932    0.458301    3.813827
     64          6           0       11.306790    1.197056    5.079896
     65          6           0       10.093147    1.455888    5.989975
     66          6           0       12.212185    2.422692    4.861634
     67          1           0       -0.895707    2.125320   -0.935992
     68          1           0       -6.955394    4.601522   -0.042019
     69          1           0       -9.148745   -1.257640    1.010550
     70          1           0       -0.827374   -2.427417    0.536895
     71          1           0        0.049737   -0.114823   -1.042718
     72          1           0       -0.022856    1.043999    1.514138
     73          1           0        1.335937    0.256954    0.763802
     74          1           0        0.271218   -0.684708    1.832475
     75          1           0       -1.057216   -1.515600   -2.399075
     76          1           0       -1.751118   -3.051083   -1.929417
     77          1           0        0.422459   -3.265580   -3.002199
     78          1           0       -0.020958   -4.353492   -1.640650
     79          1           0       -1.838283    5.425880   -2.293725
     80          1           0       -0.871788    4.090175   -1.773686
     81          1           0       -1.176100    5.506667   -0.701337
     82          1           0       -2.785217    7.030651   -0.981057
     83          1           0       -4.118654    8.134201   -1.503840
     84          1           0       -3.719925    6.804098   -2.537829
     85          1           0       -9.192045    3.547336    0.279345
     86          1           0       -9.573983    1.395638    2.156131
     87          1           0       -8.744650    3.033482    3.098793
     88          1           0       -9.563101    4.493669    2.306407
     89          1           0       -7.732763    4.354542    2.551261
     90          1           0      -11.101866    2.438647    0.285976
     91          1           0      -11.537403    0.937877    0.886215
     92          1           0      -10.426793    1.756949   -1.775538
     93          1           0      -11.586897    0.476148   -1.306803
     94          1           0       -9.819480    0.292165   -1.339470
     95          1           0       -8.723598   -4.015019    0.564568
     96          1           0       -8.800721   -3.387784    2.184061
     97          1           0       -7.857869   -4.900514    1.862503
     98          1           0       -3.101865   -4.486585   -0.613654
     99          1           0        0.438591   -6.231740    1.298612
    100          1           0       -0.221882   -5.367682    2.625602
    101          1           0        0.481671   -4.483581    1.299654
    102          1           0        3.407277   -1.417919   -0.278654
    103          1           0        3.216961   -0.096237   -1.312612
    104          1           0        4.193287   -1.189159   -3.237041
    105          1           0        4.846882   -2.861011    0.061795
    106          1           0        6.385063   -3.509482   -0.508708
    107          1           0        4.949159   -4.418349   -0.783165
    108          1           0        5.981805   -2.766305   -4.182510
    109          1           0        6.393752   -4.010630   -3.109846
    110          1           0        8.379894   -3.126506   -2.758176
    111          1           0        7.633561   -1.835381   -1.851925
    112          1           0        7.611905   -1.455553   -4.817208
    113          1           0        9.194215   -1.493553   -4.105379
    114          1           0        7.307779    0.246031   -2.456223
    115          1           0        8.486654    1.709689   -4.857165
    116          1           0        6.993061    1.959732   -3.999481
    117          1           0        7.214785    0.729407   -5.301462
    118          1           0       10.122908    0.937592   -3.573973
    119          1           0        9.966982   -0.304943   -2.454235
    120          1           0        9.160261    0.830003   -0.737307
    121          1           0        8.792397    2.355363   -1.727210
    122          1           0       10.931837    2.956279   -1.571230
    123          1           0       11.572340    1.378822   -1.303410
    124          1           0        9.648891    2.648163    0.636642
    125          1           0       12.075474    3.511373    1.609354
    126          1           0       10.884181    4.452267    0.585648
    127          1           0       12.335354    3.777948   -0.126797
    128          1           0       12.116741    1.396267    1.685034
    129          1           0       11.069713    0.306018    0.872536
    130          1           0        9.276290    1.085792    2.336804
    131          1           0       10.247425    2.373668    2.881792
    132          1           0       11.751835   -0.091244    3.470241
    133          1           0       10.090853   -0.293574    3.896870
    134          1           0       11.954662    0.460978    5.557173
    135          1           0       10.349783    1.239543    7.026517
    136          1           0        9.231257    0.883391    5.648476
    137          1           0        9.901504    2.528854    6.029999
    138          1           0       12.539748    2.491102    3.824333
    139          1           0       13.153132    2.265268    5.388797
    140          1           0       11.735753    3.351287    5.177217
 ---------------------------------------------------------------------

 SCF Done:  E(RCAM-B3LYP) =  -3007.18798320     A.U. after   17 cycles

 Excitation energies and oscillator strengths:

 Excited State   1:      Singlet-A      1.7299 eV  716.71 nm  f=0.3814  <S**2>=0.000
     245 -> 248       -0.18033
     246 -> 247        0.68537
     245 <- 248       -0.10679
 This state for optimization and/or second-order correction.
 Total Energy, E(TD-HF/TD-DFT) =  -3007.12441003
 Copying the excited state density for this state as the 1-particle RhoCI density.

 Excited State   2:      Singlet-A      2.1939 eV  565.14 nm  f=0.1697  <S**2>=0.000
     245 -> 247        0.65733
     246 -> 248        0.25093

 Excited State   3:      Singlet-A      3.3897 eV  365.76 nm  f=0.0023  <S**2>=0.000
     242 -> 247       -0.22612
     243 -> 247        0.15344
     244 -> 247        0.63432

 Excited State   4:      Singlet-A      3.5251 eV  351.72 nm  f=0.0331  <S**2>=0.000
     242 -> 247        0.53788
     243 -> 247       -0.18305
     244 -> 247        0.24336
     246 -> 248       -0.27405

 Excited State   5:      Singlet-A      3.5646 eV  347.82 nm  f=0.0282  <S**2>=0.000
     239 -> 247        0.21095
     239 -> 249       -0.15175
     240 -> 247        0.29035
     240 -> 249       -0.13833
     241 -> 247       -0.10247
     243 -> 247        0.42344
     243 -> 248        0.11013
     243 -> 249        0.15523
     243 -> 250       -0.14460
     243 -> 251        0.12147
     246 -> 248       -0.15446

 The electronic state is 1-A.
 Alpha  occ. eigenvalues --  -46.88722 -19.25568 -19.24693 -19.21147 -19.20648
 Alpha  occ. eigenvalues --  -19.19422 -19.18433 -14.42243 -14.41736 -14.39702
 Alpha  occ. eigenvalues --  -14.39530 -10.40185 -10.38509 -10.36873 -10.34610
 Alpha  occ. eigenvalues --  -10.32385 -10.31504 -10.30836 -10.30597 -10.30434
 Alpha  occ. eigenvalues --  -10.30382 -10.30274 -10.30072 -10.29563 -10.29153
 Alpha  occ. eigenvalues --  -10.28608 -10.28569 -10.28423 -10.28353 -10.28330
 Alpha  occ. eigenvalues --  -10.28223 -10.28183 -10.28182 -10.28117 -10.27625
 Alpha  occ. eigenvalues --  -10.27622 -10.27444 -10.27410 -10.26890 -10.26488
 Alpha  occ. eigenvalues --  -10.26469 -10.26423 -10.26308 -10.26299 -10.26291
 Alpha  occ. eigenvalues --  -10.26009 -10.25953 -10.25704 -10.25539 -10.25503
 Alpha  occ. eigenvalues --  -10.25483 -10.25440 -10.25257 -10.25219 -10.24993
 Alpha  occ. eigenvalues --  -10.24880 -10.24731 -10.24635 -10.24617 -10.24427
 Alpha  occ. eigenvalues --  -10.24243 -10.24241 -10.24239 -10.24213 -10.24009
 Alpha  occ. eigenvalues --  -10.23794  -3.17341  -1.92241  -1.91811  -1.91633
 Alpha  occ. eigenvalues --   -1.16705  -1.15937  -1.11499  -1.09150  -1.07633
 Alpha  occ. eigenvalues --   -1.07273  -1.05574  -1.04556  -1.03752  -1.02677
 Alpha  occ. eigenvalues --   -0.93109  -0.90933  -0.90698  -0.89954  -0.88908
 Alpha  occ. eigenvalues --   -0.88587  -0.88179  -0.87609  -0.87450  -0.86876
 Alpha  occ. eigenvalues --   -0.86227  -0.85899  -0.85020  -0.83754  -0.83447
 Alpha  occ. eigenvalues --   -0.82826  -0.81834  -0.81090  -0.80592  -0.80053
 Alpha  occ. eigenvalues --   -0.79886  -0.78314  -0.78086  -0.76684  -0.75919
 Alpha  occ. eigenvalues --   -0.75840  -0.75685  -0.75303  -0.74771  -0.74492
 Alpha  occ. eigenvalues --   -0.73893  -0.73148  -0.71473  -0.70971  -0.69841
 Alpha  occ. eigenvalues --   -0.69077  -0.68365  -0.67205  -0.66904  -0.65962
 Alpha  occ. eigenvalues --   -0.65116  -0.65014  -0.64714  -0.64453  -0.64426
 Alpha  occ. eigenvalues --   -0.63797  -0.63335  -0.61392  -0.61352  -0.60457
 Alpha  occ. eigenvalues --   -0.60197  -0.60144  -0.59433  -0.58722  -0.58378
 Alpha  occ. eigenvalues --   -0.57552  -0.57161  -0.56106  -0.55894  -0.55604
 Alpha  occ. eigenvalues --   -0.55528  -0.55331  -0.54935  -0.54786  -0.54407
 Alpha  occ. eigenvalues --   -0.54226  -0.53975  -0.53171  -0.52825  -0.52588
 Alpha  occ. eigenvalues --   -0.52364  -0.52285  -0.51942  -0.51919  -0.51716
 Alpha  occ. eigenvalues --   -0.51592  -0.51332  -0.50935  -0.50822  -0.50397
 Alpha  occ. eigenvalues --   -0.50302  -0.50201  -0.49750  -0.49726  -0.49606
 Alpha  occ. eigenvalues --   -0.49530  -0.49343  -0.49186  -0.48824  -0.48696
 Alpha  occ. eigenvalues --   -0.48419  -0.48258  -0.48020  -0.47797  -0.47675
 Alpha  occ. eigenvalues --   -0.47600  -0.47275  -0.47005  -0.46874  -0.46646
 Alpha  occ. eigenvalues --   -0.46626  -0.46444  -0.46406  -0.46195  -0.46060
 Alpha  occ. eigenvalues --   -0.45893  -0.45852  -0.45718  -0.45393  -0.45278
 Alpha  occ. eigenvalues --   -0.44716  -0.44650  -0.44355  -0.44217  -0.44116
 Alpha  occ. eigenvalues --   -0.43857  -0.43701  -0.43194  -0.43158  -0.42896
 Alpha  occ. eigenvalues --   -0.42487  -0.42457  -0.42320  -0.42228  -0.42120
 Alpha  occ. eigenvalues --   -0.41929  -0.41681  -0.41555  -0.41461  -0.41376
 Alpha  occ. eigenvalues --   -0.41191  -0.41039  -0.40719  -0.40685  -0.40396
 Alpha  occ. eigenvalues --   -0.40240  -0.40124  -0.39872  -0.39828  -0.39197
 Alpha  occ. eigenvalues --   -0.38900  -0.38730  -0.37905  -0.37853  -0.37394
 Alpha  occ. eigenvalues --   -0.37132  -0.36841  -0.36784  -0.36531  -0.36499
 Alpha  occ. eigenvalues --   -0.36340  -0.35549  -0.34945  -0.34692  -0.34615
 Alpha  occ. eigenvalues --   -0.34252  -0.33908  -0.33196  -0.31918  -0.31082
 Alpha  occ. eigenvalues --   -0.30892  -0.30462  -0.30113  -0.29675  -0.23893
 Alpha  occ. eigenvalues --   -0.21633
 Alpha virt. eigenvalues --   -0.09042  -0.01511   0.00099   0.02251   0.02527
 Alpha virt. eigenvalues --    0.03936   0.04583   0.05233   0.05912   0.06630
 Alpha virt. eigenvalues --    0.07600   0.08102   0.08639   0.09031   0.09318

 Mulliken charges:
               1
     1  Mg   0.846582
     2  C    0.008497
     3  C   -0.074381
     4  C   -0.052970
     5  C   -0.063147
     6  N   -0.208794
     7  C   -0.064964
     8  C   -0.024530
     9  C   -0.079356
    10  C    0.020187
    11  C    0.055668
    12  C    0.075711
    13  C    0.107733
    14  C    0.154157
    15  O   -0.242328
    16  O   -0.347637
    17  N   -0.385332
    18  C    0.135768
    19  C   -0.140997
    20  C   -0.065167
    21  C    0.137938
    22  C    0.120817
    23  C    0.015056
    24  O   -0.208256
    25  C    0.027949
    26  N   -0.340196
    27  C    0.047466
    28  C   -0.080249
    29  C   -0.008862
    30  C    0.053523
    31  C    0.075902
    32  C    0.038020
    33  C   -0.006575
    34  N   -0.311777
    35  C    0.086004
    36  C   -0.187157
    37  C   -0.009021
    38  C    0.124543
    39  C    0.128489
    40  C    0.091925
    41  O   -0.138911
    42  C   -0.080400
    43  C    0.200787
    44  O   -0.208441
    45  O   -0.354203
    46  C    0.162669
    47  C    0.283258
    48  C   -0.137697
    49  C   -0.139888
    50  C    0.104276
    51  C    0.097320
    52  C   -0.003313
    53  C    0.072647
    54  C   -0.131743
    55  C    0.047263
    56  C    0.030954
    57  C    0.054353
    58  C    0.057602
    59  C   -0.188677
    60  C    0.074809
    61  C    0.075924
    62  C   -0.006379
    63  C    0.046709
    64  C   -0.125898
    65  C    0.060940
    66  C    0.053480
    67  H   -0.032150
    68  H    0.002937
    69  H   -0.025259
    70  H    0.012444
    71  H    0.019982
    72  H    0.020685
    73  H    0.008943
    74  H    0.028558
    75  H    0.021541
    76  H    0.007474
    77  H    0.030943
    78  H    0.040990
    79  H    0.016831
    80  H    0.012063
    81  H    0.041204
    82  H    0.024303
    83  H    0.020157
    84  H    0.041737
    85  H    0.014322
    86  H    0.011727
    87  H    0.008110
    88  H    0.034269
    89  H    0.034047
    90  H   -0.004671
    91  H    0.005087
    92  H    0.008600
    93  H    0.015405
    94  H    0.018014
    95  H    0.026305
    96  H    0.024226
    97  H    0.039418
    98  H    0.048019
    99  H    0.028378
   100  H    0.046210
   101  H    0.037521
   102  H    0.025446
   103  H    0.018406
   104  H   -0.008759
   105  H    0.011316
   106  H    0.000175
   107  H    0.036302
   108  H    0.000541
   109  H   -0.009007
   110  H   -0.004606
   111  H    0.012177
   112  H   -0.011581
   113  H   -0.003396
   114  H    0.005798
   115  H   -0.001013
   116  H    0.007050
   117  H   -0.003022
   118  H   -0.003806
   119  H   -0.025075
   120  H   -0.006552
   121  H   -0.005044
   122  H   -0.028008
   123  H   -0.016528
   124  H   -0.010118
   125  H   -0.000735
   126  H    0.006811
   127  H    0.011006
   128  H   -0.025294
   129  H   -0.016294
   130  H   -0.012561
   131  H   -0.010036
   132  H   -0.009768
   133  H   -0.003560
   134  H   -0.004988
   135  H    0.005617
   136  H    0.013620
   137  H   -0.001818
   138  H    0.000458
   139  H    0.005650
   140  H    0.015144
 Sum of Mulliken charges =  -0.00000

 Dipole moment (field-independent basis, Debye):
    X=              2.7784    Y=              1.9431    Z=             -3.0602  Tot=              4.5673
 Quadrupole moment (field-independent basis, Debye-Ang):
   XX=           -368.8466   YY=           -443.5402   ZZ=           -404.0151
   XY=             -2.7492   XZ=             -0.0058   YZ=             12.7704

 Normal termination of Gaussian 16 at Wed May  4 12:28:42 2022.
