 Gaussian 16, Revision A.03,
 Gaussian 16:  ES64L-G16RevA.03 25-Dec-2016

 ---------------------------------
 #p PBE1PBE/Def2SVP td=(nstates=5)
 ---------------------------------

 -----------------------------------------------------
 step_1701_chromophore_9 TDDFT with PBE1PBE functional
 -----------------------------------------------------
 Symbolic Z-matrix:
 Charge =  0 Multiplicity = 1

                         Standard orientation:
 ---------------------------------------------------------------------
 Center     Atomic      Atomic             Coordinates (Angstroms)
 Number     Number       Type             X           Y           Z
 ---------------------------------------------------------------------
      1         12           0       -5.156305    0.651358   -0.156075
      2          6           0       -3.567676   -2.517547    0.295004
      3          6           0       -1.912475    1.826090   -0.672040
      4          6           0       -6.430974    3.643621   -0.037154
      5          6           0       -8.176337   -0.796380    0.826880
      6          7           0       -3.012754   -0.262938   -0.086285
      7          6           0       -2.639773   -1.513172    0.114727
      8          6           0       -1.166507   -1.765890   -0.259677
      9          6           0       -0.605848   -0.342637   -0.202429
     10          6           0       -1.913455    0.503262   -0.278661
     11          6           0        0.303406    0.099731    1.076935
     12          6           0       -0.949820   -2.347375   -1.702779
     13          6           0        0.199130   -3.328695   -1.936612
     14          6           0        1.524686   -2.934594   -1.301727
     15          8           0        2.152340   -3.469043   -0.380528
     16          8           0        1.939333   -1.742434   -1.840923
     17          7           0       -4.335692    2.471281   -0.484492
     18          6           0       -3.050505    2.762317   -0.761567
     19          6           0       -2.876585    4.174032   -1.031492
     20          6           0       -4.222777    4.693968   -0.784805
     21          6           0       -5.077546    3.610473   -0.463190
     22          6           0       -1.607782    4.812988   -1.422568
     23          6           0       -4.762849    6.107317   -0.917445
     24          8           0       -5.923074    6.497859   -0.816381
     25          6           0       -3.744965    7.109680   -1.492072
     26          7           0       -7.042285    1.289911    0.403264
     27          6           0       -7.249978    2.646754    0.501049
     28          6           0       -8.654718    2.967215    1.030211
     29          6           0       -9.346170    1.565041    1.103722
     30          6           0       -8.195805    0.600494    0.631069
     31          6           0       -8.684928    3.852374    2.382303
     32          6           0      -10.715980    1.422208    0.359607
     33          6           0      -10.638686    0.956872   -1.066968
     34          7           0       -5.796438   -1.275629    0.408384
     35          6           0       -6.986142   -1.700161    0.791459
     36          6           0       -6.933443   -3.116386    1.050542
     37          6           0       -5.627759   -3.507144    0.817934
     38          6           0       -4.938348   -2.364296    0.414964
     39          6           0       -8.153259   -3.919877    1.488325
     40          6           0       -4.777532   -4.699222    0.842550
     41          8           0       -5.062155   -5.868959    1.006617
     42          6           0       -3.298348   -4.025312    0.354215
     43          6           0       -2.327079   -4.452117    1.306430
     44          8           0       -2.194785   -4.010730    2.423430
     45          8           0       -1.400285   -5.303161    0.721876
     46          6           0       -0.144816   -5.342759    1.538478
     47          6           0        3.206803   -1.186049   -1.324676
     48          6           0        4.266210   -1.673117   -2.262639
     49          6           0        5.198856   -2.593997   -2.053230
     50          6           0        5.329306   -3.396409   -0.755555
     51          6           0        6.229866   -2.933132   -3.134033
     52          6           0        7.641913   -2.327614   -2.825000
     53          6           0        8.142188   -1.325534   -3.874058
     54          6           0        8.010080    0.139311   -3.283108
     55          6           0        7.642334    1.185744   -4.408706
     56          6           0        9.453260    0.598138   -2.783991
     57          6           0        9.422910    1.479074   -1.572329
     58          6           0       10.699662    1.999987   -1.103163
     59          6           0       10.689915    2.386774    0.444294
     60          6           0       11.581766    3.616304    0.643700
     61          6           0       11.075896    1.266295    1.388327
     62          6           0       10.299977    1.314318    2.630386
     63          6           0       10.875932    0.458301    3.813827
     64          6           0       11.306790    1.197056    5.079896
     65          6           0       10.093147    1.455888    5.989975
     66          6           0       12.212185    2.422692    4.861634
     67          1           0       -0.895707    2.125320   -0.935992
     68          1           0       -6.955394    4.601522   -0.042019
     69          1           0       -9.148745   -1.257640    1.010550
     70          1           0       -0.827374   -2.427417    0.536895
     71          1           0        0.049737   -0.114823   -1.042718
     72          1           0       -0.022856    1.043999    1.514138
     73          1           0        1.335937    0.256954    0.763802
     74          1           0        0.271218   -0.684708    1.832475
     75          1           0       -1.057216   -1.515600   -2.399075
     76          1           0       -1.751118   -3.051083   -1.929417
     77          1           0        0.422459   -3.265580   -3.002199
     78          1           0       -0.020958   -4.353492   -1.640650
     79          1           0       -1.838283    5.425880   -2.293725
     80          1           0       -0.871788    4.090175   -1.773686
     81          1           0       -1.176100    5.506667   -0.701337
     82          1           0       -2.785217    7.030651   -0.981057
     83          1           0       -4.118654    8.134201   -1.503840
     84          1           0       -3.719925    6.804098   -2.537829
     85          1           0       -9.192045    3.547336    0.279345
     86          1           0       -9.573983    1.395638    2.156131
     87          1           0       -8.744650    3.033482    3.098793
     88          1           0       -9.563101    4.493669    2.306407
     89          1           0       -7.732763    4.354542    2.551261
     90          1           0      -11.101866    2.438647    0.285976
     91          1           0      -11.537403    0.937877    0.886215
     92          1           0      -10.426793    1.756949   -1.775538
     93          1           0      -11.586897    0.476148   -1.306803
     94          1           0       -9.819480    0.292165   -1.339470
     95          1           0       -8.723598   -4.015019    0.564568
     96          1           0       -8.800721   -3.387784    2.184061
     97          1           0       -7.857869   -4.900514    1.862503
     98          1           0       -3.101865   -4.486585   -0.613654
     99          1           0        0.438591   -6.231740    1.298612
    100          1           0       -0.221882   -5.367682    2.625602
    101          1           0        0.481671   -4.483581    1.299654
    102          1           0        3.407277   -1.417919   -0.278654
    103          1           0        3.216961   -0.096237   -1.312612
    104          1           0        4.193287   -1.189159   -3.237041
    105          1           0        4.846882   -2.861011    0.061795
    106          1           0        6.385063   -3.509482   -0.508708
    107          1           0        4.949159   -4.418349   -0.783165
    108          1           0        5.981805   -2.766305   -4.182510
    109          1           0        6.393752   -4.010630   -3.109846
    110          1           0        8.379894   -3.126506   -2.758176
    111          1           0        7.633561   -1.835381   -1.851925
    112          1           0        7.611905   -1.455553   -4.817208
    113          1           0        9.194215   -1.493553   -4.105379
    114          1           0        7.307779    0.246031   -2.456223
    115          1           0        8.486654    1.709689   -4.857165
    116          1           0        6.993061    1.959732   -3.999481
    117          1           0        7.214785    0.729407   -5.301462
    118          1           0       10.122908    0.937592   -3.573973
    119          1           0        9.966982   -0.304943   -2.454235
    120          1           0        9.160261    0.830003   -0.737307
    121          1           0        8.792397    2.355363   -1.727210
    122          1           0       10.931837    2.956279   -1.571230
    123          1           0       11.572340    1.378822   -1.303410
    124          1           0        9.648891    2.648163    0.636642
    125          1           0       12.075474    3.511373    1.609354
    126          1           0       10.884181    4.452267    0.585648
    127          1           0       12.335354    3.777948   -0.126797
    128          1           0       12.116741    1.396267    1.685034
    129          1           0       11.069713    0.306018    0.872536
    130          1           0        9.276290    1.085792    2.336804
    131          1           0       10.247425    2.373668    2.881792
    132          1           0       11.751835   -0.091244    3.470241
    133          1           0       10.090853   -0.293574    3.896870
    134          1           0       11.954662    0.460978    5.557173
    135          1           0       10.349783    1.239543    7.026517
    136          1           0        9.231257    0.883391    5.648476
    137          1           0        9.901504    2.528854    6.029999
    138          1           0       12.539748    2.491102    3.824333
    139          1           0       13.153132    2.265268    5.388797
    140          1           0       11.735753    3.351287    5.177217
 ---------------------------------------------------------------------

 SCF Done:  E(RPBE1PBE) =  -3005.37555378     A.U. after   15 cycles

 Excitation energies and oscillator strengths:

 Excited State   1:      Singlet-A      1.8795 eV  659.66 nm  f=0.3686  <S**2>=0.000
     245 -> 248       -0.17490
     246 -> 247        0.69229
     246 <- 247       -0.10712
 This state for optimization and/or second-order correction.
 Total Energy, E(TD-HF/TD-DFT) =  -3005.30648329
 Copying the excited state density for this state as the 1-particle RhoCI density.

 Excited State   2:      Singlet-A      2.2071 eV  561.76 nm  f=0.1519  <S**2>=0.000
     245 -> 247        0.66391
     246 -> 248        0.23676

 Excited State   3:      Singlet-A      2.9039 eV  426.96 nm  f=0.0001  <S**2>=0.000
     244 -> 247        0.68380

 Excited State   4:      Singlet-A      3.0534 eV  406.05 nm  f=0.0021  <S**2>=0.000
     240 -> 247       -0.11045
     243 -> 247        0.68816

 Excited State   5:      Singlet-A      3.1330 eV  395.74 nm  f=0.0023  <S**2>=0.000
     239 -> 247       -0.15261
     240 -> 247        0.55356
     240 -> 249       -0.14293
     241 -> 247       -0.25522
     242 -> 247       -0.22526
     243 -> 247        0.11338

 The electronic state is 1-A.
 Alpha  occ. eigenvalues --  -46.92136 -19.26179 -19.25200 -19.21222 -19.20829
 Alpha  occ. eigenvalues --  -19.19461 -19.18837 -14.41573 -14.41387 -14.39289
 Alpha  occ. eigenvalues --  -14.39242 -10.37135 -10.35313 -10.33899 -10.31918
 Alpha  occ. eigenvalues --  -10.29734 -10.29180 -10.28476 -10.28361 -10.28082
 Alpha  occ. eigenvalues --  -10.28026 -10.27936 -10.27551 -10.27419 -10.26658
 Alpha  occ. eigenvalues --  -10.26271 -10.26123 -10.26076 -10.26036 -10.25977
 Alpha  occ. eigenvalues --  -10.25932 -10.25888 -10.25767 -10.25704 -10.25546
 Alpha  occ. eigenvalues --  -10.25256 -10.25186 -10.25037 -10.24465 -10.24453
 Alpha  occ. eigenvalues --  -10.24208 -10.24045 -10.23881 -10.23799 -10.23786
 Alpha  occ. eigenvalues --  -10.23609 -10.23557 -10.23226 -10.23191 -10.23051
 Alpha  occ. eigenvalues --  -10.23004 -10.22815 -10.22809 -10.22697 -10.22669
 Alpha  occ. eigenvalues --  -10.22291 -10.22196 -10.22171 -10.22121 -10.21835
 Alpha  occ. eigenvalues --  -10.21712 -10.21707 -10.21647 -10.21610 -10.21537
 Alpha  occ. eigenvalues --  -10.21298  -3.14332  -1.87173  -1.86720  -1.86546
 Alpha  occ. eigenvalues --   -1.11412  -1.10517  -1.06115  -1.04045  -1.02394
 Alpha  occ. eigenvalues --   -1.01944  -1.00104  -0.99126  -0.98581  -0.97381
 Alpha  occ. eigenvalues --   -0.87306  -0.85016  -0.84802  -0.84070  -0.83005
 Alpha  occ. eigenvalues --   -0.82891  -0.82554  -0.81753  -0.81713  -0.81287
 Alpha  occ. eigenvalues --   -0.80469  -0.80102  -0.79196  -0.78002  -0.77720
 Alpha  occ. eigenvalues --   -0.76999  -0.76132  -0.75260  -0.74912  -0.74346
 Alpha  occ. eigenvalues --   -0.74050  -0.72653  -0.72309  -0.70985  -0.70140
 Alpha  occ. eigenvalues --   -0.69925  -0.69822  -0.69669  -0.68913  -0.68645
 Alpha  occ. eigenvalues --   -0.68159  -0.67528  -0.65799  -0.65346  -0.64188
 Alpha  occ. eigenvalues --   -0.63495  -0.62546  -0.61665  -0.61147  -0.60429
 Alpha  occ. eigenvalues --   -0.59686  -0.59262  -0.59212  -0.58933  -0.58527
 Alpha  occ. eigenvalues --   -0.58260  -0.57481  -0.55858  -0.55626  -0.54887
 Alpha  occ. eigenvalues --   -0.54777  -0.54568  -0.54005  -0.53270  -0.52630
 Alpha  occ. eigenvalues --   -0.52172  -0.51550  -0.50676  -0.50425  -0.50142
 Alpha  occ. eigenvalues --   -0.49971  -0.49623  -0.49397  -0.49099  -0.48911
 Alpha  occ. eigenvalues --   -0.48681  -0.48486  -0.47661  -0.47340  -0.47085
 Alpha  occ. eigenvalues --   -0.46862  -0.46767  -0.46484  -0.46424  -0.46247
 Alpha  occ. eigenvalues --   -0.46157  -0.45703  -0.45493  -0.45420  -0.44997
 Alpha  occ. eigenvalues --   -0.44917  -0.44754  -0.44298  -0.44292  -0.44223
 Alpha  occ. eigenvalues --   -0.44085  -0.43900  -0.43810  -0.43507  -0.43311
 Alpha  occ. eigenvalues --   -0.43048  -0.42905  -0.42725  -0.42409  -0.42261
 Alpha  occ. eigenvalues --   -0.42168  -0.41992  -0.41688  -0.41485  -0.41298
 Alpha  occ. eigenvalues --   -0.41272  -0.41109  -0.41038  -0.40887  -0.40651
 Alpha  occ. eigenvalues --   -0.40595  -0.40536  -0.40425  -0.40232  -0.39966
 Alpha  occ. eigenvalues --   -0.39456  -0.39218  -0.39128  -0.38956  -0.38803
 Alpha  occ. eigenvalues --   -0.38536  -0.38442  -0.37965  -0.37914  -0.37594
 Alpha  occ. eigenvalues --   -0.37373  -0.37163  -0.37053  -0.36897  -0.36828
 Alpha  occ. eigenvalues --   -0.36667  -0.36502  -0.36428  -0.36348  -0.36175
 Alpha  occ. eigenvalues --   -0.36072  -0.35758  -0.35678  -0.35465  -0.35277
 Alpha  occ. eigenvalues --   -0.35168  -0.34870  -0.34832  -0.34656  -0.34018
 Alpha  occ. eigenvalues --   -0.33661  -0.33639  -0.32853  -0.32669  -0.32201
 Alpha  occ. eigenvalues --   -0.31906  -0.31830  -0.31751  -0.31555  -0.31291
 Alpha  occ. eigenvalues --   -0.31124  -0.30416  -0.29848  -0.29840  -0.29361
 Alpha  occ. eigenvalues --   -0.29079  -0.28902  -0.28598  -0.27315  -0.26264
 Alpha  occ. eigenvalues --   -0.26163  -0.26022  -0.25497  -0.25018  -0.20880
 Alpha  occ. eigenvalues --   -0.19180
 Alpha virt. eigenvalues --   -0.11464  -0.05105  -0.04121  -0.02069  -0.00595
 Alpha virt. eigenvalues --   -0.00397   0.00147   0.00873   0.01550   0.03134
 Alpha virt. eigenvalues --    0.03569   0.04115   0.05329   0.05556   0.05693

 Mulliken charges:
               1
     1  Mg   0.994446
     2  C   -0.014228
     3  C   -0.064101
     4  C   -0.045185
     5  C   -0.053611
     6  N   -0.316177
     7  C    0.026864
     8  C   -0.106627
     9  C   -0.150873
    10  C    0.056206
    11  C   -0.000071
    12  C    0.024120
    13  C    0.030834
    14  C    0.221066
    15  O   -0.277337
    16  O   -0.374250
    17  N   -0.510584
    18  C    0.168835
    19  C   -0.167420
    20  C   -0.111904
    21  C    0.170591
    22  C    0.056193
    23  C    0.069213
    24  O   -0.245487
    25  C   -0.051388
    26  N   -0.444395
    27  C    0.082157
    28  C   -0.153291
    29  C   -0.074592
    30  C    0.086237
    31  C    0.015383
    32  C   -0.028535
    33  C   -0.074792
    34  N   -0.438606
    35  C    0.116452
    36  C   -0.215238
    37  C   -0.054899
    38  C    0.171657
    39  C    0.073219
    40  C    0.187489
    41  O   -0.185596
    42  C   -0.189585
    43  C    0.294518
    44  O   -0.244259
    45  O   -0.386511
    46  C    0.102687
    47  C    0.230935
    48  C   -0.142126
    49  C   -0.188495
    50  C    0.043351
    51  C    0.037831
    52  C   -0.064797
    53  C    0.019966
    54  C   -0.220284
    55  C   -0.006793
    56  C   -0.021945
    57  C   -0.018505
    58  C    0.009449
    59  C   -0.273064
    60  C    0.008046
    61  C    0.021104
    62  C   -0.069865
    63  C   -0.011307
    64  C   -0.217640
    65  C   -0.000019
    66  C   -0.012124
    67  H   -0.001162
    68  H    0.034745
    69  H    0.007145
    70  H    0.057646
    71  H    0.056739
    72  H    0.047649
    73  H    0.038222
    74  H    0.055831
    75  H    0.051485
    76  H    0.044046
    77  H    0.064398
    78  H    0.072767
    79  H    0.046715
    80  H    0.041017
    81  H    0.069051
    82  H    0.052312
    83  H    0.049066
    84  H    0.070170
    85  H    0.051911
    86  H    0.048674
    87  H    0.036892
    88  H    0.061245
    89  H    0.061742
    90  H    0.029481
    91  H    0.036205
    92  H    0.035901
    93  H    0.043390
    94  H    0.046617
    95  H    0.054613
    96  H    0.050050
    97  H    0.066619
    98  H    0.083770
    99  H    0.050411
   100  H    0.067964
   101  H    0.062841
   102  H    0.050578
   103  H    0.044075
   104  H    0.021311
   105  H    0.039144
   106  H    0.028259
   107  H    0.063430
   108  H    0.030399
   109  H    0.025357
   110  H    0.027926
   111  H    0.044738
   112  H    0.019609
   113  H    0.028890
   114  H    0.041906
   115  H    0.025476
   116  H    0.034346
   117  H    0.023819
   118  H    0.027400
   119  H    0.009469
   120  H    0.030023
   121  H    0.028251
   122  H    0.007064
   123  H    0.015384
   124  H    0.027621
   125  H    0.030215
   126  H    0.035289
   127  H    0.038315
   128  H    0.009158
   129  H    0.016185
   130  H    0.020824
   131  H    0.024866
   132  H    0.022860
   133  H    0.029213
   134  H    0.034032
   135  H    0.033456
   136  H    0.040503
   137  H    0.025293
   138  H    0.031653
   139  H    0.033941
   140  H    0.041213
 Sum of Mulliken charges =  -0.00000

 Dipole moment (field-independent basis, Debye):
    X=              2.7137    Y=              2.3883    Z=             -3.1315  Tot=              4.7827
 Quadrupole moment (field-independent basis, Debye-Ang):
   XX=           -362.2518   YY=           -440.4064   ZZ=           -401.4219
   XY=             -5.1737   XZ=             -0.2510   YZ=             12.7727

 Normal termination of Gaussian 16 at Wed May  4 12:49:25 2022.
