 Gaussian 16, Revision A.03,
 Gaussian 16:  ES64L-G16RevA.03 25-Dec-2016

 --------------------------------
 #p wB97XD/Def2SVP td=(nstates=5)
 --------------------------------

 ----------------------------------------------------
 step_1701_chromophore_9 TDDFT with wB97XD functional
 ----------------------------------------------------
 Symbolic Z-matrix:
 Charge =  0 Multiplicity = 1

                         Standard orientation:
 ---------------------------------------------------------------------
 Center     Atomic      Atomic             Coordinates (Angstroms)
 Number     Number       Type             X           Y           Z
 ---------------------------------------------------------------------
      1         12           0       -5.156305    0.651358   -0.156075
      2          6           0       -3.567676   -2.517547    0.295004
      3          6           0       -1.912475    1.826090   -0.672040
      4          6           0       -6.430974    3.643621   -0.037154
      5          6           0       -8.176337   -0.796380    0.826880
      6          7           0       -3.012754   -0.262938   -0.086285
      7          6           0       -2.639773   -1.513172    0.114727
      8          6           0       -1.166507   -1.765890   -0.259677
      9          6           0       -0.605848   -0.342637   -0.202429
     10          6           0       -1.913455    0.503262   -0.278661
     11          6           0        0.303406    0.099731    1.076935
     12          6           0       -0.949820   -2.347375   -1.702779
     13          6           0        0.199130   -3.328695   -1.936612
     14          6           0        1.524686   -2.934594   -1.301727
     15          8           0        2.152340   -3.469043   -0.380528
     16          8           0        1.939333   -1.742434   -1.840923
     17          7           0       -4.335692    2.471281   -0.484492
     18          6           0       -3.050505    2.762317   -0.761567
     19          6           0       -2.876585    4.174032   -1.031492
     20          6           0       -4.222777    4.693968   -0.784805
     21          6           0       -5.077546    3.610473   -0.463190
     22          6           0       -1.607782    4.812988   -1.422568
     23          6           0       -4.762849    6.107317   -0.917445
     24          8           0       -5.923074    6.497859   -0.816381
     25          6           0       -3.744965    7.109680   -1.492072
     26          7           0       -7.042285    1.289911    0.403264
     27          6           0       -7.249978    2.646754    0.501049
     28          6           0       -8.654718    2.967215    1.030211
     29          6           0       -9.346170    1.565041    1.103722
     30          6           0       -8.195805    0.600494    0.631069
     31          6           0       -8.684928    3.852374    2.382303
     32          6           0      -10.715980    1.422208    0.359607
     33          6           0      -10.638686    0.956872   -1.066968
     34          7           0       -5.796438   -1.275629    0.408384
     35          6           0       -6.986142   -1.700161    0.791459
     36          6           0       -6.933443   -3.116386    1.050542
     37          6           0       -5.627759   -3.507144    0.817934
     38          6           0       -4.938348   -2.364296    0.414964
     39          6           0       -8.153259   -3.919877    1.488325
     40          6           0       -4.777532   -4.699222    0.842550
     41          8           0       -5.062155   -5.868959    1.006617
     42          6           0       -3.298348   -4.025312    0.354215
     43          6           0       -2.327079   -4.452117    1.306430
     44          8           0       -2.194785   -4.010730    2.423430
     45          8           0       -1.400285   -5.303161    0.721876
     46          6           0       -0.144816   -5.342759    1.538478
     47          6           0        3.206803   -1.186049   -1.324676
     48          6           0        4.266210   -1.673117   -2.262639
     49          6           0        5.198856   -2.593997   -2.053230
     50          6           0        5.329306   -3.396409   -0.755555
     51          6           0        6.229866   -2.933132   -3.134033
     52          6           0        7.641913   -2.327614   -2.825000
     53          6           0        8.142188   -1.325534   -3.874058
     54          6           0        8.010080    0.139311   -3.283108
     55          6           0        7.642334    1.185744   -4.408706
     56          6           0        9.453260    0.598138   -2.783991
     57          6           0        9.422910    1.479074   -1.572329
     58          6           0       10.699662    1.999987   -1.103163
     59          6           0       10.689915    2.386774    0.444294
     60          6           0       11.581766    3.616304    0.643700
     61          6           0       11.075896    1.266295    1.388327
     62          6           0       10.299977    1.314318    2.630386
     63          6           0       10.875932    0.458301    3.813827
     64          6           0       11.306790    1.197056    5.079896
     65          6           0       10.093147    1.455888    5.989975
     66          6           0       12.212185    2.422692    4.861634
     67          1           0       -0.895707    2.125320   -0.935992
     68          1           0       -6.955394    4.601522   -0.042019
     69          1           0       -9.148745   -1.257640    1.010550
     70          1           0       -0.827374   -2.427417    0.536895
     71          1           0        0.049737   -0.114823   -1.042718
     72          1           0       -0.022856    1.043999    1.514138
     73          1           0        1.335937    0.256954    0.763802
     74          1           0        0.271218   -0.684708    1.832475
     75          1           0       -1.057216   -1.515600   -2.399075
     76          1           0       -1.751118   -3.051083   -1.929417
     77          1           0        0.422459   -3.265580   -3.002199
     78          1           0       -0.020958   -4.353492   -1.640650
     79          1           0       -1.838283    5.425880   -2.293725
     80          1           0       -0.871788    4.090175   -1.773686
     81          1           0       -1.176100    5.506667   -0.701337
     82          1           0       -2.785217    7.030651   -0.981057
     83          1           0       -4.118654    8.134201   -1.503840
     84          1           0       -3.719925    6.804098   -2.537829
     85          1           0       -9.192045    3.547336    0.279345
     86          1           0       -9.573983    1.395638    2.156131
     87          1           0       -8.744650    3.033482    3.098793
     88          1           0       -9.563101    4.493669    2.306407
     89          1           0       -7.732763    4.354542    2.551261
     90          1           0      -11.101866    2.438647    0.285976
     91          1           0      -11.537403    0.937877    0.886215
     92          1           0      -10.426793    1.756949   -1.775538
     93          1           0      -11.586897    0.476148   -1.306803
     94          1           0       -9.819480    0.292165   -1.339470
     95          1           0       -8.723598   -4.015019    0.564568
     96          1           0       -8.800721   -3.387784    2.184061
     97          1           0       -7.857869   -4.900514    1.862503
     98          1           0       -3.101865   -4.486585   -0.613654
     99          1           0        0.438591   -6.231740    1.298612
    100          1           0       -0.221882   -5.367682    2.625602
    101          1           0        0.481671   -4.483581    1.299654
    102          1           0        3.407277   -1.417919   -0.278654
    103          1           0        3.216961   -0.096237   -1.312612
    104          1           0        4.193287   -1.189159   -3.237041
    105          1           0        4.846882   -2.861011    0.061795
    106          1           0        6.385063   -3.509482   -0.508708
    107          1           0        4.949159   -4.418349   -0.783165
    108          1           0        5.981805   -2.766305   -4.182510
    109          1           0        6.393752   -4.010630   -3.109846
    110          1           0        8.379894   -3.126506   -2.758176
    111          1           0        7.633561   -1.835381   -1.851925
    112          1           0        7.611905   -1.455553   -4.817208
    113          1           0        9.194215   -1.493553   -4.105379
    114          1           0        7.307779    0.246031   -2.456223
    115          1           0        8.486654    1.709689   -4.857165
    116          1           0        6.993061    1.959732   -3.999481
    117          1           0        7.214785    0.729407   -5.301462
    118          1           0       10.122908    0.937592   -3.573973
    119          1           0        9.966982   -0.304943   -2.454235
    120          1           0        9.160261    0.830003   -0.737307
    121          1           0        8.792397    2.355363   -1.727210
    122          1           0       10.931837    2.956279   -1.571230
    123          1           0       11.572340    1.378822   -1.303410
    124          1           0        9.648891    2.648163    0.636642
    125          1           0       12.075474    3.511373    1.609354
    126          1           0       10.884181    4.452267    0.585648
    127          1           0       12.335354    3.777948   -0.126797
    128          1           0       12.116741    1.396267    1.685034
    129          1           0       11.069713    0.306018    0.872536
    130          1           0        9.276290    1.085792    2.336804
    131          1           0       10.247425    2.373668    2.881792
    132          1           0       11.751835   -0.091244    3.470241
    133          1           0       10.090853   -0.293574    3.896870
    134          1           0       11.954662    0.460978    5.557173
    135          1           0       10.349783    1.239543    7.026517
    136          1           0        9.231257    0.883391    5.648476
    137          1           0        9.901504    2.528854    6.029999
    138          1           0       12.539748    2.491102    3.824333
    139          1           0       13.153132    2.265268    5.388797
    140          1           0       11.735753    3.351287    5.177217
 ---------------------------------------------------------------------

 SCF Done:  E(RwB97XD) =  -3007.88986257     A.U. after   18 cycles

 Excitation energies and oscillator strengths:

 Excited State   1:      Singlet-A      1.6768 eV  739.42 nm  f=0.3800  <S**2>=0.000
     245 -> 248       -0.18529
     246 -> 247        0.68341
     245 <- 248       -0.11577
 This state for optimization and/or second-order correction.
 Total Energy, E(TD-HF/TD-DFT) =  -3007.82824190
 Copying the excited state density for this state as the 1-particle RhoCI density.

 Excited State   2:      Singlet-A      2.1420 eV  578.83 nm  f=0.1662  <S**2>=0.000
     245 -> 247        0.65544
     246 -> 248        0.25388

 Excited State   3:      Singlet-A      3.4237 eV  362.14 nm  f=0.0027  <S**2>=0.000
     242 -> 247        0.31940
     243 -> 247       -0.29659
     244 -> 247        0.52708

 Excited State   4:      Singlet-A      3.5523 eV  349.02 nm  f=0.0709  <S**2>=0.000
     239 -> 247        0.10831
     242 -> 247        0.48687
     244 -> 247       -0.31652
     246 -> 248       -0.33638

 Excited State   5:      Singlet-A      3.5958 eV  344.81 nm  f=0.0329  <S**2>=0.000
     239 -> 247        0.24569
     239 -> 249       -0.21023
     240 -> 247        0.48250
     240 -> 249       -0.26743
     241 -> 247       -0.10259
     242 -> 247       -0.14784
     246 -> 248       -0.10890

 The electronic state is 1-A.
 Alpha  occ. eigenvalues --  -46.95066 -19.30768 -19.29936 -19.26253 -19.25547
 Alpha  occ. eigenvalues --  -19.24377 -19.23413 -14.46858 -14.46315 -14.44333
 Alpha  occ. eigenvalues --  -14.44089 -10.43973 -10.42351 -10.40977 -10.38539
 Alpha  occ. eigenvalues --  -10.36256 -10.35572 -10.34873 -10.34590 -10.34530
 Alpha  occ. eigenvalues --  -10.34271 -10.34188 -10.34056 -10.33537 -10.33236
 Alpha  occ. eigenvalues --  -10.32698 -10.32508 -10.32472 -10.32444 -10.32423
 Alpha  occ. eigenvalues --  -10.32337 -10.32331 -10.32239 -10.32189 -10.31649
 Alpha  occ. eigenvalues --  -10.31614 -10.31508 -10.31482 -10.30789 -10.30525
 Alpha  occ. eigenvalues --  -10.30483 -10.30345 -10.30230 -10.30160 -10.30139
 Alpha  occ. eigenvalues --  -10.29958 -10.29942 -10.29817 -10.29472 -10.29413
 Alpha  occ. eigenvalues --  -10.29401 -10.29286 -10.29165 -10.29091 -10.28969
 Alpha  occ. eigenvalues --  -10.28691 -10.28574 -10.28550 -10.28534 -10.28261
 Alpha  occ. eigenvalues --  -10.28124 -10.28104 -10.28077 -10.28039 -10.27916
 Alpha  occ. eigenvalues --  -10.27685  -3.21118  -1.94708  -1.94258  -1.94079
 Alpha  occ. eigenvalues --   -1.18836  -1.18105  -1.13806  -1.11314  -1.09789
 Alpha  occ. eigenvalues --   -1.09494  -1.07615  -1.06637  -1.05748  -1.04683
 Alpha  occ. eigenvalues --   -0.95128  -0.92696  -0.92503  -0.91767  -0.90677
 Alpha  occ. eigenvalues --   -0.90444  -0.90075  -0.89417  -0.89382  -0.88775
 Alpha  occ. eigenvalues --   -0.88186  -0.87767  -0.86852  -0.85715  -0.85325
 Alpha  occ. eigenvalues --   -0.84667  -0.83749  -0.82927  -0.82525  -0.82008
 Alpha  occ. eigenvalues --   -0.81728  -0.80239  -0.79968  -0.78597  -0.77864
 Alpha  occ. eigenvalues --   -0.77622  -0.77515  -0.77232  -0.76582  -0.76321
 Alpha  occ. eigenvalues --   -0.75796  -0.75140  -0.73398  -0.72941  -0.71777
 Alpha  occ. eigenvalues --   -0.71103  -0.70203  -0.69150  -0.68776  -0.67938
 Alpha  occ. eigenvalues --   -0.67113  -0.66870  -0.66648  -0.66413  -0.66241
 Alpha  occ. eigenvalues --   -0.65759  -0.65147  -0.63417  -0.63211  -0.62330
 Alpha  occ. eigenvalues --   -0.62173  -0.62112  -0.61435  -0.60737  -0.60352
 Alpha  occ. eigenvalues --   -0.59529  -0.59074  -0.58094  -0.57857  -0.57529
 Alpha  occ. eigenvalues --   -0.57439  -0.57156  -0.56885  -0.56618  -0.56341
 Alpha  occ. eigenvalues --   -0.56120  -0.55964  -0.55059  -0.54793  -0.54463
 Alpha  occ. eigenvalues --   -0.54267  -0.54167  -0.53861  -0.53794  -0.53630
 Alpha  occ. eigenvalues --   -0.53488  -0.53325  -0.52821  -0.52752  -0.52312
 Alpha  occ. eigenvalues --   -0.52257  -0.52090  -0.51647  -0.51620  -0.51538
 Alpha  occ. eigenvalues --   -0.51458  -0.51224  -0.51098  -0.50723  -0.50615
 Alpha  occ. eigenvalues --   -0.50315  -0.50161  -0.49925  -0.49687  -0.49546
 Alpha  occ. eigenvalues --   -0.49492  -0.49202  -0.48937  -0.48776  -0.48560
 Alpha  occ. eigenvalues --   -0.48514  -0.48350  -0.48288  -0.48126  -0.48058
 Alpha  occ. eigenvalues --   -0.47760  -0.47744  -0.47636  -0.47325  -0.47199
 Alpha  occ. eigenvalues --   -0.46678  -0.46469  -0.46211  -0.46132  -0.45979
 Alpha  occ. eigenvalues --   -0.45800  -0.45589  -0.45118  -0.45034  -0.44751
 Alpha  occ. eigenvalues --   -0.44403  -0.44335  -0.44253  -0.44110  -0.44026
 Alpha  occ. eigenvalues --   -0.43790  -0.43547  -0.43454  -0.43407  -0.43254
 Alpha  occ. eigenvalues --   -0.43136  -0.42887  -0.42639  -0.42550  -0.42323
 Alpha  occ. eigenvalues --   -0.42140  -0.41966  -0.41731  -0.41699  -0.41065
 Alpha  occ. eigenvalues --   -0.40746  -0.40630  -0.39788  -0.39739  -0.39226
 Alpha  occ. eigenvalues --   -0.38966  -0.38801  -0.38729  -0.38592  -0.38362
 Alpha  occ. eigenvalues --   -0.38328  -0.37399  -0.36774  -0.36664  -0.36525
 Alpha  occ. eigenvalues --   -0.36193  -0.35736  -0.35443  -0.34079  -0.33212
 Alpha  occ. eigenvalues --   -0.32907  -0.32695  -0.32046  -0.31786  -0.25808
 Alpha  occ. eigenvalues --   -0.23460
 Alpha virt. eigenvalues --   -0.07392   0.00420   0.02132   0.04480   0.05521
 Alpha virt. eigenvalues --    0.06205   0.06683   0.07533   0.08267   0.09563
 Alpha virt. eigenvalues --    0.10071   0.10837   0.12029   0.12352   0.12518

 Mulliken charges:
               1
     1  Mg   0.984187
     2  C   -0.010049
     3  C   -0.078525
     4  C   -0.062515
     5  C   -0.074223
     6  N   -0.275772
     7  C   -0.014724
     8  C   -0.069479
     9  C   -0.126300
    10  C    0.039472
    11  C    0.012865
    12  C    0.036215
    13  C    0.047714
    14  C    0.203951
    15  O   -0.271357
    16  O   -0.373220
    17  N   -0.474911
    18  C    0.153999
    19  C   -0.158939
    20  C   -0.108490
    21  C    0.161003
    22  C    0.070123
    23  C    0.062969
    24  O   -0.240888
    25  C   -0.034659
    26  N   -0.413269
    27  C    0.069448
    28  C   -0.129701
    29  C   -0.055129
    30  C    0.076874
    31  C    0.029333
    32  C   -0.012852
    33  C   -0.058523
    34  N   -0.401001
    35  C    0.107108
    36  C   -0.204637
    37  C   -0.050841
    38  C    0.157871
    39  C    0.083161
    40  C    0.168646
    41  O   -0.175312
    42  C   -0.150166
    43  C    0.269606
    44  O   -0.237724
    45  O   -0.384477
    46  C    0.122838
    47  C    0.252074
    48  C   -0.155710
    49  C   -0.171114
    50  C    0.053524
    51  C    0.052213
    52  C   -0.048324
    53  C    0.035355
    54  C   -0.190537
    55  C    0.003756
    56  C   -0.006465
    57  C    0.007118
    58  C    0.019138
    59  C   -0.239869
    60  C    0.023790
    61  C    0.035510
    62  C   -0.049309
    63  C    0.004044
    64  C   -0.190588
    65  C    0.012077
    66  C    0.004781
    67  H   -0.007503
    68  H    0.029367
    69  H    0.001603
    70  H    0.034292
    71  H    0.043247
    72  H    0.042140
    73  H    0.030376
    74  H    0.050257
    75  H    0.046099
    76  H    0.031764
    77  H    0.059376
    78  H    0.067150
    79  H    0.038521
    80  H    0.035607
    81  H    0.064080
    82  H    0.044694
    83  H    0.046932
    84  H    0.063057
    85  H    0.040121
    86  H    0.038248
    87  H    0.028186
    88  H    0.056167
    89  H    0.056281
    90  H    0.020385
    91  H    0.030724
    92  H    0.030434
    93  H    0.038538
    94  H    0.036783
    95  H    0.049690
    96  H    0.046173
    97  H    0.064386
    98  H    0.077551
    99  H    0.048005
   100  H    0.064479
   101  H    0.053691
   102  H    0.043420
   103  H    0.040757
   104  H    0.018626
   105  H    0.032885
   106  H    0.022315
   107  H    0.059833
   108  H    0.023955
   109  H    0.017611
   110  H    0.021868
   111  H    0.031024
   112  H    0.010186
   113  H    0.020779
   114  H    0.028830
   115  H    0.018751
   116  H    0.029138
   117  H    0.017775
   118  H    0.018826
   119  H   -0.002835
   120  H    0.014914
   121  H    0.019732
   122  H   -0.002681
   123  H    0.007138
   124  H    0.012554
   125  H    0.020125
   126  H    0.029792
   127  H    0.032692
   128  H   -0.004332
   129  H    0.008331
   130  H    0.011869
   131  H    0.010189
   132  H    0.014545
   133  H    0.021637
   134  H    0.024008
   135  H    0.028251
   136  H    0.034725
   137  H    0.017975
   138  H    0.017978
   139  H    0.029371
   140  H    0.035378
 Sum of Mulliken charges =  -0.00000

 Dipole moment (field-independent basis, Debye):
    X=              2.7855    Y=              1.8772    Z=             -3.1046  Tot=              4.5740
 Quadrupole moment (field-independent basis, Debye-Ang):
   XX=           -363.4064   YY=           -439.5297   ZZ=           -400.9430
   XY=             -2.2467   XZ=             -0.3733   YZ=             12.5246

 Normal termination of Gaussian 16 at Wed May  4 13:22:55 2022.
