 Gaussian 16, Revision A.03,
 Gaussian 16:  ES64L-G16RevA.03 25-Dec-2016

 --------------------
 #p ZINDO=(nstates=5)
 --------------------

 -----------------------------
 step_1701_chromophore_9 ZINDO
 -----------------------------
 Symbolic Z-matrix:
 Charge =  0 Multiplicity = 1

                         Standard orientation:
 ---------------------------------------------------------------------
 Center     Atomic      Atomic             Coordinates (Angstroms)
 Number     Number       Type             X           Y           Z
 ---------------------------------------------------------------------
      1         12           0       -5.156305    0.651358   -0.156075
      2          6           0       -3.567676   -2.517547    0.295004
      3          6           0       -1.912475    1.826090   -0.672040
      4          6           0       -6.430974    3.643621   -0.037154
      5          6           0       -8.176337   -0.796380    0.826880
      6          7           0       -3.012754   -0.262938   -0.086285
      7          6           0       -2.639773   -1.513172    0.114727
      8          6           0       -1.166507   -1.765890   -0.259677
      9          6           0       -0.605848   -0.342637   -0.202429
     10          6           0       -1.913455    0.503262   -0.278661
     11          6           0        0.303406    0.099731    1.076935
     12          6           0       -0.949820   -2.347375   -1.702779
     13          6           0        0.199130   -3.328695   -1.936612
     14          6           0        1.524686   -2.934594   -1.301727
     15          8           0        2.152340   -3.469043   -0.380528
     16          8           0        1.939333   -1.742434   -1.840923
     17          7           0       -4.335692    2.471281   -0.484492
     18          6           0       -3.050505    2.762317   -0.761567
     19          6           0       -2.876585    4.174032   -1.031492
     20          6           0       -4.222777    4.693968   -0.784805
     21          6           0       -5.077546    3.610473   -0.463190
     22          6           0       -1.607782    4.812988   -1.422568
     23          6           0       -4.762849    6.107317   -0.917445
     24          8           0       -5.923074    6.497859   -0.816381
     25          6           0       -3.744965    7.109680   -1.492072
     26          7           0       -7.042285    1.289911    0.403264
     27          6           0       -7.249978    2.646754    0.501049
     28          6           0       -8.654718    2.967215    1.030211
     29          6           0       -9.346170    1.565041    1.103722
     30          6           0       -8.195805    0.600494    0.631069
     31          6           0       -8.684928    3.852374    2.382303
     32          6           0      -10.715980    1.422208    0.359607
     33          6           0      -10.638686    0.956872   -1.066968
     34          7           0       -5.796438   -1.275629    0.408384
     35          6           0       -6.986142   -1.700161    0.791459
     36          6           0       -6.933443   -3.116386    1.050542
     37          6           0       -5.627759   -3.507144    0.817934
     38          6           0       -4.938348   -2.364296    0.414964
     39          6           0       -8.153259   -3.919877    1.488325
     40          6           0       -4.777532   -4.699222    0.842550
     41          8           0       -5.062155   -5.868959    1.006617
     42          6           0       -3.298348   -4.025312    0.354215
     43          6           0       -2.327079   -4.452117    1.306430
     44          8           0       -2.194785   -4.010730    2.423430
     45          8           0       -1.400285   -5.303161    0.721876
     46          6           0       -0.144816   -5.342759    1.538478
     47          6           0        3.206803   -1.186049   -1.324676
     48          6           0        4.266210   -1.673117   -2.262639
     49          6           0        5.198856   -2.593997   -2.053230
     50          6           0        5.329306   -3.396409   -0.755555
     51          6           0        6.229866   -2.933132   -3.134033
     52          6           0        7.641913   -2.327614   -2.825000
     53          6           0        8.142188   -1.325534   -3.874058
     54          6           0        8.010080    0.139311   -3.283108
     55          6           0        7.642334    1.185744   -4.408706
     56          6           0        9.453260    0.598138   -2.783991
     57          6           0        9.422910    1.479074   -1.572329
     58          6           0       10.699662    1.999987   -1.103163
     59          6           0       10.689915    2.386774    0.444294
     60          6           0       11.581766    3.616304    0.643700
     61          6           0       11.075896    1.266295    1.388327
     62          6           0       10.299977    1.314318    2.630386
     63          6           0       10.875932    0.458301    3.813827
     64          6           0       11.306790    1.197056    5.079896
     65          6           0       10.093147    1.455888    5.989975
     66          6           0       12.212185    2.422692    4.861634
     67          1           0       -0.895707    2.125320   -0.935992
     68          1           0       -6.955394    4.601522   -0.042019
     69          1           0       -9.148745   -1.257640    1.010550
     70          1           0       -0.827374   -2.427417    0.536895
     71          1           0        0.049737   -0.114823   -1.042718
     72          1           0       -0.022856    1.043999    1.514138
     73          1           0        1.335937    0.256954    0.763802
     74          1           0        0.271218   -0.684708    1.832475
     75          1           0       -1.057216   -1.515600   -2.399075
     76          1           0       -1.751118   -3.051083   -1.929417
     77          1           0        0.422459   -3.265580   -3.002199
     78          1           0       -0.020958   -4.353492   -1.640650
     79          1           0       -1.838283    5.425880   -2.293725
     80          1           0       -0.871788    4.090175   -1.773686
     81          1           0       -1.176100    5.506667   -0.701337
     82          1           0       -2.785217    7.030651   -0.981057
     83          1           0       -4.118654    8.134201   -1.503840
     84          1           0       -3.719925    6.804098   -2.537829
     85          1           0       -9.192045    3.547336    0.279345
     86          1           0       -9.573983    1.395638    2.156131
     87          1           0       -8.744650    3.033482    3.098793
     88          1           0       -9.563101    4.493669    2.306407
     89          1           0       -7.732763    4.354542    2.551261
     90          1           0      -11.101866    2.438647    0.285976
     91          1           0      -11.537403    0.937877    0.886215
     92          1           0      -10.426793    1.756949   -1.775538
     93          1           0      -11.586897    0.476148   -1.306803
     94          1           0       -9.819480    0.292165   -1.339470
     95          1           0       -8.723598   -4.015019    0.564568
     96          1           0       -8.800721   -3.387784    2.184061
     97          1           0       -7.857869   -4.900514    1.862503
     98          1           0       -3.101865   -4.486585   -0.613654
     99          1           0        0.438591   -6.231740    1.298612
    100          1           0       -0.221882   -5.367682    2.625602
    101          1           0        0.481671   -4.483581    1.299654
    102          1           0        3.407277   -1.417919   -0.278654
    103          1           0        3.216961   -0.096237   -1.312612
    104          1           0        4.193287   -1.189159   -3.237041
    105          1           0        4.846882   -2.861011    0.061795
    106          1           0        6.385063   -3.509482   -0.508708
    107          1           0        4.949159   -4.418349   -0.783165
    108          1           0        5.981805   -2.766305   -4.182510
    109          1           0        6.393752   -4.010630   -3.109846
    110          1           0        8.379894   -3.126506   -2.758176
    111          1           0        7.633561   -1.835381   -1.851925
    112          1           0        7.611905   -1.455553   -4.817208
    113          1           0        9.194215   -1.493553   -4.105379
    114          1           0        7.307779    0.246031   -2.456223
    115          1           0        8.486654    1.709689   -4.857165
    116          1           0        6.993061    1.959732   -3.999481
    117          1           0        7.214785    0.729407   -5.301462
    118          1           0       10.122908    0.937592   -3.573973
    119          1           0        9.966982   -0.304943   -2.454235
    120          1           0        9.160261    0.830003   -0.737307
    121          1           0        8.792397    2.355363   -1.727210
    122          1           0       10.931837    2.956279   -1.571230
    123          1           0       11.572340    1.378822   -1.303410
    124          1           0        9.648891    2.648163    0.636642
    125          1           0       12.075474    3.511373    1.609354
    126          1           0       10.884181    4.452267    0.585648
    127          1           0       12.335354    3.777948   -0.126797
    128          1           0       12.116741    1.396267    1.685034
    129          1           0       11.069713    0.306018    0.872536
    130          1           0        9.276290    1.085792    2.336804
    131          1           0       10.247425    2.373668    2.881792
    132          1           0       11.751835   -0.091244    3.470241
    133          1           0       10.090853   -0.293574    3.896870
    134          1           0       11.954662    0.460978    5.557173
    135          1           0       10.349783    1.239543    7.026517
    136          1           0        9.231257    0.883391    5.648476
    137          1           0        9.901504    2.528854    6.029999
    138          1           0       12.539748    2.491102    3.824333
    139          1           0       13.153132    2.265268    5.388797
    140          1           0       11.735753    3.351287    5.177217
 ---------------------------------------------------------------------

 SCF Done:  E(RZINDO/S) =  -474.389811020     A.U. after   19 cycles

 Excitation energies and oscillator strengths:

 Excited State   1:      Singlet-A      1.3001 eV  953.62 nm  f=0.5805  <S**2>=0.000
     175 ->178         0.18539
     176 ->177         0.66327
 This state for optimization and/or second-order correction.
 Total Energy, E(CIS/TDA) =  -474.342031455
 Copying the excited state density for this state as the 1-particle RhoCI density.

 Excited State   2:      Singlet-A      1.8860 eV  657.41 nm  f=0.1221  <S**2>=0.000
     175 ->177         0.58688
     176 ->178        -0.35339

 Excited State   3:      Singlet-A      3.0098 eV  411.94 nm  f=0.0071  <S**2>=0.000
     170 ->177         0.25203
     170 ->179         0.27451
     170 ->181         0.39835
     170 ->182        -0.16748
     170 ->185         0.20197
     170 ->187         0.21263

 Excited State   4:      Singlet-A      3.0206 eV  410.47 nm  f=0.0499  <S**2>=0.000
     168 ->177         0.33259
     168 ->178        -0.23369
     168 ->179        -0.38678
     168 ->181         0.16489
     168 ->182        -0.13641
     168 ->185        -0.18707
     176 ->178         0.11205

 Excited State   5:      Singlet-A      3.0728 eV  403.49 nm  f=0.9277  <S**2>=0.000
     171 ->177         0.10213
     175 ->177         0.30687
     176 ->178         0.56458
     176 ->179         0.15127

 The electronic state is 1-A.
 Alpha  occ. eigenvalues --   -1.86184  -1.81952  -1.80423  -1.74491  -1.73464
 Alpha  occ. eigenvalues --   -1.71549  -1.67887  -1.61298  -1.57872  -1.57174
 Alpha  occ. eigenvalues --   -1.55711  -1.50776  -1.49616  -1.47475  -1.46443
 Alpha  occ. eigenvalues --   -1.44892  -1.43811  -1.40417  -1.39952  -1.38362
 Alpha  occ. eigenvalues --   -1.36025  -1.33737  -1.33233  -1.31701  -1.28668
 Alpha  occ. eigenvalues --   -1.27843  -1.24202  -1.21566  -1.20274  -1.18350
 Alpha  occ. eigenvalues --   -1.17908  -1.16327  -1.15169  -1.14359  -1.12656
 Alpha  occ. eigenvalues --   -1.12050  -1.11095  -1.10727  -1.05275  -1.04383
 Alpha  occ. eigenvalues --   -1.04064  -1.02159  -0.99115  -0.98451  -0.97979
 Alpha  occ. eigenvalues --   -0.97175  -0.94656  -0.94464  -0.92635  -0.92123
 Alpha  occ. eigenvalues --   -0.90860  -0.89761  -0.89320  -0.88905  -0.85877
 Alpha  occ. eigenvalues --   -0.84597  -0.83624  -0.82646  -0.81764  -0.80656
 Alpha  occ. eigenvalues --   -0.80524  -0.79018  -0.78210  -0.77919  -0.77180
 Alpha  occ. eigenvalues --   -0.76338  -0.75821  -0.75117  -0.74740  -0.74124
 Alpha  occ. eigenvalues --   -0.73505  -0.72679  -0.71800  -0.71509  -0.71210
 Alpha  occ. eigenvalues --   -0.70152  -0.69889  -0.68360  -0.68093  -0.67339
 Alpha  occ. eigenvalues --   -0.67064  -0.66247  -0.65880  -0.65830  -0.65774
 Alpha  occ. eigenvalues --   -0.65515  -0.65344  -0.64336  -0.63797  -0.63226
 Alpha  occ. eigenvalues --   -0.62718  -0.62625  -0.62322  -0.61777  -0.61388
 Alpha  occ. eigenvalues --   -0.60978  -0.60752  -0.60636  -0.60508  -0.60327
 Alpha  occ. eigenvalues --   -0.59647  -0.59531  -0.59326  -0.58717  -0.57911
 Alpha  occ. eigenvalues --   -0.57456  -0.57070  -0.56512  -0.56446  -0.56342
 Alpha  occ. eigenvalues --   -0.56176  -0.55838  -0.55137  -0.55057  -0.54545
 Alpha  occ. eigenvalues --   -0.53896  -0.53682  -0.53473  -0.53196  -0.52900
 Alpha  occ. eigenvalues --   -0.52532  -0.52501  -0.52164  -0.51815  -0.51466
 Alpha  occ. eigenvalues --   -0.51128  -0.50950  -0.50891  -0.50722  -0.50373
 Alpha  occ. eigenvalues --   -0.50182  -0.49621  -0.49487  -0.49237  -0.49128
 Alpha  occ. eigenvalues --   -0.48964  -0.48804  -0.48544  -0.48122  -0.47913
 Alpha  occ. eigenvalues --   -0.47760  -0.47415  -0.47114  -0.47022  -0.46861
 Alpha  occ. eigenvalues --   -0.46623  -0.46044  -0.45924  -0.45522  -0.45218
 Alpha  occ. eigenvalues --   -0.45208  -0.45182  -0.44402  -0.44180  -0.44139
 Alpha  occ. eigenvalues --   -0.43629  -0.43080  -0.42953  -0.42432  -0.42178
 Alpha  occ. eigenvalues --   -0.42025  -0.41842  -0.41387  -0.39290  -0.38951
 Alpha  occ. eigenvalues --   -0.38455  -0.37289  -0.36135  -0.35155  -0.34087
 Alpha  occ. eigenvalues --   -0.33553  -0.32913  -0.32828  -0.31930  -0.26448
 Alpha  occ. eigenvalues --   -0.22490
 Alpha virt. eigenvalues --   -0.08922  -0.02153  -0.00642   0.01129   0.01480
 Alpha virt. eigenvalues --    0.02035   0.02086   0.03004   0.04281   0.05203
 Alpha virt. eigenvalues --    0.05866   0.06657   0.07362   0.07861   0.08040

 Mulliken charges:
               1
     1  Mg   0.426380
     2  C   -0.026472
     3  C   -0.071208
     4  C   -0.061889
     5  C   -0.095270
     6  N   -0.263575
     7  C    0.144742
     8  C    0.008345
     9  C   -0.005136
    10  C    0.095421
    11  C   -0.056993
    12  C   -0.014413
    13  C    0.017276
    14  C    0.466590
    15  O   -0.526105
    16  O   -0.272018
    17  N   -0.305992
    18  C    0.082252
    19  C   -0.010909
    20  C   -0.066068
    21  C    0.131895
    22  C   -0.034160
    23  C    0.317916
    24  O   -0.532412
    25  C   -0.039462
    26  N   -0.278569
    27  C    0.118902
    28  C   -0.006882
    29  C    0.008338
    30  C    0.141303
    31  C   -0.058535
    32  C   -0.027188
    33  C   -0.053910
    34  N   -0.314078
    35  C    0.134761
    36  C    0.042287
    37  C   -0.033345
    38  C    0.107726
    39  C   -0.040198
    40  C    0.325783
    41  O   -0.483821
    42  C    0.050883
    43  C    0.495490
    44  O   -0.522099
    45  O   -0.277638
    46  C    0.069709
    47  C    0.105834
    48  C   -0.079113
    49  C    0.005298
    50  C   -0.041203
    51  C   -0.024654
    52  C   -0.031085
    53  C   -0.032559
    54  C   -0.018751
    55  C   -0.065688
    56  C   -0.037786
    57  C   -0.024857
    58  C   -0.037731
    59  C   -0.022040
    60  C   -0.058996
    61  C   -0.022234
    62  C   -0.033807
    63  C   -0.032948
    64  C   -0.003013
    65  C   -0.057015
    66  C   -0.054346
    67  H    0.029083
    68  H    0.045826
    69  H    0.026240
    70  H    0.043743
    71  H    0.027512
    72  H    0.025772
    73  H    0.019539
    74  H    0.028255
    75  H    0.039357
    76  H    0.011966
    77  H    0.039434
    78  H    0.048373
    79  H    0.021886
    80  H    0.023431
    81  H    0.035972
    82  H    0.033399
    83  H    0.032848
    84  H    0.039692
    85  H    0.028810
    86  H    0.028233
    87  H    0.023195
    88  H    0.034396
    89  H    0.035769
    90  H    0.011418
    91  H    0.026834
    92  H    0.018486
    93  H    0.015691
    94  H    0.020829
    95  H    0.031713
    96  H    0.031883
    97  H    0.038385
    98  H    0.052518
    99  H    0.028080
   100  H    0.053151
   101  H    0.042689
   102  H    0.051126
   103  H    0.029915
   104  H    0.022801
   105  H    0.027721
   106  H    0.016307
   107  H    0.038963
   108  H    0.027157
   109  H    0.012214
   110  H    0.014257
   111  H    0.022543
   112  H    0.020858
   113  H    0.019405
   114  H    0.035399
   115  H    0.016624
   116  H    0.015732
   117  H    0.014902
   118  H    0.025150
   119  H    0.002174
   120  H    0.021032
   121  H    0.022893
   122  H    0.006009
   123  H    0.017492
   124  H    0.016663
   125  H    0.020044
   126  H    0.014949
   127  H    0.021949
   128  H    0.009913
   129  H    0.013383
   130  H    0.014184
   131  H    0.014694
   132  H    0.010697
   133  H    0.017355
   134  H    0.011139
   135  H    0.015599
   136  H    0.026498
   137  H    0.017472
   138  H    0.018738
   139  H    0.015333
   140  H    0.025347
 Sum of Mulliken charges =  -0.00000

 Dipole moment (field-independent basis, Debye):
    X=              2.9969    Y=              1.2379    Z=             -4.6010  Tot=              5.6288
 N-N= 4.399567084585D+03 E-N= 0.000000000000D+00  KE=-9.473278454840D+03
 Leave Link  601 at Wed May  4 13:37:30 2022, MaxMem=  6710886400 cpu:               0.8 elap:               0.0
 (Enter /sw/apps/gaussian-16.0/g16/l9999.exe)
 1\1\GINC-BP1-COMPUTE031\SP\RZINDO CIS\STO-3G\C55H74Mg1N4O6\OF15641\04-
 May-2022\0\\#p ZINDO=(nstates=5)\\step_1701_chromophore_9 ZINDO\\0,1\M
 g,0,36.215,1.322,29.818\C,0,34.032,2.582,32.351\C,0,38.606,1.309,32.35
 8\C,0,38.402,0.705,27.488\C,0,33.697,1.875,27.465\N,0,36.286,1.975,32.
 055\C,0,35.32,2.442,32.824\C,0,35.685,2.424,34.321\C,0,37.213,2.372,34
 .245\C,0,37.429,1.896,32.776\C,0,38.068,3.726,34.553\C,0,35.165,1.166,
 35.105\C,0,34.742,1.331,36.565\C,0,35.69,2.156,37.423\O,0,35.521,3.259

 Normal termination of Gaussian 16 at Wed May  4 13:37:30 2022.
