 Gaussian 16, Revision A.03,
 Gaussian 16:  ES64L-G16RevA.03 25-Dec-2016

 ------------------------------
 #p blyp/Def2SVP td=(nstates=5)
 ------------------------------

 -------------------------------------------------
 step_401_chromophore_7 TDDFT with blyp functional
 -------------------------------------------------
 Symbolic Z-matrix:
 Charge =  0 Multiplicity = 1

                         Standard orientation:
 ---------------------------------------------------------------------
 Center     Atomic      Atomic             Coordinates (Angstroms)
 Number     Number       Type             X           Y           Z
 ---------------------------------------------------------------------
      1         12           0        6.250110    0.437778   -0.071304
      2          6           0        3.720938   -2.224539   -0.098503
      3          6           0        3.861098    2.441141   -1.174565
      4          6           0        8.552367    2.790405    0.037769
      5          6           0        8.551574   -2.028871    0.880485
      6          7           0        3.971615    0.106733   -0.581056
      7          6           0        3.172286   -1.035143   -0.580146
      8          6           0        1.737186   -0.669064   -0.863810
      9          6           0        1.936945    0.808269   -1.551302
     10          6           0        3.332966    1.176738   -1.021911
     11          6           0        1.898070    0.882573   -3.024968
     12          6           0        0.918307   -0.741098    0.536639
     13          6           0       -0.346090   -1.646913    0.497982
     14          6           0       -1.687480   -0.999854    1.031686
     15          8           0       -1.891043   -0.575401    2.151575
     16          8           0       -2.690915   -1.050935    0.141675
     17          7           0        6.168309    2.395638   -0.481422
     18          6           0        5.156055    3.044850   -0.972240
     19          6           0        5.536626    4.428574   -1.142106
     20          6           0        6.895084    4.593765   -0.762988
     21          6           0        7.295733    3.237356   -0.457420
     22          6           0        4.531655    5.451168   -1.573106
     23          6           0        7.661548    5.811907   -0.694547
     24          8           0        8.787126    5.862261   -0.213204
     25          6           0        7.069299    7.088039   -1.140368
     26          7           0        8.290352    0.296002    0.137116
     27          6           0        8.971592    1.494868    0.300122
     28          6           0       10.439671    1.280846    0.746759
     29          6           0       10.367873   -0.226272    1.197800
     30          6           0        9.003726   -0.705333    0.721197
     31          6           0       11.523454    1.600287   -0.273065
     32          6           0       10.789312   -0.467498    2.655150
     33          6           0       12.047281   -1.287302    2.755382
     34          7           0        6.217836   -1.667753    0.281814
     35          6           0        7.220215   -2.469150    0.696769
     36          6           0        6.709505   -3.861428    0.789178
     37          6           0        5.334660   -3.767553    0.614914
     38          6           0        5.061894   -2.469102    0.248916
     39          6           0        7.524528   -5.013619    1.080814
     40          6           0        4.110477   -4.438671    0.653654
     41          8           0        3.873933   -5.607325    0.906002
     42          6           0        2.948436   -3.443297    0.318136
     43          6           0        2.225866   -3.947915   -0.911817
     44          8           0        2.701228   -4.002108   -2.013409
     45          8           0        0.901830   -4.290289   -0.620555
     46          6           0        0.054831   -4.727484   -1.746174
     47          6           0       -4.005616   -0.589691    0.629833
     48          6           0       -5.017010   -1.248126   -0.181153
     49          6           0       -6.268356   -0.835816   -0.432657
     50          6           0       -6.891947    0.345147    0.292704
     51          6           0       -7.134040   -1.438503   -1.523752
     52          6           0       -8.603168   -1.600655   -1.191686
     53          6           0       -9.392493   -0.302643   -1.607567
     54          6           0      -10.847180   -0.669652   -2.111225
     55          6           0      -10.810356   -1.055509   -3.623418
     56          6           0      -11.811586    0.557316   -1.851191
     57          6           0      -13.215992    0.099434   -2.054636
     58          6           0      -14.077683    0.931226   -0.987370
     59          6           0      -14.579072    0.065210    0.206486
     60          6           0      -16.069560   -0.325710    0.019681
     61          6           0      -14.365469    0.715632    1.604870
     62          6           0      -12.981456    0.572682    2.182059
     63          6           0      -12.248127    1.956543    2.037010
     64          6           0      -11.758302    2.454210    3.444204
     65          6           0      -12.796931    3.271388    4.050009
     66          6           0      -10.480804    3.294886    3.271174
     67          1           0        3.095396    3.045382   -1.664535
     68          1           0        9.317251    3.553379    0.191263
     69          1           0        9.251444   -2.794042    1.221728
     70          1           0        1.294181   -1.364639   -1.576587
     71          1           0        1.132198    1.476578   -1.245104
     72          1           0        2.797783    1.294151   -3.482565
     73          1           0        1.059138    1.528607   -3.283217
     74          1           0        1.673127   -0.064530   -3.514768
     75          1           0        0.659139    0.261123    0.875884
     76          1           0        1.555917   -1.143840    1.322813
     77          1           0       -0.074141   -2.489041    1.135148
     78          1           0       -0.527762   -1.889478   -0.548793
     79          1           0        4.376484    6.190746   -0.788076
     80          1           0        3.609951    5.016376   -1.959256
     81          1           0        5.005810    5.911870   -2.440110
     82          1           0        7.715119    7.964679   -1.094008
     83          1           0        6.284111    7.297366   -0.413104
     84          1           0        6.719851    6.958752   -2.164610
     85          1           0       10.581238    1.941775    1.602482
     86          1           0       11.049138   -0.772743    0.544347
     87          1           0       12.410964    1.133197    0.152933
     88          1           0       11.722752    2.662578   -0.411156
     89          1           0       11.360812    1.096475   -1.225617
     90          1           0       10.034755   -0.863910    3.335513
     91          1           0       10.891236    0.523218    3.097939
     92          1           0       12.789010   -1.205251    1.961323
     93          1           0       11.641977   -2.298081    2.806712
     94          1           0       12.531453   -1.292483    3.731822
     95          1           0        7.123632   -5.555437    1.936946
     96          1           0        8.597234   -4.963672    1.271278
     97          1           0        7.353950   -5.687981    0.242409
     98          1           0        2.300689   -3.285356    1.180987
     99          1           0       -0.081160   -5.808308   -1.790921
    100          1           0        0.417221   -4.253088   -2.658132
    101          1           0       -0.956154   -4.329154   -1.652118
    102          1           0       -3.961778    0.492160    0.509160
    103          1           0       -4.225550   -0.916933    1.645528
    104          1           0       -4.633224   -2.134455   -0.686811
    105          1           0       -6.214392    0.831549    0.994380
    106          1           0       -7.770240   -0.016397    0.827072
    107          1           0       -7.292727    1.063920   -0.422102
    108          1           0       -6.832487   -2.485267   -1.573972
    109          1           0       -6.965895   -0.930990   -2.473672
    110          1           0       -8.664335   -1.941317   -0.158162
    111          1           0       -8.944833   -2.505112   -1.694846
    112          1           0       -8.792432    0.358833   -2.231490
    113          1           0       -9.524146    0.254057   -0.679119
    114          1           0      -11.206095   -1.556873   -1.590809
    115          1           0      -11.049687   -2.074291   -3.928220
    116          1           0       -9.847573   -0.701935   -3.992112
    117          1           0      -11.524371   -0.446439   -4.177693
    118          1           0      -11.663852    1.366876   -2.566484
    119          1           0      -11.662613    0.872344   -0.818056
    120          1           0      -13.270683   -0.986912   -1.994436
    121          1           0      -13.489590    0.386673   -3.070061
    122          1           0      -14.975224    1.277330   -1.499360
    123          1           0      -13.617454    1.844043   -0.607380
    124          1           0      -13.991959   -0.852414    0.238850
    125          1           0      -16.200762   -0.670853   -1.005194
    126          1           0      -16.751119    0.504064    0.204488
    127          1           0      -16.291167   -1.144401    0.705421
    128          1           0      -15.083325    0.245740    2.277710
    129          1           0      -14.654379    1.763580    1.521914
    130          1           0      -12.292784   -0.129459    1.713026
    131          1           0      -13.137841    0.304992    3.227181
    132          1           0      -12.875796    2.714518    1.567457
    133          1           0      -11.326028    1.799545    1.476907
    134          1           0      -11.649675    1.624053    4.142270
    135          1           0      -13.616630    2.602611    4.312856
    136          1           0      -13.314169    3.896573    3.322398
    137          1           0      -12.511610    3.933669    4.866618
    138          1           0      -10.183466    3.453542    2.234574
    139          1           0       -9.662729    2.991134    3.924898
    140          1           0      -10.670540    4.311416    3.616109
 ---------------------------------------------------------------------

 SCF Done:  E(RB-LYP) =  -3007.36701652     A.U. after   21 cycles

 Excitation energies and oscillator strengths:

 Excited State   1:      Singlet-A      1.8237 eV  679.86 nm  f=0.2906  <S**2>=0.000
     244 -> 247        0.17423
     245 -> 248       -0.18083
     246 -> 247        0.66158
     246 <- 247       -0.14681
 This state for optimization and/or second-order correction.
 Total Energy, E(TD-HF/TD-DFT) =  -3007.29999731
 Copying the excited state density for this state as the 1-particle RhoCI density.

 Excited State   2:      Singlet-A      1.8483 eV  670.78 nm  f=0.0244  <S**2>=0.000
     244 -> 247        0.68156
     246 -> 247       -0.15912

 Excited State   3:      Singlet-A      1.9639 eV  631.32 nm  f=0.0315  <S**2>=0.000
     243 -> 247        0.54986
     245 -> 247        0.40478
     246 -> 247       -0.10930
     246 -> 248        0.10881

 Excited State   4:      Singlet-A      2.0551 eV  603.30 nm  f=0.0506  <S**2>=0.000
     243 -> 247       -0.43278
     245 -> 247        0.50173
     246 -> 248        0.20879

 Excited State   5:      Singlet-A      2.2274 eV  556.62 nm  f=0.0001  <S**2>=0.000
     242 -> 247        0.70690

 The electronic state is 1-A.
 Alpha  occ. eigenvalues --  -46.27016 -18.82007 -18.81912 -18.77129 -18.75832
 Alpha  occ. eigenvalues --  -18.75307 -18.74792 -14.03118 -14.02664 -14.01256
 Alpha  occ. eigenvalues --  -14.00748 -10.04137 -10.03611  -9.99218  -9.99036
 Alpha  occ. eigenvalues --   -9.97672  -9.97651  -9.96691  -9.96351  -9.95967
 Alpha  occ. eigenvalues --   -9.95954  -9.95885  -9.95532  -9.95441  -9.94968
 Alpha  occ. eigenvalues --   -9.94548  -9.94139  -9.94065  -9.93752  -9.93733
 Alpha  occ. eigenvalues --   -9.93672  -9.93670  -9.93474  -9.93468  -9.93451
 Alpha  occ. eigenvalues --   -9.92762  -9.92636  -9.92614  -9.92598  -9.92426
 Alpha  occ. eigenvalues --   -9.92418  -9.92298  -9.92209  -9.92073  -9.92060
 Alpha  occ. eigenvalues --   -9.92021  -9.91954  -9.91883  -9.91632  -9.91629
 Alpha  occ. eigenvalues --   -9.91624  -9.91623  -9.91596  -9.91444  -9.91212
 Alpha  occ. eigenvalues --   -9.91148  -9.91140  -9.91124  -9.91075  -9.90997
 Alpha  occ. eigenvalues --   -9.90880  -9.90780  -9.90670  -9.90656  -9.90491
 Alpha  occ. eigenvalues --   -9.90121  -2.91704  -1.72134  -1.71596  -1.71411
 Alpha  occ. eigenvalues --   -0.98618  -0.97511  -0.91478  -0.91223  -0.90233
 Alpha  occ. eigenvalues --   -0.89276  -0.86962  -0.86058  -0.85672  -0.84905
 Alpha  occ. eigenvalues --   -0.76558  -0.73945  -0.73391  -0.72572  -0.72455
 Alpha  occ. eigenvalues --   -0.71949  -0.71793  -0.71476  -0.71265  -0.70992
 Alpha  occ. eigenvalues --   -0.70330  -0.69574  -0.68772  -0.67883  -0.67334
 Alpha  occ. eigenvalues --   -0.66786  -0.66284  -0.65664  -0.65325  -0.64620
 Alpha  occ. eigenvalues --   -0.64026  -0.63150  -0.62419  -0.62006  -0.60981
 Alpha  occ. eigenvalues --   -0.60764  -0.60291  -0.59751  -0.58894  -0.58867
 Alpha  occ. eigenvalues --   -0.58060  -0.57647  -0.56306  -0.55417  -0.54912
 Alpha  occ. eigenvalues --   -0.54434  -0.53677  -0.53385  -0.52257  -0.51802
 Alpha  occ. eigenvalues --   -0.51598  -0.51217  -0.50876  -0.50353  -0.50018
 Alpha  occ. eigenvalues --   -0.49602  -0.49455  -0.48889  -0.48480  -0.46618
 Alpha  occ. eigenvalues --   -0.46490  -0.46296  -0.45779  -0.45219  -0.45204
 Alpha  occ. eigenvalues --   -0.44328  -0.43939  -0.43434  -0.42929  -0.42176
 Alpha  occ. eigenvalues --   -0.41782  -0.41598  -0.41490  -0.41336  -0.40980
 Alpha  occ. eigenvalues --   -0.40964  -0.40697  -0.40674  -0.40602  -0.40456
 Alpha  occ. eigenvalues --   -0.40101  -0.39722  -0.39681  -0.39437  -0.39383
 Alpha  occ. eigenvalues --   -0.39319  -0.39006  -0.38680  -0.38525  -0.38350
 Alpha  occ. eigenvalues --   -0.38076  -0.37988  -0.37786  -0.37604  -0.37532
 Alpha  occ. eigenvalues --   -0.37289  -0.37008  -0.36849  -0.36742  -0.36372
 Alpha  occ. eigenvalues --   -0.36225  -0.36162  -0.35951  -0.35805  -0.35777
 Alpha  occ. eigenvalues --   -0.35678  -0.35428  -0.34984  -0.34973  -0.34695
 Alpha  occ. eigenvalues --   -0.34455  -0.34355  -0.34194  -0.34112  -0.34046
 Alpha  occ. eigenvalues --   -0.33951  -0.33720  -0.33599  -0.33552  -0.33430
 Alpha  occ. eigenvalues --   -0.33067  -0.32874  -0.32652  -0.32479  -0.32368
 Alpha  occ. eigenvalues --   -0.32166  -0.32064  -0.31907  -0.31875  -0.31727
 Alpha  occ. eigenvalues --   -0.31319  -0.31229  -0.31200  -0.31129  -0.31050
 Alpha  occ. eigenvalues --   -0.30653  -0.30572  -0.30272  -0.30012  -0.29861
 Alpha  occ. eigenvalues --   -0.29778  -0.29518  -0.29358  -0.29084  -0.28895
 Alpha  occ. eigenvalues --   -0.28730  -0.28568  -0.28496  -0.28181  -0.27748
 Alpha  occ. eigenvalues --   -0.27582  -0.27439  -0.27336  -0.26891  -0.26556
 Alpha  occ. eigenvalues --   -0.26413  -0.26361  -0.25953  -0.25292  -0.25246
 Alpha  occ. eigenvalues --   -0.25178  -0.25037  -0.23972  -0.23797  -0.23200
 Alpha  occ. eigenvalues --   -0.22910  -0.22637  -0.22116  -0.21283  -0.21073
 Alpha  occ. eigenvalues --   -0.20232  -0.19642  -0.18673  -0.18185  -0.17133
 Alpha  occ. eigenvalues --   -0.15725
 Alpha virt. eigenvalues --   -0.11457  -0.06921  -0.06160  -0.04614  -0.02486
 Alpha virt. eigenvalues --   -0.02097  -0.01398  -0.01349  -0.01216   0.00432
 Alpha virt. eigenvalues --    0.00945   0.01306   0.01656   0.02733   0.03108

 Mulliken charges:
               1
     1  Mg   0.688992
     2  C   -0.020438
     3  C   -0.027958
     4  C   -0.061018
     5  C   -0.085516
     6  N   -0.169910
     7  C   -0.100684
     8  C    0.013512
     9  C    0.004718
    10  C   -0.045569
    11  C    0.137977
    12  C    0.107425
    13  C    0.121356
    14  C    0.048271
    15  O   -0.199038
    16  O   -0.257637
    17  N   -0.307726
    18  C    0.158221
    19  C   -0.176475
    20  C    0.087640
    21  C    0.105463
    22  C    0.213973
    23  C   -0.132764
    24  O   -0.167168
    25  C    0.163031
    26  N   -0.261232
    27  C    0.057106
    28  C   -0.005832
    29  C    0.040864
    30  C    0.044802
    31  C    0.142507
    32  C    0.139563
    33  C    0.063170
    34  N   -0.241100
    35  C    0.102819
    36  C   -0.173985
    37  C    0.195605
    38  C    0.089121
    39  C    0.165075
    40  C   -0.135512
    41  O   -0.129454
    42  C    0.108769
    43  C    0.102236
    44  O   -0.152361
    45  O   -0.291756
    46  C    0.204859
    47  C    0.325878
    48  C   -0.128305
    49  C   -0.170003
    50  C    0.165420
    51  C    0.146507
    52  C    0.049113
    53  C    0.098644
    54  C   -0.089622
    55  C    0.114629
    56  C    0.077516
    57  C    0.084996
    58  C    0.110378
    59  C   -0.074120
    60  C    0.108617
    61  C    0.082777
    62  C    0.110924
    63  C    0.034929
    64  C   -0.082494
    65  C    0.120270
    66  C    0.126828
    67  H   -0.080279
    68  H   -0.043875
    69  H   -0.069219
    70  H   -0.012902
    71  H   -0.031261
    72  H    0.000720
    73  H   -0.018447
    74  H   -0.008304
    75  H   -0.010560
    76  H   -0.011678
    77  H    0.023548
    78  H   -0.008146
    79  H    0.008331
    80  H   -0.018220
    81  H   -0.014218
    82  H   -0.017195
    83  H    0.001272
    84  H    0.001869
    85  H   -0.020191
    86  H   -0.027204
    87  H   -0.017147
    88  H    0.008465
    89  H   -0.009578
    90  H   -0.030195
    91  H   -0.036414
    92  H    0.006593
    93  H   -0.019464
    94  H   -0.022839
    95  H    0.001478
    96  H   -0.013844
    97  H    0.006827
    98  H    0.001034
    99  H    0.027708
   100  H    0.016445
   101  H    0.007434
   102  H    0.007408
   103  H    0.020312
   104  H   -0.042042
   105  H   -0.016198
   106  H    0.002066
   107  H   -0.008734
   108  H   -0.041511
   109  H   -0.006174
   110  H   -0.029420
   111  H   -0.036166
   112  H   -0.021964
   113  H   -0.040153
   114  H   -0.031092
   115  H   -0.006402
   116  H   -0.024804
   117  H   -0.031993
   118  H   -0.026755
   119  H   -0.017055
   120  H   -0.021774
   121  H   -0.033932
   122  H   -0.053437
   123  H   -0.030523
   124  H   -0.045872
   125  H   -0.019836
   126  H   -0.012602
   127  H   -0.017542
   128  H   -0.051080
   129  H   -0.034908
   130  H   -0.023752
   131  H   -0.024066
   132  H   -0.009840
   133  H   -0.016591
   134  H   -0.032502
   135  H   -0.040154
   136  H   -0.040968
   137  H   -0.010628
   138  H   -0.019465
   139  H   -0.015239
   140  H   -0.041977
 Sum of Mulliken charges =  -0.00000

 Dipole moment (field-independent basis, Debye):
    X=             -2.4236    Y=              2.2389    Z=             -1.5340  Tot=              3.6386
 Quadrupole moment (field-independent basis, Debye-Ang):
   XX=           -374.2026   YY=           -426.3159   ZZ=           -406.4367
   XY=             -8.0311   XZ=             15.4934   YZ=             -6.2148

 Normal termination of Gaussian 16 at Fri Apr 29 18:58:59 2022.
