 Gaussian 16, Revision A.03,
 Gaussian 16:  ES64L-G16RevA.03 25-Dec-2016

 -----------------------------------
 #p cam-b3lyp/Def2SVP td=(nstates=5)
 -----------------------------------

 ------------------------------------------------------
 step_401_chromophore_7 TDDFT with cam-b3lyp functional
 ------------------------------------------------------
 Symbolic Z-matrix:
 Charge =  0 Multiplicity = 1

                         Standard orientation:
 ---------------------------------------------------------------------
 Center     Atomic      Atomic             Coordinates (Angstroms)
 Number     Number       Type             X           Y           Z
 ---------------------------------------------------------------------
      1         12           0        6.250110    0.437778   -0.071304
      2          6           0        3.720938   -2.224539   -0.098503
      3          6           0        3.861098    2.441141   -1.174565
      4          6           0        8.552367    2.790405    0.037769
      5          6           0        8.551574   -2.028871    0.880485
      6          7           0        3.971615    0.106733   -0.581056
      7          6           0        3.172286   -1.035143   -0.580146
      8          6           0        1.737186   -0.669064   -0.863810
      9          6           0        1.936945    0.808269   -1.551302
     10          6           0        3.332966    1.176738   -1.021911
     11          6           0        1.898070    0.882573   -3.024968
     12          6           0        0.918307   -0.741098    0.536639
     13          6           0       -0.346090   -1.646913    0.497982
     14          6           0       -1.687480   -0.999854    1.031686
     15          8           0       -1.891043   -0.575401    2.151575
     16          8           0       -2.690915   -1.050935    0.141675
     17          7           0        6.168309    2.395638   -0.481422
     18          6           0        5.156055    3.044850   -0.972240
     19          6           0        5.536626    4.428574   -1.142106
     20          6           0        6.895084    4.593765   -0.762988
     21          6           0        7.295733    3.237356   -0.457420
     22          6           0        4.531655    5.451168   -1.573106
     23          6           0        7.661548    5.811907   -0.694547
     24          8           0        8.787126    5.862261   -0.213204
     25          6           0        7.069299    7.088039   -1.140368
     26          7           0        8.290352    0.296002    0.137116
     27          6           0        8.971592    1.494868    0.300122
     28          6           0       10.439671    1.280846    0.746759
     29          6           0       10.367873   -0.226272    1.197800
     30          6           0        9.003726   -0.705333    0.721197
     31          6           0       11.523454    1.600287   -0.273065
     32          6           0       10.789312   -0.467498    2.655150
     33          6           0       12.047281   -1.287302    2.755382
     34          7           0        6.217836   -1.667753    0.281814
     35          6           0        7.220215   -2.469150    0.696769
     36          6           0        6.709505   -3.861428    0.789178
     37          6           0        5.334660   -3.767553    0.614914
     38          6           0        5.061894   -2.469102    0.248916
     39          6           0        7.524528   -5.013619    1.080814
     40          6           0        4.110477   -4.438671    0.653654
     41          8           0        3.873933   -5.607325    0.906002
     42          6           0        2.948436   -3.443297    0.318136
     43          6           0        2.225866   -3.947915   -0.911817
     44          8           0        2.701228   -4.002108   -2.013409
     45          8           0        0.901830   -4.290289   -0.620555
     46          6           0        0.054831   -4.727484   -1.746174
     47          6           0       -4.005616   -0.589691    0.629833
     48          6           0       -5.017010   -1.248126   -0.181153
     49          6           0       -6.268356   -0.835816   -0.432657
     50          6           0       -6.891947    0.345147    0.292704
     51          6           0       -7.134040   -1.438503   -1.523752
     52          6           0       -8.603168   -1.600655   -1.191686
     53          6           0       -9.392493   -0.302643   -1.607567
     54          6           0      -10.847180   -0.669652   -2.111225
     55          6           0      -10.810356   -1.055509   -3.623418
     56          6           0      -11.811586    0.557316   -1.851191
     57          6           0      -13.215992    0.099434   -2.054636
     58          6           0      -14.077683    0.931226   -0.987370
     59          6           0      -14.579072    0.065210    0.206486
     60          6           0      -16.069560   -0.325710    0.019681
     61          6           0      -14.365469    0.715632    1.604870
     62          6           0      -12.981456    0.572682    2.182059
     63          6           0      -12.248127    1.956543    2.037010
     64          6           0      -11.758302    2.454210    3.444204
     65          6           0      -12.796931    3.271388    4.050009
     66          6           0      -10.480804    3.294886    3.271174
     67          1           0        3.095396    3.045382   -1.664535
     68          1           0        9.317251    3.553379    0.191263
     69          1           0        9.251444   -2.794042    1.221728
     70          1           0        1.294181   -1.364639   -1.576587
     71          1           0        1.132198    1.476578   -1.245104
     72          1           0        2.797783    1.294151   -3.482565
     73          1           0        1.059138    1.528607   -3.283217
     74          1           0        1.673127   -0.064530   -3.514768
     75          1           0        0.659139    0.261123    0.875884
     76          1           0        1.555917   -1.143840    1.322813
     77          1           0       -0.074141   -2.489041    1.135148
     78          1           0       -0.527762   -1.889478   -0.548793
     79          1           0        4.376484    6.190746   -0.788076
     80          1           0        3.609951    5.016376   -1.959256
     81          1           0        5.005810    5.911870   -2.440110
     82          1           0        7.715119    7.964679   -1.094008
     83          1           0        6.284111    7.297366   -0.413104
     84          1           0        6.719851    6.958752   -2.164610
     85          1           0       10.581238    1.941775    1.602482
     86          1           0       11.049138   -0.772743    0.544347
     87          1           0       12.410964    1.133197    0.152933
     88          1           0       11.722752    2.662578   -0.411156
     89          1           0       11.360812    1.096475   -1.225617
     90          1           0       10.034755   -0.863910    3.335513
     91          1           0       10.891236    0.523218    3.097939
     92          1           0       12.789010   -1.205251    1.961323
     93          1           0       11.641977   -2.298081    2.806712
     94          1           0       12.531453   -1.292483    3.731822
     95          1           0        7.123632   -5.555437    1.936946
     96          1           0        8.597234   -4.963672    1.271278
     97          1           0        7.353950   -5.687981    0.242409
     98          1           0        2.300689   -3.285356    1.180987
     99          1           0       -0.081160   -5.808308   -1.790921
    100          1           0        0.417221   -4.253088   -2.658132
    101          1           0       -0.956154   -4.329154   -1.652118
    102          1           0       -3.961778    0.492160    0.509160
    103          1           0       -4.225550   -0.916933    1.645528
    104          1           0       -4.633224   -2.134455   -0.686811
    105          1           0       -6.214392    0.831549    0.994380
    106          1           0       -7.770240   -0.016397    0.827072
    107          1           0       -7.292727    1.063920   -0.422102
    108          1           0       -6.832487   -2.485267   -1.573972
    109          1           0       -6.965895   -0.930990   -2.473672
    110          1           0       -8.664335   -1.941317   -0.158162
    111          1           0       -8.944833   -2.505112   -1.694846
    112          1           0       -8.792432    0.358833   -2.231490
    113          1           0       -9.524146    0.254057   -0.679119
    114          1           0      -11.206095   -1.556873   -1.590809
    115          1           0      -11.049687   -2.074291   -3.928220
    116          1           0       -9.847573   -0.701935   -3.992112
    117          1           0      -11.524371   -0.446439   -4.177693
    118          1           0      -11.663852    1.366876   -2.566484
    119          1           0      -11.662613    0.872344   -0.818056
    120          1           0      -13.270683   -0.986912   -1.994436
    121          1           0      -13.489590    0.386673   -3.070061
    122          1           0      -14.975224    1.277330   -1.499360
    123          1           0      -13.617454    1.844043   -0.607380
    124          1           0      -13.991959   -0.852414    0.238850
    125          1           0      -16.200762   -0.670853   -1.005194
    126          1           0      -16.751119    0.504064    0.204488
    127          1           0      -16.291167   -1.144401    0.705421
    128          1           0      -15.083325    0.245740    2.277710
    129          1           0      -14.654379    1.763580    1.521914
    130          1           0      -12.292784   -0.129459    1.713026
    131          1           0      -13.137841    0.304992    3.227181
    132          1           0      -12.875796    2.714518    1.567457
    133          1           0      -11.326028    1.799545    1.476907
    134          1           0      -11.649675    1.624053    4.142270
    135          1           0      -13.616630    2.602611    4.312856
    136          1           0      -13.314169    3.896573    3.322398
    137          1           0      -12.511610    3.933669    4.866618
    138          1           0      -10.183466    3.453542    2.234574
    139          1           0       -9.662729    2.991134    3.924898
    140          1           0      -10.670540    4.311416    3.616109
 ---------------------------------------------------------------------

 SCF Done:  E(RCAM-B3LYP) =  -3007.17597638     A.U. after   17 cycles

 Excitation energies and oscillator strengths:

 Excited State   1:      Singlet-A      1.7119 eV  724.24 nm  f=0.3993  <S**2>=0.000
     245 -> 248        0.18023
     246 -> 247        0.68382
     245 <- 248        0.10649
 This state for optimization and/or second-order correction.
 Total Energy, E(TD-HF/TD-DFT) =  -3007.11306428
 Copying the excited state density for this state as the 1-particle RhoCI density.

 Excited State   2:      Singlet-A      2.2259 eV  557.00 nm  f=0.1197  <S**2>=0.000
     245 -> 247        0.64105
     246 -> 248       -0.28459

 Excited State   3:      Singlet-A      3.3888 eV  365.86 nm  f=0.0008  <S**2>=0.000
     240 -> 247        0.11090
     243 -> 247        0.67420

 Excited State   4:      Singlet-A      3.4948 eV  354.76 nm  f=0.4875  <S**2>=0.000
     240 -> 247        0.15870
     242 -> 247        0.25398
     243 -> 247       -0.11436
     245 -> 247        0.23873
     246 -> 248        0.56339

 Excited State   5:      Singlet-A      3.5510 eV  349.15 nm  f=0.0469  <S**2>=0.000
     239 -> 247        0.22821
     239 -> 249       -0.14841
     240 -> 247        0.47605
     240 -> 249       -0.29842
     240 -> 250        0.15205
     242 -> 247       -0.11330
     246 -> 248       -0.17896

 The electronic state is 1-A.
 Alpha  occ. eigenvalues --  -46.88546 -19.24976 -19.24874 -19.20417 -19.18795
 Alpha  occ. eigenvalues --  -19.18694 -19.17884 -14.41880 -14.41654 -14.39673
 Alpha  occ. eigenvalues --  -14.39239 -10.39773 -10.38869 -10.34648 -10.34038
 Alpha  occ. eigenvalues --  -10.31770 -10.31683 -10.31227 -10.30963 -10.30340
 Alpha  occ. eigenvalues --  -10.30324 -10.30197 -10.29874 -10.29644 -10.29185
 Alpha  occ. eigenvalues --  -10.29000 -10.28605 -10.28364 -10.28173 -10.28150
 Alpha  occ. eigenvalues --  -10.27879 -10.27784 -10.27777 -10.27358 -10.27316
 Alpha  occ. eigenvalues --  -10.26801 -10.26601 -10.26594 -10.26589 -10.26437
 Alpha  occ. eigenvalues --  -10.26303 -10.26236 -10.25889 -10.25785 -10.25778
 Alpha  occ. eigenvalues --  -10.25717 -10.25710 -10.25602 -10.25466 -10.25384
 Alpha  occ. eigenvalues --  -10.25362 -10.25358 -10.25346 -10.25074 -10.25041
 Alpha  occ. eigenvalues --  -10.24929 -10.24848 -10.24842 -10.24814 -10.24797
 Alpha  occ. eigenvalues --  -10.24622 -10.24549 -10.24385 -10.24328 -10.24066
 Alpha  occ. eigenvalues --  -10.23674  -3.17143  -1.92047  -1.91604  -1.91449
 Alpha  occ. eigenvalues --   -1.17106  -1.16249  -1.10084  -1.09530  -1.08286
 Alpha  occ. eigenvalues --   -1.07149  -1.04612  -1.03791  -1.03351  -1.02482
 Alpha  occ. eigenvalues --   -0.93888  -0.90888  -0.90230  -0.89213  -0.89197
 Alpha  occ. eigenvalues --   -0.88718  -0.88456  -0.88187  -0.87927  -0.87592
 Alpha  occ. eigenvalues --   -0.86909  -0.85943  -0.85107  -0.84115  -0.83543
 Alpha  occ. eigenvalues --   -0.82879  -0.82398  -0.81759  -0.81229  -0.80424
 Alpha  occ. eigenvalues --   -0.79790  -0.78916  -0.78078  -0.77526  -0.76467
 Alpha  occ. eigenvalues --   -0.76218  -0.75664  -0.74990  -0.74135  -0.74103
 Alpha  occ. eigenvalues --   -0.73130  -0.72710  -0.71156  -0.70242  -0.69546
 Alpha  occ. eigenvalues --   -0.69147  -0.68203  -0.67944  -0.66592  -0.65920
 Alpha  occ. eigenvalues --   -0.65852  -0.65433  -0.64907  -0.64328  -0.64069
 Alpha  occ. eigenvalues --   -0.63557  -0.63320  -0.62813  -0.62295  -0.60202
 Alpha  occ. eigenvalues --   -0.60115  -0.59782  -0.59383  -0.59052  -0.58570
 Alpha  occ. eigenvalues --   -0.57746  -0.57418  -0.56564  -0.56154  -0.55355
 Alpha  occ. eigenvalues --   -0.55009  -0.54785  -0.54421  -0.54160  -0.54112
 Alpha  occ. eigenvalues --   -0.53787  -0.53604  -0.53395  -0.53224  -0.53062
 Alpha  occ. eigenvalues --   -0.52991  -0.52795  -0.52450  -0.52184  -0.52089
 Alpha  occ. eigenvalues --   -0.51916  -0.51626  -0.51369  -0.51097  -0.50811
 Alpha  occ. eigenvalues --   -0.50437  -0.50271  -0.50123  -0.49979  -0.49794
 Alpha  occ. eigenvalues --   -0.49772  -0.49713  -0.49274  -0.48972  -0.48783
 Alpha  occ. eigenvalues --   -0.48660  -0.48342  -0.48273  -0.47950  -0.47819
 Alpha  occ. eigenvalues --   -0.47767  -0.47658  -0.47049  -0.46851  -0.46732
 Alpha  occ. eigenvalues --   -0.46537  -0.46284  -0.46072  -0.46052  -0.45734
 Alpha  occ. eigenvalues --   -0.45614  -0.45469  -0.45350  -0.45277  -0.45045
 Alpha  occ. eigenvalues --   -0.44922  -0.44742  -0.44369  -0.44195  -0.44108
 Alpha  occ. eigenvalues --   -0.44010  -0.43539  -0.43389  -0.43267  -0.43236
 Alpha  occ. eigenvalues --   -0.43040  -0.42820  -0.42783  -0.42467  -0.42388
 Alpha  occ. eigenvalues --   -0.42048  -0.41877  -0.41706  -0.41539  -0.41236
 Alpha  occ. eigenvalues --   -0.41179  -0.40951  -0.40741  -0.40639  -0.40003
 Alpha  occ. eigenvalues --   -0.39905  -0.39482  -0.39474  -0.39114  -0.38676
 Alpha  occ. eigenvalues --   -0.38643  -0.38505  -0.38165  -0.37673  -0.37619
 Alpha  occ. eigenvalues --   -0.37352  -0.37198  -0.36898  -0.36758  -0.36543
 Alpha  occ. eigenvalues --   -0.36011  -0.35749  -0.35063  -0.34222  -0.34191
 Alpha  occ. eigenvalues --   -0.33378  -0.33339  -0.33225  -0.31416  -0.30945
 Alpha  occ. eigenvalues --   -0.30582  -0.30410  -0.29477  -0.29424  -0.23899
 Alpha  occ. eigenvalues --   -0.21048
 Alpha virt. eigenvalues --   -0.08651  -0.01641   0.00256   0.02233   0.03462
 Alpha virt. eigenvalues --    0.05157   0.05348   0.05797   0.06130   0.06751
 Alpha virt. eigenvalues --    0.07271   0.08172   0.08845   0.09059   0.09203

 Mulliken charges:
               1
     1  Mg   0.823430
     2  C   -0.049790
     3  C   -0.042601
     4  C   -0.076603
     5  C   -0.094403
     6  N   -0.234508
     7  C   -0.053087
     8  C   -0.033876
     9  C   -0.043747
    10  C   -0.028914
    11  C    0.074735
    12  C    0.054170
    13  C    0.055364
    14  C    0.131956
    15  O   -0.240953
    16  O   -0.322799
    17  N   -0.397988
    18  C    0.166203
    19  C   -0.179713
    20  C    0.012698
    21  C    0.129444
    22  C    0.153279
    23  C   -0.049718
    24  O   -0.210085
    25  C    0.076367
    26  N   -0.337158
    27  C    0.071529
    28  C   -0.056656
    29  C   -0.024769
    30  C    0.073060
    31  C    0.086856
    32  C    0.078741
    33  C   -0.001134
    34  N   -0.328040
    35  C    0.116105
    36  C   -0.168063
    37  C    0.110326
    38  C    0.124947
    39  C    0.105670
    40  C   -0.032472
    41  O   -0.166779
    42  C    0.028855
    43  C    0.192687
    44  O   -0.187597
    45  O   -0.356127
    46  C    0.168268
    47  C    0.287180
    48  C   -0.146522
    49  C   -0.183868
    50  C    0.097453
    51  C    0.084559
    52  C   -0.007034
    53  C    0.044870
    54  C   -0.141884
    55  C    0.054236
    56  C    0.033235
    57  C    0.030414
    58  C    0.051022
    59  C   -0.123743
    60  C    0.050781
    61  C    0.029969
    62  C    0.054391
    63  C   -0.016464
    64  C   -0.139625
    65  C    0.059509
    66  C    0.060787
    67  H   -0.046627
    68  H   -0.003058
    69  H   -0.034962
    70  H    0.018030
    71  H    0.004722
    72  H    0.028233
    73  H    0.006667
    74  H    0.017653
    75  H    0.021848
    76  H    0.018762
    77  H    0.053258
    78  H    0.022049
    79  H    0.034066
    80  H    0.010676
    81  H    0.011452
    82  H    0.019935
    83  H    0.028674
    84  H    0.028702
    85  H    0.014588
    86  H    0.009721
    87  H    0.005137
    88  H    0.032581
    89  H    0.015092
    90  H    0.002022
    91  H   -0.006581
    92  H    0.028140
    93  H    0.002720
    94  H    0.005021
    95  H    0.029372
    96  H    0.013869
    97  H    0.034312
    98  H    0.042753
    99  H    0.049902
   100  H    0.041627
   101  H    0.028087
   102  H    0.034761
   103  H    0.051402
   104  H   -0.005307
   105  H    0.010162
   106  H    0.025331
   107  H    0.015943
   108  H   -0.008932
   109  H    0.022375
   110  H   -0.000042
   111  H   -0.005859
   112  H    0.005256
   113  H   -0.013774
   114  H   -0.000748
   115  H    0.017888
   116  H   -0.000391
   117  H   -0.007365
   118  H    0.001742
   119  H    0.003666
   120  H    0.005009
   121  H   -0.004816
   122  H   -0.021382
   123  H   -0.002870
   124  H   -0.015155
   125  H    0.004324
   126  H    0.010469
   127  H    0.006925
   128  H   -0.019267
   129  H   -0.008555
   130  H    0.003582
   131  H    0.004130
   132  H    0.013843
   133  H    0.009147
   134  H   -0.000695
   135  H   -0.014790
   136  H   -0.015976
   137  H    0.015069
   138  H    0.005116
   139  H    0.010113
   140  H   -0.015146
 Sum of Mulliken charges =  -0.00000

 Dipole moment (field-independent basis, Debye):
    X=             -2.6781    Y=              2.3511    Z=             -1.6623  Tot=              3.9323
 Quadrupole moment (field-independent basis, Debye-Ang):
   XX=           -373.8864   YY=           -422.5746   ZZ=           -406.2362
   XY=             -8.0916   XZ=             16.4909   YZ=             -7.1314

 Normal termination of Gaussian 16 at Fri Apr 29 18:01:14 2022.
