 Gaussian 16, Revision A.03,
 Gaussian 16:  ES64L-G16RevA.03 25-Dec-2016

 ---------------------------------
 #p PBE1PBE/Def2SVP td=(nstates=5)
 ---------------------------------

 ----------------------------------------------------
 step_401_chromophore_7 TDDFT with PBE1PBE functional
 ----------------------------------------------------
 Symbolic Z-matrix:
 Charge =  0 Multiplicity = 1

                         Standard orientation:
 ---------------------------------------------------------------------
 Center     Atomic      Atomic             Coordinates (Angstroms)
 Number     Number       Type             X           Y           Z
 ---------------------------------------------------------------------
      1         12           0        6.250110    0.437778   -0.071304
      2          6           0        3.720938   -2.224539   -0.098503
      3          6           0        3.861098    2.441141   -1.174565
      4          6           0        8.552367    2.790405    0.037769
      5          6           0        8.551574   -2.028871    0.880485
      6          7           0        3.971615    0.106733   -0.581056
      7          6           0        3.172286   -1.035143   -0.580146
      8          6           0        1.737186   -0.669064   -0.863810
      9          6           0        1.936945    0.808269   -1.551302
     10          6           0        3.332966    1.176738   -1.021911
     11          6           0        1.898070    0.882573   -3.024968
     12          6           0        0.918307   -0.741098    0.536639
     13          6           0       -0.346090   -1.646913    0.497982
     14          6           0       -1.687480   -0.999854    1.031686
     15          8           0       -1.891043   -0.575401    2.151575
     16          8           0       -2.690915   -1.050935    0.141675
     17          7           0        6.168309    2.395638   -0.481422
     18          6           0        5.156055    3.044850   -0.972240
     19          6           0        5.536626    4.428574   -1.142106
     20          6           0        6.895084    4.593765   -0.762988
     21          6           0        7.295733    3.237356   -0.457420
     22          6           0        4.531655    5.451168   -1.573106
     23          6           0        7.661548    5.811907   -0.694547
     24          8           0        8.787126    5.862261   -0.213204
     25          6           0        7.069299    7.088039   -1.140368
     26          7           0        8.290352    0.296002    0.137116
     27          6           0        8.971592    1.494868    0.300122
     28          6           0       10.439671    1.280846    0.746759
     29          6           0       10.367873   -0.226272    1.197800
     30          6           0        9.003726   -0.705333    0.721197
     31          6           0       11.523454    1.600287   -0.273065
     32          6           0       10.789312   -0.467498    2.655150
     33          6           0       12.047281   -1.287302    2.755382
     34          7           0        6.217836   -1.667753    0.281814
     35          6           0        7.220215   -2.469150    0.696769
     36          6           0        6.709505   -3.861428    0.789178
     37          6           0        5.334660   -3.767553    0.614914
     38          6           0        5.061894   -2.469102    0.248916
     39          6           0        7.524528   -5.013619    1.080814
     40          6           0        4.110477   -4.438671    0.653654
     41          8           0        3.873933   -5.607325    0.906002
     42          6           0        2.948436   -3.443297    0.318136
     43          6           0        2.225866   -3.947915   -0.911817
     44          8           0        2.701228   -4.002108   -2.013409
     45          8           0        0.901830   -4.290289   -0.620555
     46          6           0        0.054831   -4.727484   -1.746174
     47          6           0       -4.005616   -0.589691    0.629833
     48          6           0       -5.017010   -1.248126   -0.181153
     49          6           0       -6.268356   -0.835816   -0.432657
     50          6           0       -6.891947    0.345147    0.292704
     51          6           0       -7.134040   -1.438503   -1.523752
     52          6           0       -8.603168   -1.600655   -1.191686
     53          6           0       -9.392493   -0.302643   -1.607567
     54          6           0      -10.847180   -0.669652   -2.111225
     55          6           0      -10.810356   -1.055509   -3.623418
     56          6           0      -11.811586    0.557316   -1.851191
     57          6           0      -13.215992    0.099434   -2.054636
     58          6           0      -14.077683    0.931226   -0.987370
     59          6           0      -14.579072    0.065210    0.206486
     60          6           0      -16.069560   -0.325710    0.019681
     61          6           0      -14.365469    0.715632    1.604870
     62          6           0      -12.981456    0.572682    2.182059
     63          6           0      -12.248127    1.956543    2.037010
     64          6           0      -11.758302    2.454210    3.444204
     65          6           0      -12.796931    3.271388    4.050009
     66          6           0      -10.480804    3.294886    3.271174
     67          1           0        3.095396    3.045382   -1.664535
     68          1           0        9.317251    3.553379    0.191263
     69          1           0        9.251444   -2.794042    1.221728
     70          1           0        1.294181   -1.364639   -1.576587
     71          1           0        1.132198    1.476578   -1.245104
     72          1           0        2.797783    1.294151   -3.482565
     73          1           0        1.059138    1.528607   -3.283217
     74          1           0        1.673127   -0.064530   -3.514768
     75          1           0        0.659139    0.261123    0.875884
     76          1           0        1.555917   -1.143840    1.322813
     77          1           0       -0.074141   -2.489041    1.135148
     78          1           0       -0.527762   -1.889478   -0.548793
     79          1           0        4.376484    6.190746   -0.788076
     80          1           0        3.609951    5.016376   -1.959256
     81          1           0        5.005810    5.911870   -2.440110
     82          1           0        7.715119    7.964679   -1.094008
     83          1           0        6.284111    7.297366   -0.413104
     84          1           0        6.719851    6.958752   -2.164610
     85          1           0       10.581238    1.941775    1.602482
     86          1           0       11.049138   -0.772743    0.544347
     87          1           0       12.410964    1.133197    0.152933
     88          1           0       11.722752    2.662578   -0.411156
     89          1           0       11.360812    1.096475   -1.225617
     90          1           0       10.034755   -0.863910    3.335513
     91          1           0       10.891236    0.523218    3.097939
     92          1           0       12.789010   -1.205251    1.961323
     93          1           0       11.641977   -2.298081    2.806712
     94          1           0       12.531453   -1.292483    3.731822
     95          1           0        7.123632   -5.555437    1.936946
     96          1           0        8.597234   -4.963672    1.271278
     97          1           0        7.353950   -5.687981    0.242409
     98          1           0        2.300689   -3.285356    1.180987
     99          1           0       -0.081160   -5.808308   -1.790921
    100          1           0        0.417221   -4.253088   -2.658132
    101          1           0       -0.956154   -4.329154   -1.652118
    102          1           0       -3.961778    0.492160    0.509160
    103          1           0       -4.225550   -0.916933    1.645528
    104          1           0       -4.633224   -2.134455   -0.686811
    105          1           0       -6.214392    0.831549    0.994380
    106          1           0       -7.770240   -0.016397    0.827072
    107          1           0       -7.292727    1.063920   -0.422102
    108          1           0       -6.832487   -2.485267   -1.573972
    109          1           0       -6.965895   -0.930990   -2.473672
    110          1           0       -8.664335   -1.941317   -0.158162
    111          1           0       -8.944833   -2.505112   -1.694846
    112          1           0       -8.792432    0.358833   -2.231490
    113          1           0       -9.524146    0.254057   -0.679119
    114          1           0      -11.206095   -1.556873   -1.590809
    115          1           0      -11.049687   -2.074291   -3.928220
    116          1           0       -9.847573   -0.701935   -3.992112
    117          1           0      -11.524371   -0.446439   -4.177693
    118          1           0      -11.663852    1.366876   -2.566484
    119          1           0      -11.662613    0.872344   -0.818056
    120          1           0      -13.270683   -0.986912   -1.994436
    121          1           0      -13.489590    0.386673   -3.070061
    122          1           0      -14.975224    1.277330   -1.499360
    123          1           0      -13.617454    1.844043   -0.607380
    124          1           0      -13.991959   -0.852414    0.238850
    125          1           0      -16.200762   -0.670853   -1.005194
    126          1           0      -16.751119    0.504064    0.204488
    127          1           0      -16.291167   -1.144401    0.705421
    128          1           0      -15.083325    0.245740    2.277710
    129          1           0      -14.654379    1.763580    1.521914
    130          1           0      -12.292784   -0.129459    1.713026
    131          1           0      -13.137841    0.304992    3.227181
    132          1           0      -12.875796    2.714518    1.567457
    133          1           0      -11.326028    1.799545    1.476907
    134          1           0      -11.649675    1.624053    4.142270
    135          1           0      -13.616630    2.602611    4.312856
    136          1           0      -13.314169    3.896573    3.322398
    137          1           0      -12.511610    3.933669    4.866618
    138          1           0      -10.183466    3.453542    2.234574
    139          1           0       -9.662729    2.991134    3.924898
    140          1           0      -10.670540    4.311416    3.616109
 ---------------------------------------------------------------------

 SCF Done:  E(RPBE1PBE) =  -3005.36460413     A.U. after   15 cycles

 Excitation energies and oscillator strengths:

 Excited State   1:      Singlet-A      1.8720 eV  662.30 nm  f=0.3854  <S**2>=0.000
     245 -> 248       -0.17295
     246 -> 247        0.69098
     246 <- 247       -0.11144
 This state for optimization and/or second-order correction.
 Total Energy, E(TD-HF/TD-DFT) =  -3005.29580807
 Copying the excited state density for this state as the 1-particle RhoCI density.

 Excited State   2:      Singlet-A      2.2346 eV  554.83 nm  f=0.1121  <S**2>=0.000
     245 -> 247        0.65045
     246 -> 248        0.25993

 Excited State   3:      Singlet-A      3.0339 eV  408.66 nm  f=0.0001  <S**2>=0.000
     241 -> 247        0.45407
     241 -> 249       -0.14726
     243 -> 247        0.50567

 Excited State   4:      Singlet-A      3.0636 eV  404.70 nm  f=0.0003  <S**2>=0.000
     242 -> 247        0.67008
     242 -> 248        0.12281
     242 -> 249        0.12755
     242 -> 250       -0.10933

 Excited State   5:      Singlet-A      3.1076 eV  398.98 nm  f=0.0072  <S**2>=0.000
     241 -> 247       -0.47606
     241 -> 249        0.11866
     243 -> 247        0.47693

 The electronic state is 1-A.
 Alpha  occ. eigenvalues --  -46.91936 -19.25584 -19.25563 -19.20534 -19.19101
 Alpha  occ. eigenvalues --  -19.18824 -19.18178 -14.41467 -14.41057 -14.39340
 Alpha  occ. eigenvalues --  -14.38875 -10.36716 -10.35937 -10.31696 -10.31190
 Alpha  occ. eigenvalues --  -10.29081 -10.28952 -10.28893 -10.28642 -10.28144
 Alpha  occ. eigenvalues --  -10.28092 -10.27907 -10.27481 -10.27404 -10.27000
 Alpha  occ. eigenvalues --  -10.26640 -10.26145 -10.25944 -10.25931 -10.25898
 Alpha  occ. eigenvalues --  -10.25591 -10.25407 -10.25273 -10.25204 -10.25174
 Alpha  occ. eigenvalues --  -10.24408 -10.24272 -10.24237 -10.24220 -10.24081
 Alpha  occ. eigenvalues --  -10.23971 -10.23915 -10.23630 -10.23285 -10.23164
 Alpha  occ. eigenvalues --  -10.23152 -10.23106 -10.23052 -10.22996 -10.22925
 Alpha  occ. eigenvalues --  -10.22919 -10.22902 -10.22891 -10.22727 -10.22550
 Alpha  occ. eigenvalues --  -10.22529 -10.22468 -10.22424 -10.22367 -10.22344
 Alpha  occ. eigenvalues --  -10.22098 -10.22016 -10.21884 -10.21771 -10.21462
 Alpha  occ. eigenvalues --  -10.21026  -3.14113  -1.86959  -1.86493  -1.86343
 Alpha  occ. eigenvalues --   -1.11963  -1.10907  -1.04737  -1.04320  -1.03042
 Alpha  occ. eigenvalues --   -1.02037  -0.99315  -0.98406  -0.97939  -0.97116
 Alpha  occ. eigenvalues --   -0.88213  -0.85010  -0.84315  -0.83489  -0.83313
 Alpha  occ. eigenvalues --   -0.82940  -0.82777  -0.82485  -0.82257  -0.81714
 Alpha  occ. eigenvalues --   -0.81173  -0.80162  -0.79344  -0.78381  -0.77825
 Alpha  occ. eigenvalues --   -0.77071  -0.76661  -0.75998  -0.75423  -0.74734
 Alpha  occ. eigenvalues --   -0.73974  -0.73238  -0.72345  -0.71836  -0.70738
 Alpha  occ. eigenvalues --   -0.70335  -0.69748  -0.69395  -0.68289  -0.68260
 Alpha  occ. eigenvalues --   -0.67461  -0.67068  -0.65611  -0.64522  -0.63927
 Alpha  occ. eigenvalues --   -0.63564  -0.62689  -0.62183  -0.60851  -0.60348
 Alpha  occ. eigenvalues --   -0.60210  -0.59636  -0.59476  -0.58888  -0.58187
 Alpha  occ. eigenvalues --   -0.57836  -0.57680  -0.56981  -0.56822  -0.54747
 Alpha  occ. eigenvalues --   -0.54645  -0.54203  -0.53918  -0.53335  -0.53179
 Alpha  occ. eigenvalues --   -0.52347  -0.51760  -0.51169  -0.50600  -0.49961
 Alpha  occ. eigenvalues --   -0.49541  -0.49169  -0.48887  -0.48691  -0.48553
 Alpha  occ. eigenvalues --   -0.48195  -0.48113  -0.47884  -0.47672  -0.47644
 Alpha  occ. eigenvalues --   -0.47485  -0.47351  -0.47054  -0.46690  -0.46659
 Alpha  occ. eigenvalues --   -0.46401  -0.46206  -0.45844  -0.45718  -0.45395
 Alpha  occ. eigenvalues --   -0.45021  -0.44856  -0.44759  -0.44505  -0.44413
 Alpha  occ. eigenvalues --   -0.44384  -0.44264  -0.43870  -0.43549  -0.43362
 Alpha  occ. eigenvalues --   -0.43241  -0.42997  -0.42863  -0.42576  -0.42472
 Alpha  occ. eigenvalues --   -0.42354  -0.42311  -0.41716  -0.41459  -0.41330
 Alpha  occ. eigenvalues --   -0.41186  -0.40955  -0.40839  -0.40721  -0.40410
 Alpha  occ. eigenvalues --   -0.40327  -0.40200  -0.40128  -0.39941  -0.39676
 Alpha  occ. eigenvalues --   -0.39656  -0.39458  -0.39138  -0.38967  -0.38821
 Alpha  occ. eigenvalues --   -0.38789  -0.38268  -0.38146  -0.38067  -0.37949
 Alpha  occ. eigenvalues --   -0.37808  -0.37663  -0.37608  -0.37327  -0.37144
 Alpha  occ. eigenvalues --   -0.36861  -0.36619  -0.36515  -0.36334  -0.36067
 Alpha  occ. eigenvalues --   -0.35912  -0.35881  -0.35594  -0.35519  -0.34793
 Alpha  occ. eigenvalues --   -0.34650  -0.34408  -0.34218  -0.33955  -0.33637
 Alpha  occ. eigenvalues --   -0.33596  -0.33224  -0.32991  -0.32600  -0.32473
 Alpha  occ. eigenvalues --   -0.32182  -0.32129  -0.31827  -0.31733  -0.31396
 Alpha  occ. eigenvalues --   -0.31040  -0.30627  -0.29769  -0.29419  -0.29169
 Alpha  occ. eigenvalues --   -0.28958  -0.28240  -0.28182  -0.27013  -0.26083
 Alpha  occ. eigenvalues --   -0.25759  -0.25326  -0.25106  -0.24697  -0.20830
 Alpha  occ. eigenvalues --   -0.18666
 Alpha virt. eigenvalues --   -0.11076  -0.05203  -0.03942  -0.02130   0.00514
 Alpha virt. eigenvalues --    0.00883   0.01067   0.01593   0.01685   0.03172
 Alpha virt. eigenvalues --    0.03759   0.04033   0.04795   0.05599   0.05968

 Mulliken charges:
               1
     1  Mg   0.975329
     2  C   -0.067387
     3  C   -0.046940
     4  C   -0.061064
     5  C   -0.079384
     6  N   -0.335857
     7  C    0.034752
     8  C   -0.104358
     9  C   -0.123070
    10  C    0.016733
    11  C    0.023005
    12  C    0.011015
    13  C   -0.028981
    14  C    0.204208
    15  O   -0.273618
    16  O   -0.355300
    17  N   -0.519612
    18  C    0.205162
    19  C   -0.212533
    20  C   -0.038094
    21  C    0.161200
    22  C    0.090899
    23  C    0.004296
    24  O   -0.248550
    25  C    0.000032
    26  N   -0.441900
    27  C    0.093071
    28  C   -0.129146
    29  C   -0.102652
    30  C    0.109258
    31  C    0.025467
    32  C    0.020107
    33  C   -0.077479
    34  N   -0.450831
    35  C    0.145250
    36  C   -0.193648
    37  C    0.053676
    38  C    0.167949
    39  C    0.056354
    40  C    0.074509
    41  O   -0.214359
    42  C   -0.099487
    43  C    0.289927
    44  O   -0.222363
    45  O   -0.388924
    46  C    0.114612
    47  C    0.244623
    48  C   -0.155996
    49  C   -0.224358
    50  C    0.033130
    51  C    0.016853
    52  C   -0.067410
    53  C   -0.014440
    54  C   -0.226091
    55  C   -0.000788
    56  C   -0.032545
    57  C   -0.029605
    58  C   -0.007699
    59  C   -0.203523
    60  C   -0.014588
    61  C   -0.026065
    62  C   -0.003616
    63  C   -0.075696
    64  C   -0.236704
    65  C    0.002130
    66  C    0.001399
    67  H   -0.012801
    68  H    0.027975
    69  H   -0.000886
    70  H    0.055465
    71  H    0.040492
    72  H    0.055578
    73  H    0.034094
    74  H    0.045297
    75  H    0.052859
    76  H    0.052169
    77  H    0.085788
    78  H    0.056388
    79  H    0.062446
    80  H    0.039447
    81  H    0.041374
    82  H    0.048439
    83  H    0.056867
    84  H    0.055916
    85  H    0.051274
    86  H    0.048756
    87  H    0.035800
    88  H    0.059327
    89  H    0.043541
    90  H    0.034014
    91  H    0.026295
    92  H    0.054227
    93  H    0.032154
    94  H    0.033996
    95  H    0.056796
    96  H    0.038544
    97  H    0.062274
    98  H    0.078234
    99  H    0.071455
   100  H    0.061916
   101  H    0.048604
   102  H    0.060992
   103  H    0.078285
   104  H    0.024624
   105  H    0.037625
   106  H    0.053419
   107  H    0.044355
   108  H    0.024962
   109  H    0.055007
   110  H    0.032501
   111  H    0.027018
   112  H    0.035225
   113  H    0.021036
   114  H    0.035938
   115  H    0.044218
   116  H    0.027976
   117  H    0.020499
   118  H    0.034876
   119  H    0.046252
   120  H    0.035496
   121  H    0.028068
   122  H    0.012753
   123  H    0.030236
   124  H    0.023845
   125  H    0.033490
   126  H    0.038202
   127  H    0.035298
   128  H    0.013889
   129  H    0.024286
   130  H    0.035069
   131  H    0.035729
   132  H    0.042919
   133  H    0.043234
   134  H    0.036159
   135  H    0.015255
   136  H    0.012340
   137  H    0.042661
   138  H    0.031191
   139  H    0.037789
   140  H    0.012882
 Sum of Mulliken charges =  -0.00000

 Dipole moment (field-independent basis, Debye):
    X=             -2.5661    Y=              2.4956    Z=             -1.6552  Tot=              3.9437
 Quadrupole moment (field-independent basis, Debye-Ang):
   XX=           -366.3605   YY=           -419.7314   ZZ=           -403.5076
   XY=             -7.8871   XZ=             17.3225   YZ=             -7.2955

 Normal termination of Gaussian 16 at Fri Apr 29 18:17:32 2022.
