 Gaussian 16, Revision A.03,
 Gaussian 16:  ES64L-G16RevA.03 25-Dec-2016

 --------------------------------
 #p wB97XD/Def2SVP td=(nstates=5)
 --------------------------------

 ---------------------------------------------------
 step_401_chromophore_7 TDDFT with wB97XD functional
 ---------------------------------------------------
 Symbolic Z-matrix:
 Charge =  0 Multiplicity = 1

                         Standard orientation:
 ---------------------------------------------------------------------
 Center     Atomic      Atomic             Coordinates (Angstroms)
 Number     Number       Type             X           Y           Z
 ---------------------------------------------------------------------
      1         12           0        6.250110    0.437778   -0.071304
      2          6           0        3.720938   -2.224539   -0.098503
      3          6           0        3.861098    2.441141   -1.174565
      4          6           0        8.552367    2.790405    0.037769
      5          6           0        8.551574   -2.028871    0.880485
      6          7           0        3.971615    0.106733   -0.581056
      7          6           0        3.172286   -1.035143   -0.580146
      8          6           0        1.737186   -0.669064   -0.863810
      9          6           0        1.936945    0.808269   -1.551302
     10          6           0        3.332966    1.176738   -1.021911
     11          6           0        1.898070    0.882573   -3.024968
     12          6           0        0.918307   -0.741098    0.536639
     13          6           0       -0.346090   -1.646913    0.497982
     14          6           0       -1.687480   -0.999854    1.031686
     15          8           0       -1.891043   -0.575401    2.151575
     16          8           0       -2.690915   -1.050935    0.141675
     17          7           0        6.168309    2.395638   -0.481422
     18          6           0        5.156055    3.044850   -0.972240
     19          6           0        5.536626    4.428574   -1.142106
     20          6           0        6.895084    4.593765   -0.762988
     21          6           0        7.295733    3.237356   -0.457420
     22          6           0        4.531655    5.451168   -1.573106
     23          6           0        7.661548    5.811907   -0.694547
     24          8           0        8.787126    5.862261   -0.213204
     25          6           0        7.069299    7.088039   -1.140368
     26          7           0        8.290352    0.296002    0.137116
     27          6           0        8.971592    1.494868    0.300122
     28          6           0       10.439671    1.280846    0.746759
     29          6           0       10.367873   -0.226272    1.197800
     30          6           0        9.003726   -0.705333    0.721197
     31          6           0       11.523454    1.600287   -0.273065
     32          6           0       10.789312   -0.467498    2.655150
     33          6           0       12.047281   -1.287302    2.755382
     34          7           0        6.217836   -1.667753    0.281814
     35          6           0        7.220215   -2.469150    0.696769
     36          6           0        6.709505   -3.861428    0.789178
     37          6           0        5.334660   -3.767553    0.614914
     38          6           0        5.061894   -2.469102    0.248916
     39          6           0        7.524528   -5.013619    1.080814
     40          6           0        4.110477   -4.438671    0.653654
     41          8           0        3.873933   -5.607325    0.906002
     42          6           0        2.948436   -3.443297    0.318136
     43          6           0        2.225866   -3.947915   -0.911817
     44          8           0        2.701228   -4.002108   -2.013409
     45          8           0        0.901830   -4.290289   -0.620555
     46          6           0        0.054831   -4.727484   -1.746174
     47          6           0       -4.005616   -0.589691    0.629833
     48          6           0       -5.017010   -1.248126   -0.181153
     49          6           0       -6.268356   -0.835816   -0.432657
     50          6           0       -6.891947    0.345147    0.292704
     51          6           0       -7.134040   -1.438503   -1.523752
     52          6           0       -8.603168   -1.600655   -1.191686
     53          6           0       -9.392493   -0.302643   -1.607567
     54          6           0      -10.847180   -0.669652   -2.111225
     55          6           0      -10.810356   -1.055509   -3.623418
     56          6           0      -11.811586    0.557316   -1.851191
     57          6           0      -13.215992    0.099434   -2.054636
     58          6           0      -14.077683    0.931226   -0.987370
     59          6           0      -14.579072    0.065210    0.206486
     60          6           0      -16.069560   -0.325710    0.019681
     61          6           0      -14.365469    0.715632    1.604870
     62          6           0      -12.981456    0.572682    2.182059
     63          6           0      -12.248127    1.956543    2.037010
     64          6           0      -11.758302    2.454210    3.444204
     65          6           0      -12.796931    3.271388    4.050009
     66          6           0      -10.480804    3.294886    3.271174
     67          1           0        3.095396    3.045382   -1.664535
     68          1           0        9.317251    3.553379    0.191263
     69          1           0        9.251444   -2.794042    1.221728
     70          1           0        1.294181   -1.364639   -1.576587
     71          1           0        1.132198    1.476578   -1.245104
     72          1           0        2.797783    1.294151   -3.482565
     73          1           0        1.059138    1.528607   -3.283217
     74          1           0        1.673127   -0.064530   -3.514768
     75          1           0        0.659139    0.261123    0.875884
     76          1           0        1.555917   -1.143840    1.322813
     77          1           0       -0.074141   -2.489041    1.135148
     78          1           0       -0.527762   -1.889478   -0.548793
     79          1           0        4.376484    6.190746   -0.788076
     80          1           0        3.609951    5.016376   -1.959256
     81          1           0        5.005810    5.911870   -2.440110
     82          1           0        7.715119    7.964679   -1.094008
     83          1           0        6.284111    7.297366   -0.413104
     84          1           0        6.719851    6.958752   -2.164610
     85          1           0       10.581238    1.941775    1.602482
     86          1           0       11.049138   -0.772743    0.544347
     87          1           0       12.410964    1.133197    0.152933
     88          1           0       11.722752    2.662578   -0.411156
     89          1           0       11.360812    1.096475   -1.225617
     90          1           0       10.034755   -0.863910    3.335513
     91          1           0       10.891236    0.523218    3.097939
     92          1           0       12.789010   -1.205251    1.961323
     93          1           0       11.641977   -2.298081    2.806712
     94          1           0       12.531453   -1.292483    3.731822
     95          1           0        7.123632   -5.555437    1.936946
     96          1           0        8.597234   -4.963672    1.271278
     97          1           0        7.353950   -5.687981    0.242409
     98          1           0        2.300689   -3.285356    1.180987
     99          1           0       -0.081160   -5.808308   -1.790921
    100          1           0        0.417221   -4.253088   -2.658132
    101          1           0       -0.956154   -4.329154   -1.652118
    102          1           0       -3.961778    0.492160    0.509160
    103          1           0       -4.225550   -0.916933    1.645528
    104          1           0       -4.633224   -2.134455   -0.686811
    105          1           0       -6.214392    0.831549    0.994380
    106          1           0       -7.770240   -0.016397    0.827072
    107          1           0       -7.292727    1.063920   -0.422102
    108          1           0       -6.832487   -2.485267   -1.573972
    109          1           0       -6.965895   -0.930990   -2.473672
    110          1           0       -8.664335   -1.941317   -0.158162
    111          1           0       -8.944833   -2.505112   -1.694846
    112          1           0       -8.792432    0.358833   -2.231490
    113          1           0       -9.524146    0.254057   -0.679119
    114          1           0      -11.206095   -1.556873   -1.590809
    115          1           0      -11.049687   -2.074291   -3.928220
    116          1           0       -9.847573   -0.701935   -3.992112
    117          1           0      -11.524371   -0.446439   -4.177693
    118          1           0      -11.663852    1.366876   -2.566484
    119          1           0      -11.662613    0.872344   -0.818056
    120          1           0      -13.270683   -0.986912   -1.994436
    121          1           0      -13.489590    0.386673   -3.070061
    122          1           0      -14.975224    1.277330   -1.499360
    123          1           0      -13.617454    1.844043   -0.607380
    124          1           0      -13.991959   -0.852414    0.238850
    125          1           0      -16.200762   -0.670853   -1.005194
    126          1           0      -16.751119    0.504064    0.204488
    127          1           0      -16.291167   -1.144401    0.705421
    128          1           0      -15.083325    0.245740    2.277710
    129          1           0      -14.654379    1.763580    1.521914
    130          1           0      -12.292784   -0.129459    1.713026
    131          1           0      -13.137841    0.304992    3.227181
    132          1           0      -12.875796    2.714518    1.567457
    133          1           0      -11.326028    1.799545    1.476907
    134          1           0      -11.649675    1.624053    4.142270
    135          1           0      -13.616630    2.602611    4.312856
    136          1           0      -13.314169    3.896573    3.322398
    137          1           0      -12.511610    3.933669    4.866618
    138          1           0      -10.183466    3.453542    2.234574
    139          1           0       -9.662729    2.991134    3.924898
    140          1           0      -10.670540    4.311416    3.616109
 ---------------------------------------------------------------------

 SCF Done:  E(RwB97XD) =  -3007.87525928     A.U. after   19 cycles

 Excitation energies and oscillator strengths:

 Excited State   1:      Singlet-A      1.6521 eV  750.48 nm  f=0.3975  <S**2>=0.000
     245 -> 248        0.18604
     246 -> 247        0.68127
     245 <- 248        0.11601
 This state for optimization and/or second-order correction.
 Total Energy, E(TD-HF/TD-DFT) =  -3007.81454685
 Copying the excited state density for this state as the 1-particle RhoCI density.

 Excited State   2:      Singlet-A      2.1716 eV  570.94 nm  f=0.1165  <S**2>=0.000
     245 -> 247        0.63895
     246 -> 248       -0.28746

 Excited State   3:      Singlet-A      3.4097 eV  363.63 nm  f=0.0061  <S**2>=0.000
     240 -> 247        0.10975
     243 -> 247        0.65944
     246 -> 248        0.12934

 Excited State   4:      Singlet-A      3.5176 eV  352.46 nm  f=0.5325  <S**2>=0.000
     240 -> 247        0.13838
     241 -> 247        0.24128
     243 -> 247       -0.17093
     245 -> 247        0.24576
     246 -> 248        0.56075
     245 <- 247       -0.10618

 Excited State   5:      Singlet-A      3.5673 eV  347.56 nm  f=0.0439  <S**2>=0.000
     239 -> 247        0.15551
     239 -> 249       -0.10843
     240 -> 247        0.49690
     240 -> 249       -0.33810
     240 -> 250       -0.16701
     246 -> 248       -0.16937

 The electronic state is 1-A.
 Alpha  occ. eigenvalues --  -46.94876 -19.30231 -19.30157 -19.25359 -19.23793
 Alpha  occ. eigenvalues --  -19.23785 -19.22878 -14.46464 -14.46275 -14.44246
 Alpha  occ. eigenvalues --  -14.43874 -10.43650 -10.42726 -10.38685 -10.37935
 Alpha  occ. eigenvalues --  -10.35594 -10.35539 -10.35252 -10.35019 -10.34356
 Alpha  occ. eigenvalues --  -10.34348 -10.34185 -10.33931 -10.33621 -10.33298
 Alpha  occ. eigenvalues --  -10.33053 -10.32691 -10.32529 -10.32261 -10.32218
 Alpha  occ. eigenvalues --  -10.32024 -10.31794 -10.31750 -10.31401 -10.31343
 Alpha  occ. eigenvalues --  -10.30896 -10.30631 -10.30614 -10.30524 -10.30475
 Alpha  occ. eigenvalues --  -10.30264 -10.30218 -10.29901 -10.29677 -10.29615
 Alpha  occ. eigenvalues --  -10.29584 -10.29547 -10.29438 -10.29377 -10.29341
 Alpha  occ. eigenvalues --  -10.29307 -10.29287 -10.29279 -10.29005 -10.28976
 Alpha  occ. eigenvalues --  -10.28902 -10.28888 -10.28806 -10.28749 -10.28710
 Alpha  occ. eigenvalues --  -10.28483 -10.28466 -10.28250 -10.28222 -10.27878
 Alpha  occ. eigenvalues --  -10.27477  -3.20909  -1.94505  -1.94041  -1.93882
 Alpha  occ. eigenvalues --   -1.19338  -1.18416  -1.12359  -1.11701  -1.10510
 Alpha  occ. eigenvalues --   -1.09388  -1.06623  -1.05831  -1.05360  -1.04521
 Alpha  occ. eigenvalues --   -0.95923  -0.92709  -0.91986  -0.91044  -0.90988
 Alpha  occ. eigenvalues --   -0.90608  -0.90380  -0.90097  -0.89860  -0.89387
 Alpha  occ. eigenvalues --   -0.88857  -0.87821  -0.86987  -0.86019  -0.85469
 Alpha  occ. eigenvalues --   -0.84729  -0.84316  -0.83676  -0.83090  -0.82382
 Alpha  occ. eigenvalues --   -0.81653  -0.80871  -0.80011  -0.79445  -0.78400
 Alpha  occ. eigenvalues --   -0.78060  -0.77443  -0.76941  -0.75963  -0.75946
 Alpha  occ. eigenvalues --   -0.75078  -0.74689  -0.73136  -0.72172  -0.71494
 Alpha  occ. eigenvalues --   -0.71105  -0.70195  -0.69834  -0.68481  -0.67855
 Alpha  occ. eigenvalues --   -0.67787  -0.67296  -0.66905  -0.66349  -0.65885
 Alpha  occ. eigenvalues --   -0.65404  -0.65282  -0.64641  -0.64316  -0.62154
 Alpha  occ. eigenvalues --   -0.62100  -0.61718  -0.61382  -0.61016  -0.60536
 Alpha  occ. eigenvalues --   -0.59761  -0.59304  -0.58550  -0.58089  -0.57345
 Alpha  occ. eigenvalues --   -0.56968  -0.56684  -0.56322  -0.56107  -0.56036
 Alpha  occ. eigenvalues --   -0.55674  -0.55557  -0.55317  -0.55092  -0.54991
 Alpha  occ. eigenvalues --   -0.54888  -0.54726  -0.54400  -0.54061  -0.54012
 Alpha  occ. eigenvalues --   -0.53797  -0.53560  -0.53325  -0.53008  -0.52721
 Alpha  occ. eigenvalues --   -0.52355  -0.52191  -0.52044  -0.51952  -0.51717
 Alpha  occ. eigenvalues --   -0.51693  -0.51600  -0.51215  -0.50877  -0.50724
 Alpha  occ. eigenvalues --   -0.50578  -0.50252  -0.50179  -0.49858  -0.49715
 Alpha  occ. eigenvalues --   -0.49671  -0.49592  -0.48954  -0.48777  -0.48607
 Alpha  occ. eigenvalues --   -0.48502  -0.48204  -0.48005  -0.47941  -0.47569
 Alpha  occ. eigenvalues --   -0.47534  -0.47414  -0.47238  -0.47153  -0.46901
 Alpha  occ. eigenvalues --   -0.46852  -0.46667  -0.46314  -0.46172  -0.46000
 Alpha  occ. eigenvalues --   -0.45947  -0.45409  -0.45261  -0.45186  -0.45111
 Alpha  occ. eigenvalues --   -0.44945  -0.44824  -0.44718  -0.44375  -0.44258
 Alpha  occ. eigenvalues --   -0.44021  -0.43745  -0.43648  -0.43519  -0.43170
 Alpha  occ. eigenvalues --   -0.43069  -0.42877  -0.42633  -0.42512  -0.41873
 Alpha  occ. eigenvalues --   -0.41757  -0.41340  -0.41321  -0.40981  -0.40575
 Alpha  occ. eigenvalues --   -0.40564  -0.40324  -0.40016  -0.39543  -0.39514
 Alpha  occ. eigenvalues --   -0.39300  -0.39205  -0.38915  -0.38876  -0.38442
 Alpha  occ. eigenvalues --   -0.37918  -0.37598  -0.37011  -0.36232  -0.36028
 Alpha  occ. eigenvalues --   -0.35609  -0.35317  -0.35076  -0.33615  -0.32990
 Alpha  occ. eigenvalues --   -0.32584  -0.32468  -0.31699  -0.31476  -0.25826
 Alpha  occ. eigenvalues --   -0.22851
 Alpha virt. eigenvalues --   -0.07010   0.00270   0.02293   0.04342   0.06528
 Alpha virt. eigenvalues --    0.07326   0.07826   0.08256   0.08370   0.09421
 Alpha virt. eigenvalues --    0.10499   0.10618   0.11704   0.12332   0.12721

 Mulliken charges:
               1
     1  Mg   0.965051
     2  C   -0.062382
     3  C   -0.055604
     4  C   -0.080621
     5  C   -0.101230
     6  N   -0.299914
     7  C   -0.005250
     8  C   -0.075998
     9  C   -0.094637
    10  C   -0.001014
    11  C    0.026995
    12  C    0.017930
    13  C   -0.006704
    14  C    0.193263
    15  O   -0.271332
    16  O   -0.353968
    17  N   -0.486972
    18  C    0.188782
    19  C   -0.200243
    20  C   -0.032814
    21  C    0.152262
    22  C    0.105131
    23  C   -0.000405
    24  O   -0.243281
    25  C    0.014003
    26  N   -0.412421
    27  C    0.084368
    28  C   -0.102444
    29  C   -0.075606
    30  C    0.099430
    31  C    0.036325
    32  C    0.030863
    33  C   -0.059037
    34  N   -0.415071
    35  C    0.137758
    36  C   -0.185624
    37  C    0.062664
    38  C    0.153604
    39  C    0.062567
    40  C    0.052133
    41  O   -0.203708
    42  C   -0.053587
    43  C    0.263813
    44  O   -0.217053
    45  O   -0.385789
    46  C    0.129380
    47  C    0.255506
    48  C   -0.163144
    49  C   -0.213650
    50  C    0.049517
    51  C    0.036430
    52  C   -0.051927
    53  C    0.005238
    54  C   -0.195136
    55  C    0.007436
    56  C   -0.001524
    57  C   -0.015968
    58  C    0.011709
    59  C   -0.177768
    60  C    0.000501
    61  C   -0.006170
    62  C    0.007979
    63  C   -0.054460
    64  C   -0.201762
    65  C    0.011904
    66  C    0.011539
    67  H   -0.022659
    68  H    0.022960
    69  H   -0.008922
    70  H    0.040160
    71  H    0.032223
    72  H    0.049585
    73  H    0.029197
    74  H    0.040438
    75  H    0.047314
    76  H    0.042261
    77  H    0.079125
    78  H    0.045607
    79  H    0.056637
    80  H    0.035191
    81  H    0.033215
    82  H    0.047299
    83  H    0.049558
    84  H    0.049163
    85  H    0.040667
    86  H    0.034745
    87  H    0.026993
    88  H    0.055249
    89  H    0.037601
    90  H    0.027729
    91  H    0.017698
    92  H    0.048509
    93  H    0.023529
    94  H    0.029219
    95  H    0.052779
    96  H    0.035877
    97  H    0.057600
    98  H    0.071405
    99  H    0.068546
   100  H    0.058156
   101  H    0.044920
   102  H    0.056374
   103  H    0.073800
   104  H    0.021964
   105  H    0.033315
   106  H    0.045222
   107  H    0.037037
   108  H    0.017215
   109  H    0.047080
   110  H    0.024355
   111  H    0.018842
   112  H    0.025795
   113  H    0.006787
   114  H    0.023114
   115  H    0.040314
   116  H    0.020663
   117  H    0.013048
   118  H    0.026958
   119  H    0.019521
   120  H    0.025577
   121  H    0.020379
   122  H    0.004408
   123  H    0.018172
   124  H    0.009174
   125  H    0.026451
   126  H    0.031891
   127  H    0.029319
   128  H    0.006158
   129  H    0.011705
   130  H    0.027361
   131  H    0.027140
   132  H    0.030082
   133  H    0.031212
   134  H    0.025672
   135  H    0.007355
   136  H    0.004557
   137  H    0.037653
   138  H    0.025705
   139  H    0.033019
   140  H    0.006163
 Sum of Mulliken charges =  -0.00000

 Dipole moment (field-independent basis, Debye):
    X=             -2.7772    Y=              2.3280    Z=             -1.6808  Tot=              3.9946
 Quadrupole moment (field-independent basis, Debye-Ang):
   XX=           -368.6775   YY=           -418.3682   ZZ=           -403.2216
   XY=             -8.5658   XZ=             17.2892   YZ=             -7.4061

 Normal termination of Gaussian 16 at Fri Apr 29 18:45:50 2022.
