 Gaussian 16, Revision A.03,
 Gaussian 16:  ES64L-G16RevA.03 25-Dec-2016

 --------------------
 #p ZINDO=(nstates=5)
 --------------------

 ----------------------------
 step_401_chromophore_7 ZINDO
 ----------------------------
 Symbolic Z-matrix:
 Charge =  0 Multiplicity = 1

                         Standard orientation:
 ---------------------------------------------------------------------
 Center     Atomic      Atomic             Coordinates (Angstroms)
 Number     Number       Type             X           Y           Z
 ---------------------------------------------------------------------
      1         12           0        6.250110    0.437778   -0.071304
      2          6           0        3.720938   -2.224539   -0.098503
      3          6           0        3.861098    2.441141   -1.174565
      4          6           0        8.552367    2.790405    0.037769
      5          6           0        8.551574   -2.028871    0.880485
      6          7           0        3.971615    0.106733   -0.581056
      7          6           0        3.172286   -1.035143   -0.580146
      8          6           0        1.737186   -0.669064   -0.863810
      9          6           0        1.936945    0.808269   -1.551302
     10          6           0        3.332966    1.176738   -1.021911
     11          6           0        1.898070    0.882573   -3.024968
     12          6           0        0.918307   -0.741098    0.536639
     13          6           0       -0.346090   -1.646913    0.497982
     14          6           0       -1.687480   -0.999854    1.031686
     15          8           0       -1.891043   -0.575401    2.151575
     16          8           0       -2.690915   -1.050935    0.141675
     17          7           0        6.168309    2.395638   -0.481422
     18          6           0        5.156055    3.044850   -0.972240
     19          6           0        5.536626    4.428574   -1.142106
     20          6           0        6.895084    4.593765   -0.762988
     21          6           0        7.295733    3.237356   -0.457420
     22          6           0        4.531655    5.451168   -1.573106
     23          6           0        7.661548    5.811907   -0.694547
     24          8           0        8.787126    5.862261   -0.213204
     25          6           0        7.069299    7.088039   -1.140368
     26          7           0        8.290352    0.296002    0.137116
     27          6           0        8.971592    1.494868    0.300122
     28          6           0       10.439671    1.280846    0.746759
     29          6           0       10.367873   -0.226272    1.197800
     30          6           0        9.003726   -0.705333    0.721197
     31          6           0       11.523454    1.600287   -0.273065
     32          6           0       10.789312   -0.467498    2.655150
     33          6           0       12.047281   -1.287302    2.755382
     34          7           0        6.217836   -1.667753    0.281814
     35          6           0        7.220215   -2.469150    0.696769
     36          6           0        6.709505   -3.861428    0.789178
     37          6           0        5.334660   -3.767553    0.614914
     38          6           0        5.061894   -2.469102    0.248916
     39          6           0        7.524528   -5.013619    1.080814
     40          6           0        4.110477   -4.438671    0.653654
     41          8           0        3.873933   -5.607325    0.906002
     42          6           0        2.948436   -3.443297    0.318136
     43          6           0        2.225866   -3.947915   -0.911817
     44          8           0        2.701228   -4.002108   -2.013409
     45          8           0        0.901830   -4.290289   -0.620555
     46          6           0        0.054831   -4.727484   -1.746174
     47          6           0       -4.005616   -0.589691    0.629833
     48          6           0       -5.017010   -1.248126   -0.181153
     49          6           0       -6.268356   -0.835816   -0.432657
     50          6           0       -6.891947    0.345147    0.292704
     51          6           0       -7.134040   -1.438503   -1.523752
     52          6           0       -8.603168   -1.600655   -1.191686
     53          6           0       -9.392493   -0.302643   -1.607567
     54          6           0      -10.847180   -0.669652   -2.111225
     55          6           0      -10.810356   -1.055509   -3.623418
     56          6           0      -11.811586    0.557316   -1.851191
     57          6           0      -13.215992    0.099434   -2.054636
     58          6           0      -14.077683    0.931226   -0.987370
     59          6           0      -14.579072    0.065210    0.206486
     60          6           0      -16.069560   -0.325710    0.019681
     61          6           0      -14.365469    0.715632    1.604870
     62          6           0      -12.981456    0.572682    2.182059
     63          6           0      -12.248127    1.956543    2.037010
     64          6           0      -11.758302    2.454210    3.444204
     65          6           0      -12.796931    3.271388    4.050009
     66          6           0      -10.480804    3.294886    3.271174
     67          1           0        3.095396    3.045382   -1.664535
     68          1           0        9.317251    3.553379    0.191263
     69          1           0        9.251444   -2.794042    1.221728
     70          1           0        1.294181   -1.364639   -1.576587
     71          1           0        1.132198    1.476578   -1.245104
     72          1           0        2.797783    1.294151   -3.482565
     73          1           0        1.059138    1.528607   -3.283217
     74          1           0        1.673127   -0.064530   -3.514768
     75          1           0        0.659139    0.261123    0.875884
     76          1           0        1.555917   -1.143840    1.322813
     77          1           0       -0.074141   -2.489041    1.135148
     78          1           0       -0.527762   -1.889478   -0.548793
     79          1           0        4.376484    6.190746   -0.788076
     80          1           0        3.609951    5.016376   -1.959256
     81          1           0        5.005810    5.911870   -2.440110
     82          1           0        7.715119    7.964679   -1.094008
     83          1           0        6.284111    7.297366   -0.413104
     84          1           0        6.719851    6.958752   -2.164610
     85          1           0       10.581238    1.941775    1.602482
     86          1           0       11.049138   -0.772743    0.544347
     87          1           0       12.410964    1.133197    0.152933
     88          1           0       11.722752    2.662578   -0.411156
     89          1           0       11.360812    1.096475   -1.225617
     90          1           0       10.034755   -0.863910    3.335513
     91          1           0       10.891236    0.523218    3.097939
     92          1           0       12.789010   -1.205251    1.961323
     93          1           0       11.641977   -2.298081    2.806712
     94          1           0       12.531453   -1.292483    3.731822
     95          1           0        7.123632   -5.555437    1.936946
     96          1           0        8.597234   -4.963672    1.271278
     97          1           0        7.353950   -5.687981    0.242409
     98          1           0        2.300689   -3.285356    1.180987
     99          1           0       -0.081160   -5.808308   -1.790921
    100          1           0        0.417221   -4.253088   -2.658132
    101          1           0       -0.956154   -4.329154   -1.652118
    102          1           0       -3.961778    0.492160    0.509160
    103          1           0       -4.225550   -0.916933    1.645528
    104          1           0       -4.633224   -2.134455   -0.686811
    105          1           0       -6.214392    0.831549    0.994380
    106          1           0       -7.770240   -0.016397    0.827072
    107          1           0       -7.292727    1.063920   -0.422102
    108          1           0       -6.832487   -2.485267   -1.573972
    109          1           0       -6.965895   -0.930990   -2.473672
    110          1           0       -8.664335   -1.941317   -0.158162
    111          1           0       -8.944833   -2.505112   -1.694846
    112          1           0       -8.792432    0.358833   -2.231490
    113          1           0       -9.524146    0.254057   -0.679119
    114          1           0      -11.206095   -1.556873   -1.590809
    115          1           0      -11.049687   -2.074291   -3.928220
    116          1           0       -9.847573   -0.701935   -3.992112
    117          1           0      -11.524371   -0.446439   -4.177693
    118          1           0      -11.663852    1.366876   -2.566484
    119          1           0      -11.662613    0.872344   -0.818056
    120          1           0      -13.270683   -0.986912   -1.994436
    121          1           0      -13.489590    0.386673   -3.070061
    122          1           0      -14.975224    1.277330   -1.499360
    123          1           0      -13.617454    1.844043   -0.607380
    124          1           0      -13.991959   -0.852414    0.238850
    125          1           0      -16.200762   -0.670853   -1.005194
    126          1           0      -16.751119    0.504064    0.204488
    127          1           0      -16.291167   -1.144401    0.705421
    128          1           0      -15.083325    0.245740    2.277710
    129          1           0      -14.654379    1.763580    1.521914
    130          1           0      -12.292784   -0.129459    1.713026
    131          1           0      -13.137841    0.304992    3.227181
    132          1           0      -12.875796    2.714518    1.567457
    133          1           0      -11.326028    1.799545    1.476907
    134          1           0      -11.649675    1.624053    4.142270
    135          1           0      -13.616630    2.602611    4.312856
    136          1           0      -13.314169    3.896573    3.322398
    137          1           0      -12.511610    3.933669    4.866618
    138          1           0      -10.183466    3.453542    2.234574
    139          1           0       -9.662729    2.991134    3.924898
    140          1           0      -10.670540    4.311416    3.616109
 ---------------------------------------------------------------------

 SCF Done:  E(RZINDO/S) =  -474.724060087     A.U. after   19 cycles

 Excitation energies and oscillator strengths:

 Excited State   1:      Singlet-A      1.2410 eV  999.03 nm  f=0.6116  <S**2>=0.000
     175 ->178        -0.19265
     176 ->177         0.66066
 This state for optimization and/or second-order correction.
 Total Energy, E(CIS/TDA) =  -474.678452545
 Copying the excited state density for this state as the 1-particle RhoCI density.

 Excited State   2:      Singlet-A      1.8847 eV  657.86 nm  f=0.0465  <S**2>=0.000
     175 ->177         0.54674
     176 ->178         0.41755

 Excited State   3:      Singlet-A      2.9117 eV  425.82 nm  f=0.0023  <S**2>=0.000
     168 ->177         0.30655
     168 ->178        -0.19160
     168 ->179        -0.36561
     168 ->180         0.20754
     168 ->185        -0.15856
     168 ->199         0.10839
     169 ->177         0.11612
     169 ->179        -0.12993
     176 ->179         0.19267

 Excited State   4:      Singlet-A      2.9470 eV  420.71 nm  f=0.6790  <S**2>=0.000
     175 ->177        -0.29972
     176 ->178         0.46125
     176 ->179         0.34906

 Excited State   5:      Singlet-A      2.9515 eV  420.08 nm  f=0.0115  <S**2>=0.000
     170 ->177         0.22952
     170 ->178        -0.13731
     170 ->179         0.30992
     170 ->180         0.35071
     170 ->185         0.14515
     170 ->187        -0.18660
     170 ->200        -0.10894
     176 ->179        -0.24120

 The electronic state is 1-A.
 Alpha  occ. eigenvalues --   -1.84828  -1.82655  -1.80314  -1.75096  -1.72501
 Alpha  occ. eigenvalues --   -1.71702  -1.66830  -1.62406  -1.60749  -1.60237
 Alpha  occ. eigenvalues --   -1.57382  -1.51769  -1.50152  -1.48939  -1.47868
 Alpha  occ. eigenvalues --   -1.44889  -1.42802  -1.41356  -1.40198  -1.38453
 Alpha  occ. eigenvalues --   -1.37737  -1.35434  -1.33690  -1.32827  -1.28962
 Alpha  occ. eigenvalues --   -1.28115  -1.25416  -1.21566  -1.20069  -1.18956
 Alpha  occ. eigenvalues --   -1.17516  -1.16313  -1.15741  -1.15069  -1.12775
 Alpha  occ. eigenvalues --   -1.10984  -1.10624  -1.09941  -1.05740  -1.04212
 Alpha  occ. eigenvalues --   -1.03795  -1.01859  -0.98785  -0.97887  -0.97512
 Alpha  occ. eigenvalues --   -0.96098  -0.94728  -0.93634  -0.92769  -0.91514
 Alpha  occ. eigenvalues --   -0.91162  -0.90493  -0.89187  -0.88694  -0.87351
 Alpha  occ. eigenvalues --   -0.87081  -0.84826  -0.83530  -0.82893  -0.80264
 Alpha  occ. eigenvalues --   -0.79696  -0.79221  -0.77493  -0.77137  -0.76723
 Alpha  occ. eigenvalues --   -0.76274  -0.76152  -0.74906  -0.74345  -0.73822
 Alpha  occ. eigenvalues --   -0.73676  -0.72316  -0.72204  -0.71717  -0.70408
 Alpha  occ. eigenvalues --   -0.70278  -0.69619  -0.69346  -0.68487  -0.68337
 Alpha  occ. eigenvalues --   -0.67888  -0.67753  -0.66747  -0.66209  -0.66070
 Alpha  occ. eigenvalues --   -0.64847  -0.64767  -0.64459  -0.63561  -0.63219
 Alpha  occ. eigenvalues --   -0.63183  -0.62964  -0.62715  -0.62257  -0.61468
 Alpha  occ. eigenvalues --   -0.61344  -0.61117  -0.60506  -0.59839  -0.59730
 Alpha  occ. eigenvalues --   -0.59417  -0.59147  -0.58793  -0.58553  -0.57889
 Alpha  occ. eigenvalues --   -0.57466  -0.57399  -0.57087  -0.56732  -0.56468
 Alpha  occ. eigenvalues --   -0.56026  -0.55573  -0.55304  -0.55141  -0.54621
 Alpha  occ. eigenvalues --   -0.54456  -0.54252  -0.53874  -0.53451  -0.53350
 Alpha  occ. eigenvalues --   -0.53201  -0.52605  -0.52459  -0.51551  -0.51380
 Alpha  occ. eigenvalues --   -0.51130  -0.51013  -0.50719  -0.50352  -0.50214
 Alpha  occ. eigenvalues --   -0.50110  -0.49708  -0.49485  -0.49345  -0.49125
 Alpha  occ. eigenvalues --   -0.49037  -0.48347  -0.48152  -0.48002  -0.47840
 Alpha  occ. eigenvalues --   -0.47657  -0.47097  -0.46895  -0.46779  -0.46504
 Alpha  occ. eigenvalues --   -0.46287  -0.46154  -0.45802  -0.45729  -0.45629
 Alpha  occ. eigenvalues --   -0.45221  -0.44594  -0.44497  -0.44084  -0.43638
 Alpha  occ. eigenvalues --   -0.43603  -0.43130  -0.42615  -0.42279  -0.42232
 Alpha  occ. eigenvalues --   -0.41949  -0.41625  -0.40407  -0.39099  -0.38761
 Alpha  occ. eigenvalues --   -0.38556  -0.37201  -0.35466  -0.35071  -0.34329
 Alpha  occ. eigenvalues --   -0.33109  -0.32501  -0.31979  -0.31806  -0.26476
 Alpha  occ. eigenvalues --   -0.21621
 Alpha virt. eigenvalues --   -0.08526  -0.02145  -0.00645   0.01329   0.02179
 Alpha virt. eigenvalues --    0.02452   0.03064   0.03299   0.04871   0.04969
 Alpha virt. eigenvalues --    0.06453   0.06597   0.07354   0.07679   0.08426

 Mulliken charges:
               1
     1  Mg   0.431778
     2  C   -0.033142
     3  C   -0.088045
     4  C   -0.060591
     5  C   -0.088755
     6  N   -0.296626
     7  C    0.129562
     8  C   -0.001864
     9  C    0.008380
    10  C    0.133210
    11  C   -0.040960
    12  C   -0.025006
    13  C    0.001543
    14  C    0.459060
    15  O   -0.524127
    16  O   -0.269085
    17  N   -0.300381
    18  C    0.109298
    19  C   -0.003545
    20  C   -0.047338
    21  C    0.110437
    22  C   -0.049010
    23  C    0.338512
    24  O   -0.546539
    25  C   -0.028561
    26  N   -0.270484
    27  C    0.111650
    28  C   -0.000226
    29  C    0.006761
    30  C    0.153776
    31  C   -0.043550
    32  C   -0.018146
    33  C   -0.058468
    34  N   -0.338621
    35  C    0.119714
    36  C    0.060908
    37  C   -0.033769
    38  C    0.111044
    39  C   -0.034847
    40  C    0.342393
    41  O   -0.525096
    42  C    0.052175
    43  C    0.490519
    44  O   -0.511702
    45  O   -0.286041
    46  C    0.072932
    47  C    0.115286
    48  C   -0.079855
    49  C   -0.020873
    50  C   -0.047899
    51  C   -0.021570
    52  C   -0.037730
    53  C   -0.040620
    54  C   -0.019232
    55  C   -0.064904
    56  C   -0.034404
    57  C   -0.038425
    58  C   -0.039845
    59  C   -0.016533
    60  C   -0.055823
    61  C   -0.030830
    62  C   -0.037770
    63  C   -0.043082
    64  C   -0.005749
    65  C   -0.048690
    66  C   -0.062183
    67  H    0.012526
    68  H    0.046863
    69  H    0.027796
    70  H    0.037769
    71  H    0.027074
    72  H    0.027998
    73  H    0.011111
    74  H    0.019994
    75  H    0.032819
    76  H    0.027699
    77  H    0.053908
    78  H    0.038794
    79  H    0.036401
    80  H    0.025440
    81  H    0.023359
    82  H    0.033232
    83  H    0.038446
    84  H    0.034836
    85  H    0.030470
    86  H    0.028699
    87  H    0.010330
    88  H    0.031934
    89  H    0.023917
    90  H    0.023785
    91  H    0.013720
    92  H    0.031035
    93  H    0.010424
    94  H    0.016708
    95  H    0.031983
    96  H    0.028368
    97  H    0.037041
    98  H    0.063459
    99  H    0.051328
   100  H    0.048218
   101  H    0.024394
   102  H    0.050288
   103  H    0.062741
   104  H    0.027715
   105  H    0.021529
   106  H    0.028434
   107  H    0.025424
   108  H    0.010376
   109  H    0.035433
   110  H    0.024102
   111  H    0.011913
   112  H    0.033650
   113  H    0.008921
   114  H    0.027472
   115  H    0.027321
   116  H    0.017464
   117  H    0.010391
   118  H    0.025463
   119  H    0.021464
   120  H    0.030346
   121  H    0.015837
   122  H    0.007968
   123  H    0.026597
   124  H    0.016580
   125  H    0.014353
   126  H    0.023188
   127  H    0.014656
   128  H    0.009163
   129  H    0.020603
   130  H    0.025585
   131  H    0.020960
   132  H    0.032791
   133  H    0.012877
   134  H    0.025828
   135  H    0.004223
   136  H    0.008399
   137  H    0.019453
   138  H    0.022198
   139  H    0.019691
   140  H    0.008331
 Sum of Mulliken charges =  -0.00000

 Dipole moment (field-independent basis, Debye):
    X=             -3.7146    Y=              2.3100    Z=             -1.9449  Tot=              4.7872
 N-N= 4.233540427726D+03 E-N= 0.000000000000D+00  KE=-9.141552436278D+03
 Leave Link  601 at Fri Apr 29 18:59:05 2022, MaxMem=  6710886400 cpu:               0.8 elap:               0.1
 (Enter /sw/apps/gaussian-16.0/g16/l9999.exe)
 1\1\GINC-BP1-COMPUTE082\SP\RZINDO CIS\STO-3G\C55H74Mg1N4O6\OF15641\29-
 Apr-2022\0\\#p ZINDO=(nstates=5)\\step_401_chromophore_7 ZINDO\\0,1\Mg
 ,0,25.965,0.373,28.861\C,0,27.891,-0.209,31.933\C,0,23.329,0.742,30.82
 4\C,0,24.312,0.948,26.071\C,0,28.926,-0.303,27.111\N,0,25.665,0.276,31
 .198\C,0,26.542,-0.024,32.239\C,0,25.865,0.186,33.57\C,0,24.289,0.147,
 33.112\C,0,24.425,0.467,31.614\C,0,23.554,-1.117,33.314\C,0,26.429,1.5
 71,34.203\C,0,27.007,1.434,35.641\C,0,26.466,2.463,36.714\O,0,26.565,3

 Normal termination of Gaussian 16 at Fri Apr 29 18:59:05 2022.
