 Gaussian 16, Revision A.03,
 Gaussian 16:  ES64L-G16RevA.03 25-Dec-2016

 ------------------------------
 #p blyp/Def2SVP td=(nstates=5)
 ------------------------------

 -------------------------------------------------
 step_651_chromophore_2 TDDFT with blyp functional
 -------------------------------------------------
 Symbolic Z-matrix:
 Charge =  0 Multiplicity = 1

                         Standard orientation:
 ---------------------------------------------------------------------
 Center     Atomic      Atomic             Coordinates (Angstroms)
 Number     Number       Type             X           Y           Z
 ---------------------------------------------------------------------
      1         12           0        5.076928    1.062224   -0.377544
      2          6           0        5.029190   -2.345213   -0.374795
      3          6           0        2.424527    0.974319   -2.704213
      4          6           0        4.798279    4.391102   -0.099054
      5          6           0        7.337592    1.061342    2.343567
      6          7           0        3.783486   -0.522892   -1.378489
      7          6           0        3.882745   -1.859903   -1.054214
      8          6           0        2.665765   -2.682071   -1.588774
      9          6           0        2.095064   -1.614684   -2.598634
     10          6           0        2.689728   -0.291371   -2.141507
     11          6           0        2.308458   -1.984889   -4.123588
     12          6           0        1.766236   -2.971592   -0.341807
     13          6           0        1.321164   -4.458479   -0.166851
     14          6           0       -0.115940   -4.799353   -0.276656
     15          8           0       -0.667183   -5.263018   -1.252533
     16          8           0       -0.688776   -4.470402    0.889906
     17          7           0        3.845935    2.541137   -1.403719
     18          6           0        2.873103    2.301958   -2.387505
     19          6           0        2.534559    3.517580   -3.018329
     20          6           0        3.077385    4.543167   -2.082116
     21          6           0        3.881933    3.863583   -1.078427
     22          6           0        1.612097    3.650427   -4.219544
     23          6           0        2.762562    5.973168   -2.226653
     24          8           0        2.137423    6.380091   -3.147454
     25          6           0        3.281766    7.018221   -1.238238
     26          7           0        5.665135    2.449731    1.139004
     27          6           0        5.563700    3.782859    0.920400
     28          6           0        6.371876    4.674055    1.848745
     29          6           0        7.070614    3.610788    2.751968
     30          6           0        6.669025    2.262346    2.097014
     31          6           0        7.389965    5.664128    1.119638
     32          6           0        6.903544    3.759079    4.269570
     33          6           0        8.226749    3.749617    5.089412
     34          7           0        6.111414   -0.376056    0.718936
     35          6           0        7.096458   -0.251547    1.666338
     36          6           0        7.731238   -1.522368    1.963693
     37          6           0        6.986697   -2.437610    1.122649
     38          6           0        5.979647   -1.635340    0.464353
     39          6           0        8.917474   -1.551952    2.861256
     40          6           0        6.725625   -3.762785    0.755374
     41          8           0        7.141663   -4.882675    1.140172
     42          6           0        5.457574   -3.714503   -0.239382
     43          6           0        5.747494   -4.394005   -1.548679
     44          8           0        6.132362   -5.579586   -1.609181
     45          8           0        5.669017   -3.537401   -2.600920
     46          6           0        5.959625   -4.089452   -3.852591
     47          6           0       -2.098020   -4.565606    0.924651
     48          6           0       -2.749529   -3.212397    1.243595
     49          6           0       -3.380034   -2.852661    2.360512
     50          6           0       -3.387339   -3.628755    3.679034
     51          6           0       -4.258589   -1.569134    2.377860
     52          6           0       -5.623387   -1.798110    1.701366
     53          6           0       -6.600196   -0.603028    1.834185
     54          6           0       -6.851874    0.186339    0.492174
     55          6           0       -5.753280    1.240496    0.204186
     56          6           0       -8.226357    0.993990    0.589573
     57          6           0       -9.502755    0.327455   -0.104890
     58          6           0      -10.558688    1.356748   -0.462049
     59          6           0      -11.937856    0.719628   -0.696035
     60          6           0      -12.363947    0.814339   -2.234752
     61          6           0      -13.041769    1.328663    0.128556
     62          6           0      -14.242823    0.394027    0.438766
     63          6           0      -15.500832    1.141196    0.024530
     64          6           0      -16.813493    0.578459    0.593198
     65          6           0      -18.013270    1.240471   -0.146786
     66          6           0      -16.994727    0.463994    2.117205
     67          1           0        1.687714    0.984780   -3.511383
     68          1           0        4.941264    5.473372   -0.077129
     69          1           0        8.183104    1.231504    3.013053
     70          1           0        2.989994   -3.509031   -2.220415
     71          1           0        1.024899   -1.504948   -2.424042
     72          1           0        1.322381   -1.879300   -4.576213
     73          1           0        2.571894   -3.041104   -4.168513
     74          1           0        3.141923   -1.340602   -4.404627
     75          1           0        0.769087   -2.546674   -0.455282
     76          1           0        2.239694   -2.505393    0.522029
     77          1           0        1.747469   -4.923841    0.721552
     78          1           0        1.716208   -4.964829   -1.048145
     79          1           0        1.610740    4.625064   -4.707935
     80          1           0        0.641454    3.465072   -3.761469
     81          1           0        1.752485    2.820479   -4.912401
     82          1           0        4.279242    7.337470   -1.537173
     83          1           0        3.251895    6.845919   -0.162022
     84          1           0        2.680813    7.925800   -1.298127
     85          1           0        5.662450    5.258246    2.435132
     86          1           0        8.135897    3.741018    2.561176
     87          1           0        8.413759    5.508043    1.458664
     88          1           0        7.191072    6.634214    1.576296
     89          1           0        7.364320    5.558040    0.035011
     90          1           0        6.401237    2.856307    4.617646
     91          1           0        6.336980    4.638974    4.574385
     92          1           0        8.992986    3.433964    4.381755
     93          1           0        8.028052    2.959014    5.812961
     94          1           0        8.446775    4.747257    5.471694
     95          1           0        9.634761   -0.752125    2.677834
     96          1           0        9.442833   -2.487707    2.668833
     97          1           0        8.499625   -1.432568    3.860481
     98          1           0        4.574679   -4.248220    0.111863
     99          1           0        5.072100   -4.108095   -4.485814
    100          1           0        6.434422   -5.067557   -3.926972
    101          1           0        6.614946   -3.370276   -4.344350
    102          1           0       -2.310477   -5.296262    1.706493
    103          1           0       -2.506647   -4.808814   -0.055433
    104          1           0       -2.799551   -2.567653    0.366278
    105          1           0       -2.669327   -4.445383    3.755143
    106          1           0       -4.395021   -4.038905    3.750477
    107          1           0       -3.292117   -2.945841    4.524278
    108          1           0       -3.766017   -0.750173    1.853901
    109          1           0       -4.469839   -1.176626    3.372384
    110          1           0       -5.820652   -2.713041    2.258391
    111          1           0       -5.402753   -2.033057    0.659633
    112          1           0       -6.196015    0.085661    2.575197
    113          1           0       -7.553609   -1.022206    2.154062
    114          1           0       -7.097642   -0.555197   -0.267901
    115          1           0       -4.786963    0.939665    0.610220
    116          1           0       -6.085734    2.169633    0.664103
    117          1           0       -5.642784    1.388347   -0.870123
    118          1           0       -8.208230    1.979088    0.124718
    119          1           0       -8.473620    1.068054    1.649233
    120          1           0       -9.924996   -0.385311    0.603204
    121          1           0       -9.215095   -0.253861   -0.980003
    122          1           0      -10.261076    1.942574   -1.331419
    123          1           0      -10.712542    2.059825    0.356984
    124          1           0      -11.901296   -0.337018   -0.431812
    125          1           0      -11.946470    1.735783   -2.639998
    126          1           0      -13.436519    0.968690   -2.343891
    127          1           0      -11.904998    0.051807   -2.864052
    128          1           0      -13.395012    2.275782   -0.279487
    129          1           0      -12.560942    1.652193    1.051916
    130          1           0      -14.271245    0.198811    1.510753
    131          1           0      -14.203908   -0.337002   -0.368927
    132          1           0      -15.559284    1.165882   -1.063405
    133          1           0      -15.407720    2.176241    0.353382
    134          1           0      -16.784654   -0.463596    0.275997
    135          1           0      -18.870700    1.227872    0.526404
    136          1           0      -18.271552    0.767040   -1.093766
    137          1           0      -17.806867    2.287928   -0.363114
    138          1           0      -16.804757   -0.570603    2.403662
    139          1           0      -18.032480    0.606076    2.415912
    140          1           0      -16.359526    1.104733    2.728943
 ---------------------------------------------------------------------

 SCF Done:  E(RB-LYP) =  -3007.35329412     A.U. after   21 cycles

 Excitation energies and oscillator strengths:

 Excited State   1:      Singlet-A      1.5419 eV  804.11 nm  f=0.0108  <S**2>=0.000
     243 -> 247        0.40535
     244 -> 247       -0.39800
     245 -> 247        0.41643
 This state for optimization and/or second-order correction.
 Total Energy, E(TD-HF/TD-DFT) =  -3007.29663115
 Copying the excited state density for this state as the 1-particle RhoCI density.

 Excited State   2:      Singlet-A      1.5833 eV  783.09 nm  f=0.0002  <S**2>=0.000
     243 -> 247        0.47409
     244 -> 247        0.52291

 Excited State   3:      Singlet-A      1.7895 eV  692.84 nm  f=0.2782  <S**2>=0.000
     245 -> 247       -0.18388
     245 -> 248        0.17726
     246 -> 247        0.65065
     246 <- 247       -0.14240

 Excited State   4:      Singlet-A      1.8455 eV  671.82 nm  f=0.1036  <S**2>=0.000
     242 -> 247       -0.15590
     243 -> 247       -0.30491
     244 -> 247        0.24287
     245 -> 247        0.48423
     246 -> 247        0.22816
     246 -> 248       -0.15069

 Excited State   5:      Singlet-A      2.0704 eV  598.85 nm  f=0.0211  <S**2>=0.000
     242 -> 247        0.67520
     245 -> 247        0.13080

 The electronic state is 1-A.
 Alpha  occ. eigenvalues --  -46.28901 -18.83446 -18.82506 -18.77056 -18.75989
 Alpha  occ. eigenvalues --  -18.75065 -18.74689 -14.04104 -14.03631 -14.01675
 Alpha  occ. eigenvalues --  -14.00909 -10.03861 -10.03859  -9.99450  -9.98799
 Alpha  occ. eigenvalues --   -9.97597  -9.97495  -9.97353  -9.97118  -9.97069
 Alpha  occ. eigenvalues --   -9.96994  -9.96431  -9.96401  -9.95827  -9.95329
 Alpha  occ. eigenvalues --   -9.95073  -9.94721  -9.94575  -9.94404  -9.94313
 Alpha  occ. eigenvalues --   -9.94304  -9.94007  -9.93911  -9.93811  -9.93721
 Alpha  occ. eigenvalues --   -9.93648  -9.93475  -9.93442  -9.93398  -9.93091
 Alpha  occ. eigenvalues --   -9.93056  -9.92923  -9.92899  -9.92842  -9.92655
 Alpha  occ. eigenvalues --   -9.92448  -9.92422  -9.92399  -9.92343  -9.92139
 Alpha  occ. eigenvalues --   -9.91975  -9.91794  -9.91760  -9.91620  -9.91487
 Alpha  occ. eigenvalues --   -9.91419  -9.91298  -9.91275  -9.91142  -9.91030
 Alpha  occ. eigenvalues --   -9.90951  -9.90875  -9.90815  -9.90655  -9.90568
 Alpha  occ. eigenvalues --   -9.90381  -2.93274  -1.73695  -1.73175  -1.72974
 Alpha  occ. eigenvalues --   -0.99983  -0.99482  -0.93048  -0.91278  -0.89493
 Alpha  occ. eigenvalues --   -0.88691  -0.87724  -0.86347  -0.85923  -0.84542
 Alpha  occ. eigenvalues --   -0.76311  -0.73807  -0.73324  -0.73061  -0.72794
 Alpha  occ. eigenvalues --   -0.71921  -0.71810  -0.71088  -0.70916  -0.70764
 Alpha  occ. eigenvalues --   -0.69949  -0.69013  -0.68132  -0.68041  -0.67415
 Alpha  occ. eigenvalues --   -0.66849  -0.66503  -0.65328  -0.64883  -0.64466
 Alpha  occ. eigenvalues --   -0.64066  -0.63110  -0.62167  -0.61830  -0.60948
 Alpha  occ. eigenvalues --   -0.60776  -0.60519  -0.60276  -0.59407  -0.59096
 Alpha  occ. eigenvalues --   -0.58553  -0.58263  -0.56865  -0.56122  -0.54840
 Alpha  occ. eigenvalues --   -0.54746  -0.53718  -0.53080  -0.52307  -0.51975
 Alpha  occ. eigenvalues --   -0.51715  -0.51027  -0.50938  -0.50663  -0.50390
 Alpha  occ. eigenvalues --   -0.50025  -0.49886  -0.49152  -0.48172  -0.46655
 Alpha  occ. eigenvalues --   -0.46532  -0.46256  -0.45804  -0.45662  -0.44730
 Alpha  occ. eigenvalues --   -0.44553  -0.44253  -0.43656  -0.43525  -0.43134
 Alpha  occ. eigenvalues --   -0.42866  -0.42667  -0.42316  -0.41951  -0.41772
 Alpha  occ. eigenvalues --   -0.40999  -0.40806  -0.40765  -0.40228  -0.40109
 Alpha  occ. eigenvalues --   -0.40015  -0.39886  -0.39634  -0.39533  -0.39157
 Alpha  occ. eigenvalues --   -0.38934  -0.38849  -0.38694  -0.38688  -0.38338
 Alpha  occ. eigenvalues --   -0.38256  -0.38161  -0.37855  -0.37531  -0.37270
 Alpha  occ. eigenvalues --   -0.37073  -0.36976  -0.36797  -0.36603  -0.36450
 Alpha  occ. eigenvalues --   -0.36347  -0.36136  -0.35928  -0.35700  -0.35581
 Alpha  occ. eigenvalues --   -0.35304  -0.35222  -0.35146  -0.35073  -0.35001
 Alpha  occ. eigenvalues --   -0.34669  -0.34423  -0.34405  -0.34336  -0.34142
 Alpha  occ. eigenvalues --   -0.33854  -0.33717  -0.33634  -0.33583  -0.33412
 Alpha  occ. eigenvalues --   -0.33278  -0.33065  -0.32841  -0.32597  -0.32322
 Alpha  occ. eigenvalues --   -0.32187  -0.32005  -0.31738  -0.31553  -0.31325
 Alpha  occ. eigenvalues --   -0.31234  -0.31127  -0.31112  -0.30896  -0.30717
 Alpha  occ. eigenvalues --   -0.30568  -0.30527  -0.30320  -0.30271  -0.30103
 Alpha  occ. eigenvalues --   -0.30045  -0.29710  -0.29567  -0.29180  -0.29091
 Alpha  occ. eigenvalues --   -0.28764  -0.28743  -0.28358  -0.28251  -0.28014
 Alpha  occ. eigenvalues --   -0.27891  -0.27786  -0.26934  -0.26823  -0.26706
 Alpha  occ. eigenvalues --   -0.26396  -0.26323  -0.26052  -0.25979  -0.25629
 Alpha  occ. eigenvalues --   -0.25346  -0.24971  -0.24911  -0.24345  -0.23939
 Alpha  occ. eigenvalues --   -0.23648  -0.22855  -0.22400  -0.21436  -0.20938
 Alpha  occ. eigenvalues --   -0.20844  -0.19404  -0.18214  -0.18165  -0.17168
 Alpha  occ. eigenvalues --   -0.16653
 Alpha virt. eigenvalues --   -0.12438  -0.07048  -0.06641  -0.04750  -0.03671
 Alpha virt. eigenvalues --   -0.03084  -0.02699  -0.02310  -0.01895   0.00009
 Alpha virt. eigenvalues --    0.00491   0.01330   0.01960   0.02296   0.02763

 Mulliken charges:
               1
     1  Mg   0.681715
     2  C    0.085278
     3  C   -0.048734
     4  C   -0.052058
     5  C   -0.053055
     6  N   -0.200429
     7  C   -0.088385
     8  C    0.012987
     9  C   -0.020642
    10  C    0.025667
    11  C    0.152023
    12  C    0.146402
    13  C    0.151770
    14  C    0.010065
    15  O   -0.175275
    16  O   -0.235360
    17  N   -0.293647
    18  C    0.109176
    19  C   -0.129732
    20  C    0.010544
    21  C    0.168455
    22  C    0.181483
    23  C   -0.106081
    24  O   -0.133299
    25  C    0.111412
    26  N   -0.241150
    27  C   -0.012206
    28  C   -0.008957
    29  C    0.039501
    30  C    0.020727
    31  C    0.125772
    32  C    0.089861
    33  C    0.055490
    34  N   -0.205710
    35  C    0.074909
    36  C   -0.172312
    37  C    0.145382
    38  C   -0.028298
    39  C    0.180557
    40  C   -0.050753
    41  O   -0.147818
    42  C    0.008775
    43  C    0.079644
    44  O   -0.184875
    45  O   -0.226279
    46  C    0.203579
    47  C    0.320833
    48  C   -0.100044
    49  C   -0.128969
    50  C    0.149541
    51  C    0.067517
    52  C    0.078454
    53  C    0.121549
    54  C   -0.061576
    55  C    0.122669
    56  C    0.065392
    57  C    0.035568
    58  C    0.138678
    59  C   -0.079532
    60  C    0.095837
    61  C    0.078643
    62  C    0.160990
    63  C    0.002879
    64  C   -0.052949
    65  C    0.107974
    66  C    0.104123
    67  H   -0.064074
    68  H   -0.070542
    69  H   -0.064786
    70  H   -0.014082
    71  H   -0.037393
    72  H    0.007146
    73  H   -0.004188
    74  H    0.010981
    75  H   -0.014435
    76  H    0.004508
    77  H    0.007466
    78  H   -0.021328
    79  H    0.023711
    80  H    0.003022
    81  H   -0.010243
    82  H    0.009594
    83  H   -0.002698
    84  H   -0.023943
    85  H   -0.012558
    86  H   -0.031043
    87  H   -0.014996
    88  H   -0.007243
    89  H    0.016086
    90  H   -0.022555
    91  H   -0.019229
    92  H   -0.010852
    93  H    0.001892
    94  H    0.005263
    95  H    0.002706
    96  H    0.012553
    97  H    0.009828
    98  H    0.005924
    99  H   -0.001597
   100  H    0.028566
   101  H    0.000097
   102  H   -0.016972
   103  H   -0.002068
   104  H   -0.041969
   105  H   -0.000133
   106  H   -0.004199
   107  H   -0.001801
   108  H   -0.022558
   109  H   -0.037141
   110  H   -0.036110
   111  H   -0.026229
   112  H   -0.031535
   113  H   -0.028827
   114  H   -0.037714
   115  H   -0.022526
   116  H   -0.006319
   117  H   -0.009388
   118  H   -0.023447
   119  H   -0.029298
   120  H   -0.031103
   121  H   -0.028042
   122  H   -0.033445
   123  H   -0.042865
   124  H   -0.035834
   125  H   -0.031872
   126  H   -0.016617
   127  H   -0.013760
   128  H   -0.042477
   129  H   -0.054475
   130  H   -0.024186
   131  H   -0.026395
   132  H   -0.027325
   133  H   -0.033978
   134  H   -0.048225
   135  H   -0.028607
   136  H   -0.011898
   137  H   -0.021500
   138  H   -0.018217
   139  H   -0.024355
   140  H   -0.011844
 Sum of Mulliken charges =  -0.00000

 Dipole moment (field-independent basis, Debye):
    X=             -0.7142    Y=              5.0023    Z=              2.3020  Tot=              5.5527
 Quadrupole moment (field-independent basis, Debye-Ang):
   XX=           -390.6223   YY=           -459.9569   ZZ=           -390.9024
   XY=             59.4141   XZ=             -3.6091   YZ=             21.9197

 Normal termination of Gaussian 16 at Sat Apr 30 07:55:47 2022.
