 Gaussian 16, Revision A.03,
 Gaussian 16:  ES64L-G16RevA.03 25-Dec-2016

 -----------------------------------
 #p cam-b3lyp/Def2SVP td=(nstates=5)
 -----------------------------------

 ------------------------------------------------------
 step_651_chromophore_2 TDDFT with cam-b3lyp functional
 ------------------------------------------------------
 Symbolic Z-matrix:
 Charge =  0 Multiplicity = 1

                         Standard orientation:
 ---------------------------------------------------------------------
 Center     Atomic      Atomic             Coordinates (Angstroms)
 Number     Number       Type             X           Y           Z
 ---------------------------------------------------------------------
      1         12           0        5.076928    1.062224   -0.377544
      2          6           0        5.029190   -2.345213   -0.374795
      3          6           0        2.424527    0.974319   -2.704213
      4          6           0        4.798279    4.391102   -0.099054
      5          6           0        7.337592    1.061342    2.343567
      6          7           0        3.783486   -0.522892   -1.378489
      7          6           0        3.882745   -1.859903   -1.054214
      8          6           0        2.665765   -2.682071   -1.588774
      9          6           0        2.095064   -1.614684   -2.598634
     10          6           0        2.689728   -0.291371   -2.141507
     11          6           0        2.308458   -1.984889   -4.123588
     12          6           0        1.766236   -2.971592   -0.341807
     13          6           0        1.321164   -4.458479   -0.166851
     14          6           0       -0.115940   -4.799353   -0.276656
     15          8           0       -0.667183   -5.263018   -1.252533
     16          8           0       -0.688776   -4.470402    0.889906
     17          7           0        3.845935    2.541137   -1.403719
     18          6           0        2.873103    2.301958   -2.387505
     19          6           0        2.534559    3.517580   -3.018329
     20          6           0        3.077385    4.543167   -2.082116
     21          6           0        3.881933    3.863583   -1.078427
     22          6           0        1.612097    3.650427   -4.219544
     23          6           0        2.762562    5.973168   -2.226653
     24          8           0        2.137423    6.380091   -3.147454
     25          6           0        3.281766    7.018221   -1.238238
     26          7           0        5.665135    2.449731    1.139004
     27          6           0        5.563700    3.782859    0.920400
     28          6           0        6.371876    4.674055    1.848745
     29          6           0        7.070614    3.610788    2.751968
     30          6           0        6.669025    2.262346    2.097014
     31          6           0        7.389965    5.664128    1.119638
     32          6           0        6.903544    3.759079    4.269570
     33          6           0        8.226749    3.749617    5.089412
     34          7           0        6.111414   -0.376056    0.718936
     35          6           0        7.096458   -0.251547    1.666338
     36          6           0        7.731238   -1.522368    1.963693
     37          6           0        6.986697   -2.437610    1.122649
     38          6           0        5.979647   -1.635340    0.464353
     39          6           0        8.917474   -1.551952    2.861256
     40          6           0        6.725625   -3.762785    0.755374
     41          8           0        7.141663   -4.882675    1.140172
     42          6           0        5.457574   -3.714503   -0.239382
     43          6           0        5.747494   -4.394005   -1.548679
     44          8           0        6.132362   -5.579586   -1.609181
     45          8           0        5.669017   -3.537401   -2.600920
     46          6           0        5.959625   -4.089452   -3.852591
     47          6           0       -2.098020   -4.565606    0.924651
     48          6           0       -2.749529   -3.212397    1.243595
     49          6           0       -3.380034   -2.852661    2.360512
     50          6           0       -3.387339   -3.628755    3.679034
     51          6           0       -4.258589   -1.569134    2.377860
     52          6           0       -5.623387   -1.798110    1.701366
     53          6           0       -6.600196   -0.603028    1.834185
     54          6           0       -6.851874    0.186339    0.492174
     55          6           0       -5.753280    1.240496    0.204186
     56          6           0       -8.226357    0.993990    0.589573
     57          6           0       -9.502755    0.327455   -0.104890
     58          6           0      -10.558688    1.356748   -0.462049
     59          6           0      -11.937856    0.719628   -0.696035
     60          6           0      -12.363947    0.814339   -2.234752
     61          6           0      -13.041769    1.328663    0.128556
     62          6           0      -14.242823    0.394027    0.438766
     63          6           0      -15.500832    1.141196    0.024530
     64          6           0      -16.813493    0.578459    0.593198
     65          6           0      -18.013270    1.240471   -0.146786
     66          6           0      -16.994727    0.463994    2.117205
     67          1           0        1.687714    0.984780   -3.511383
     68          1           0        4.941264    5.473372   -0.077129
     69          1           0        8.183104    1.231504    3.013053
     70          1           0        2.989994   -3.509031   -2.220415
     71          1           0        1.024899   -1.504948   -2.424042
     72          1           0        1.322381   -1.879300   -4.576213
     73          1           0        2.571894   -3.041104   -4.168513
     74          1           0        3.141923   -1.340602   -4.404627
     75          1           0        0.769087   -2.546674   -0.455282
     76          1           0        2.239694   -2.505393    0.522029
     77          1           0        1.747469   -4.923841    0.721552
     78          1           0        1.716208   -4.964829   -1.048145
     79          1           0        1.610740    4.625064   -4.707935
     80          1           0        0.641454    3.465072   -3.761469
     81          1           0        1.752485    2.820479   -4.912401
     82          1           0        4.279242    7.337470   -1.537173
     83          1           0        3.251895    6.845919   -0.162022
     84          1           0        2.680813    7.925800   -1.298127
     85          1           0        5.662450    5.258246    2.435132
     86          1           0        8.135897    3.741018    2.561176
     87          1           0        8.413759    5.508043    1.458664
     88          1           0        7.191072    6.634214    1.576296
     89          1           0        7.364320    5.558040    0.035011
     90          1           0        6.401237    2.856307    4.617646
     91          1           0        6.336980    4.638974    4.574385
     92          1           0        8.992986    3.433964    4.381755
     93          1           0        8.028052    2.959014    5.812961
     94          1           0        8.446775    4.747257    5.471694
     95          1           0        9.634761   -0.752125    2.677834
     96          1           0        9.442833   -2.487707    2.668833
     97          1           0        8.499625   -1.432568    3.860481
     98          1           0        4.574679   -4.248220    0.111863
     99          1           0        5.072100   -4.108095   -4.485814
    100          1           0        6.434422   -5.067557   -3.926972
    101          1           0        6.614946   -3.370276   -4.344350
    102          1           0       -2.310477   -5.296262    1.706493
    103          1           0       -2.506647   -4.808814   -0.055433
    104          1           0       -2.799551   -2.567653    0.366278
    105          1           0       -2.669327   -4.445383    3.755143
    106          1           0       -4.395021   -4.038905    3.750477
    107          1           0       -3.292117   -2.945841    4.524278
    108          1           0       -3.766017   -0.750173    1.853901
    109          1           0       -4.469839   -1.176626    3.372384
    110          1           0       -5.820652   -2.713041    2.258391
    111          1           0       -5.402753   -2.033057    0.659633
    112          1           0       -6.196015    0.085661    2.575197
    113          1           0       -7.553609   -1.022206    2.154062
    114          1           0       -7.097642   -0.555197   -0.267901
    115          1           0       -4.786963    0.939665    0.610220
    116          1           0       -6.085734    2.169633    0.664103
    117          1           0       -5.642784    1.388347   -0.870123
    118          1           0       -8.208230    1.979088    0.124718
    119          1           0       -8.473620    1.068054    1.649233
    120          1           0       -9.924996   -0.385311    0.603204
    121          1           0       -9.215095   -0.253861   -0.980003
    122          1           0      -10.261076    1.942574   -1.331419
    123          1           0      -10.712542    2.059825    0.356984
    124          1           0      -11.901296   -0.337018   -0.431812
    125          1           0      -11.946470    1.735783   -2.639998
    126          1           0      -13.436519    0.968690   -2.343891
    127          1           0      -11.904998    0.051807   -2.864052
    128          1           0      -13.395012    2.275782   -0.279487
    129          1           0      -12.560942    1.652193    1.051916
    130          1           0      -14.271245    0.198811    1.510753
    131          1           0      -14.203908   -0.337002   -0.368927
    132          1           0      -15.559284    1.165882   -1.063405
    133          1           0      -15.407720    2.176241    0.353382
    134          1           0      -16.784654   -0.463596    0.275997
    135          1           0      -18.870700    1.227872    0.526404
    136          1           0      -18.271552    0.767040   -1.093766
    137          1           0      -17.806867    2.287928   -0.363114
    138          1           0      -16.804757   -0.570603    2.403662
    139          1           0      -18.032480    0.606076    2.415912
    140          1           0      -16.359526    1.104733    2.728943
 ---------------------------------------------------------------------

 SCF Done:  E(RCAM-B3LYP) =  -3007.14110277     A.U. after   17 cycles

 Excitation energies and oscillator strengths:

 Excited State   1:      Singlet-A      1.6948 eV  731.56 nm  f=0.3860  <S**2>=0.000
     245 -> 248       -0.17951
     246 -> 247        0.68558
     245 <- 248       -0.10506
 This state for optimization and/or second-order correction.
 Total Energy, E(TD-HF/TD-DFT) =  -3007.07881994
 Copying the excited state density for this state as the 1-particle RhoCI density.

 Excited State   2:      Singlet-A      2.0446 eV  606.41 nm  f=0.1722  <S**2>=0.000
     245 -> 247        0.66829
     246 -> 248        0.20113

 Excited State   3:      Singlet-A      2.7992 eV  442.92 nm  f=0.0188  <S**2>=0.000
     244 -> 247        0.68707

 Excited State   4:      Singlet-A      3.1017 eV  399.73 nm  f=0.0034  <S**2>=0.000
     242 -> 247        0.19897
     242 -> 249        0.13632
     243 -> 247        0.55809
     243 -> 249        0.23016
     243 -> 251        0.10017

 Excited State   5:      Singlet-A      3.3550 eV  369.55 nm  f=0.0001  <S**2>=0.000
     241 -> 247        0.61678
     241 -> 249       -0.21525
     241 -> 251        0.20550
     242 -> 247        0.10071

 The electronic state is 1-A.
 Alpha  occ. eigenvalues --  -46.90575 -19.26407 -19.25371 -19.20073 -19.19050
 Alpha  occ. eigenvalues --  -19.18078 -19.17841 -14.43433 -14.42238 -14.40026
 Alpha  occ. eigenvalues --  -14.39475 -10.39361 -10.39113 -10.34609 -10.34092
 Alpha  occ. eigenvalues --  -10.31861 -10.31785 -10.31771 -10.31539 -10.31475
 Alpha  occ. eigenvalues --  -10.31316 -10.31312 -10.30536 -10.30389 -10.29485
 Alpha  occ. eigenvalues --  -10.29395 -10.29254 -10.28810 -10.28570 -10.28564
 Alpha  occ. eigenvalues --  -10.28518 -10.28474 -10.28267 -10.27862 -10.27844
 Alpha  occ. eigenvalues --  -10.27761 -10.27538 -10.27271 -10.27263 -10.27010
 Alpha  occ. eigenvalues --  -10.26987 -10.26857 -10.26537 -10.26521 -10.26496
 Alpha  occ. eigenvalues --  -10.26474 -10.26467 -10.26237 -10.26027 -10.25912
 Alpha  occ. eigenvalues --  -10.25745 -10.25697 -10.25447 -10.25349 -10.25327
 Alpha  occ. eigenvalues --  -10.25233 -10.25073 -10.25062 -10.24987 -10.24686
 Alpha  occ. eigenvalues --  -10.24549 -10.24528 -10.24492 -10.24336 -10.24189
 Alpha  occ. eigenvalues --  -10.24053  -3.18840  -1.93743  -1.93307  -1.93124
 Alpha  occ. eigenvalues --   -1.18524  -1.17972  -1.11743  -1.09260  -1.07522
 Alpha  occ. eigenvalues --   -1.06620  -1.05266  -1.04217  -1.03507  -1.02304
 Alpha  occ. eigenvalues --   -0.93482  -0.90700  -0.90185  -0.89889  -0.89405
 Alpha  occ. eigenvalues --   -0.88695  -0.88523  -0.87623  -0.87489  -0.87285
 Alpha  occ. eigenvalues --   -0.86432  -0.85721  -0.84469  -0.84164  -0.83667
 Alpha  occ. eigenvalues --   -0.82876  -0.82561  -0.81240  -0.80680  -0.80517
 Alpha  occ. eigenvalues --   -0.79894  -0.78765  -0.77743  -0.77527  -0.76510
 Alpha  occ. eigenvalues --   -0.76127  -0.75873  -0.75662  -0.74697  -0.74287
 Alpha  occ. eigenvalues --   -0.73654  -0.73372  -0.71839  -0.71017  -0.69502
 Alpha  occ. eigenvalues --   -0.69228  -0.68312  -0.67657  -0.66662  -0.66183
 Alpha  occ. eigenvalues --   -0.65834  -0.65176  -0.65051  -0.64705  -0.64376
 Alpha  occ. eigenvalues --   -0.63966  -0.63825  -0.63138  -0.62032  -0.60247
 Alpha  occ. eigenvalues --   -0.60116  -0.59883  -0.59338  -0.59112  -0.58200
 Alpha  occ. eigenvalues --   -0.57991  -0.57875  -0.56941  -0.56727  -0.56454
 Alpha  occ. eigenvalues --   -0.56153  -0.55748  -0.55278  -0.55090  -0.54614
 Alpha  occ. eigenvalues --   -0.53871  -0.53797  -0.53377  -0.53025  -0.52858
 Alpha  occ. eigenvalues --   -0.52706  -0.52388  -0.52367  -0.52021  -0.51860
 Alpha  occ. eigenvalues --   -0.51683  -0.51494  -0.51171  -0.51097  -0.50794
 Alpha  occ. eigenvalues --   -0.50584  -0.50482  -0.50364  -0.49823  -0.49729
 Alpha  occ. eigenvalues --   -0.49508  -0.49361  -0.49026  -0.48889  -0.48809
 Alpha  occ. eigenvalues --   -0.48595  -0.48562  -0.48165  -0.47842  -0.47606
 Alpha  occ. eigenvalues --   -0.47535  -0.47253  -0.47209  -0.47177  -0.46876
 Alpha  occ. eigenvalues --   -0.46593  -0.46480  -0.46399  -0.46204  -0.46138
 Alpha  occ. eigenvalues --   -0.45777  -0.45584  -0.45435  -0.45371  -0.45063
 Alpha  occ. eigenvalues --   -0.44887  -0.44569  -0.44457  -0.44208  -0.43875
 Alpha  occ. eigenvalues --   -0.43755  -0.43585  -0.43336  -0.43226  -0.43126
 Alpha  occ. eigenvalues --   -0.42998  -0.42633  -0.42467  -0.42395  -0.42257
 Alpha  occ. eigenvalues --   -0.42196  -0.42131  -0.41738  -0.41718  -0.41654
 Alpha  occ. eigenvalues --   -0.41494  -0.41002  -0.40723  -0.40360  -0.40244
 Alpha  occ. eigenvalues --   -0.39806  -0.39793  -0.39348  -0.39274  -0.39000
 Alpha  occ. eigenvalues --   -0.38847  -0.38748  -0.37978  -0.37718  -0.37555
 Alpha  occ. eigenvalues --   -0.37454  -0.37126  -0.36752  -0.36587  -0.36291
 Alpha  occ. eigenvalues --   -0.36188  -0.36130  -0.35791  -0.35371  -0.34889
 Alpha  occ. eigenvalues --   -0.34313  -0.34164  -0.32843  -0.31134  -0.30779
 Alpha  occ. eigenvalues --   -0.30599  -0.30370  -0.29669  -0.28904  -0.23973
 Alpha  occ. eigenvalues --   -0.22225
 Alpha virt. eigenvalues --   -0.09860  -0.01821  -0.00284   0.01465   0.02108
 Alpha virt. eigenvalues --    0.04358   0.04760   0.04982   0.05488   0.06353
 Alpha virt. eigenvalues --    0.07762   0.08026   0.08383   0.08681   0.09004

 Mulliken charges:
               1
     1  Mg   0.812352
     2  C    0.074604
     3  C   -0.057250
     4  C   -0.087670
     5  C   -0.063332
     6  N   -0.257313
     7  C   -0.053801
     8  C   -0.038385
     9  C   -0.066633
    10  C    0.039563
    11  C    0.094515
    12  C    0.097363
    13  C    0.077886
    14  C    0.094283
    15  O   -0.218871
    16  O   -0.296563
    17  N   -0.378775
    18  C    0.112621
    19  C   -0.121524
    20  C   -0.066592
    21  C    0.205124
    22  C    0.121758
    23  C   -0.029070
    24  O   -0.175136
    25  C    0.029196
    26  N   -0.317884
    27  C    0.026301
    28  C   -0.064078
    29  C   -0.015875
    30  C    0.040770
    31  C    0.064584
    32  C    0.031184
    33  C   -0.003667
    34  N   -0.295579
    35  C    0.076241
    36  C   -0.160602
    37  C    0.067001
    38  C    0.002376
    39  C    0.122859
    40  C    0.041598
    41  O   -0.189863
    42  C   -0.073714
    43  C    0.171381
    44  O   -0.223979
    45  O   -0.288186
    46  C    0.163310
    47  C    0.275379
    48  C   -0.115603
    49  C   -0.157780
    50  C    0.088727
    51  C    0.017416
    52  C    0.030429
    53  C    0.063070
    54  C   -0.115964
    55  C    0.064340
    56  C    0.014305
    57  C   -0.011809
    58  C    0.079616
    59  C   -0.137278
    60  C    0.041938
    61  C    0.025706
    62  C    0.094928
    63  C   -0.040614
    64  C   -0.114547
    65  C    0.049357
    66  C    0.041374
    67  H   -0.026300
    68  H   -0.036942
    69  H   -0.032106
    70  H    0.017785
    71  H   -0.000944
    72  H    0.031463
    73  H    0.018331
    74  H    0.035053
    75  H    0.014638
    76  H    0.037612
    77  H    0.040849
    78  H    0.012051
    79  H    0.056487
    80  H    0.031346
    81  H    0.016433
    82  H    0.038104
    83  H    0.027250
    84  H    0.012505
    85  H    0.022028
    86  H    0.003566
    87  H    0.011189
    88  H    0.017490
    89  H    0.040721
    90  H    0.009263
    91  H    0.008584
    92  H    0.009493
    93  H    0.025316
    94  H    0.027782
    95  H    0.027008
    96  H    0.038457
    97  H    0.034822
    98  H    0.044266
    99  H    0.016494
   100  H    0.056661
   101  H    0.023052
   102  H    0.012306
   103  H    0.034208
   104  H   -0.010200
   105  H    0.024901
   106  H    0.018423
   107  H    0.023253
   108  H    0.003866
   109  H   -0.006967
   110  H   -0.008814
   111  H    0.000190
   112  H   -0.003553
   113  H    0.001124
   114  H   -0.006402
   115  H   -0.001346
   116  H    0.017351
   117  H    0.015220
   118  H    0.004231
   119  H   -0.001437
   120  H   -0.004439
   121  H   -0.001809
   122  H   -0.004751
   123  H   -0.012530
   124  H   -0.003003
   125  H   -0.008028
   126  H    0.004271
   127  H    0.010970
   128  H   -0.012366
   129  H   -0.023165
   130  H    0.005855
   131  H    0.002419
   132  H   -0.001220
   133  H   -0.007904
   134  H   -0.015333
   135  H   -0.003961
   136  H    0.012439
   137  H    0.001986
   138  H    0.006191
   139  H    0.001270
   140  H    0.011432
 Sum of Mulliken charges =  -0.00000

 Dipole moment (field-independent basis, Debye):
    X=             -1.2582    Y=              5.9055    Z=              1.7618  Tot=              6.2899
 Quadrupole moment (field-independent basis, Debye-Ang):
   XX=           -395.0937   YY=           -457.5282   ZZ=           -389.2038
   XY=             63.3428   XZ=             -5.5923   YZ=             22.4070

 Normal termination of Gaussian 16 at Sat Apr 30 07:06:19 2022.
