 Gaussian 16, Revision A.03,
 Gaussian 16:  ES64L-G16RevA.03 25-Dec-2016

 ---------------------------------
 #p PBE1PBE/Def2SVP td=(nstates=5)
 ---------------------------------

 ----------------------------------------------------
 step_651_chromophore_2 TDDFT with PBE1PBE functional
 ----------------------------------------------------
 Symbolic Z-matrix:
 Charge =  0 Multiplicity = 1

                         Standard orientation:
 ---------------------------------------------------------------------
 Center     Atomic      Atomic             Coordinates (Angstroms)
 Number     Number       Type             X           Y           Z
 ---------------------------------------------------------------------
      1         12           0        5.076928    1.062224   -0.377544
      2          6           0        5.029190   -2.345213   -0.374795
      3          6           0        2.424527    0.974319   -2.704213
      4          6           0        4.798279    4.391102   -0.099054
      5          6           0        7.337592    1.061342    2.343567
      6          7           0        3.783486   -0.522892   -1.378489
      7          6           0        3.882745   -1.859903   -1.054214
      8          6           0        2.665765   -2.682071   -1.588774
      9          6           0        2.095064   -1.614684   -2.598634
     10          6           0        2.689728   -0.291371   -2.141507
     11          6           0        2.308458   -1.984889   -4.123588
     12          6           0        1.766236   -2.971592   -0.341807
     13          6           0        1.321164   -4.458479   -0.166851
     14          6           0       -0.115940   -4.799353   -0.276656
     15          8           0       -0.667183   -5.263018   -1.252533
     16          8           0       -0.688776   -4.470402    0.889906
     17          7           0        3.845935    2.541137   -1.403719
     18          6           0        2.873103    2.301958   -2.387505
     19          6           0        2.534559    3.517580   -3.018329
     20          6           0        3.077385    4.543167   -2.082116
     21          6           0        3.881933    3.863583   -1.078427
     22          6           0        1.612097    3.650427   -4.219544
     23          6           0        2.762562    5.973168   -2.226653
     24          8           0        2.137423    6.380091   -3.147454
     25          6           0        3.281766    7.018221   -1.238238
     26          7           0        5.665135    2.449731    1.139004
     27          6           0        5.563700    3.782859    0.920400
     28          6           0        6.371876    4.674055    1.848745
     29          6           0        7.070614    3.610788    2.751968
     30          6           0        6.669025    2.262346    2.097014
     31          6           0        7.389965    5.664128    1.119638
     32          6           0        6.903544    3.759079    4.269570
     33          6           0        8.226749    3.749617    5.089412
     34          7           0        6.111414   -0.376056    0.718936
     35          6           0        7.096458   -0.251547    1.666338
     36          6           0        7.731238   -1.522368    1.963693
     37          6           0        6.986697   -2.437610    1.122649
     38          6           0        5.979647   -1.635340    0.464353
     39          6           0        8.917474   -1.551952    2.861256
     40          6           0        6.725625   -3.762785    0.755374
     41          8           0        7.141663   -4.882675    1.140172
     42          6           0        5.457574   -3.714503   -0.239382
     43          6           0        5.747494   -4.394005   -1.548679
     44          8           0        6.132362   -5.579586   -1.609181
     45          8           0        5.669017   -3.537401   -2.600920
     46          6           0        5.959625   -4.089452   -3.852591
     47          6           0       -2.098020   -4.565606    0.924651
     48          6           0       -2.749529   -3.212397    1.243595
     49          6           0       -3.380034   -2.852661    2.360512
     50          6           0       -3.387339   -3.628755    3.679034
     51          6           0       -4.258589   -1.569134    2.377860
     52          6           0       -5.623387   -1.798110    1.701366
     53          6           0       -6.600196   -0.603028    1.834185
     54          6           0       -6.851874    0.186339    0.492174
     55          6           0       -5.753280    1.240496    0.204186
     56          6           0       -8.226357    0.993990    0.589573
     57          6           0       -9.502755    0.327455   -0.104890
     58          6           0      -10.558688    1.356748   -0.462049
     59          6           0      -11.937856    0.719628   -0.696035
     60          6           0      -12.363947    0.814339   -2.234752
     61          6           0      -13.041769    1.328663    0.128556
     62          6           0      -14.242823    0.394027    0.438766
     63          6           0      -15.500832    1.141196    0.024530
     64          6           0      -16.813493    0.578459    0.593198
     65          6           0      -18.013270    1.240471   -0.146786
     66          6           0      -16.994727    0.463994    2.117205
     67          1           0        1.687714    0.984780   -3.511383
     68          1           0        4.941264    5.473372   -0.077129
     69          1           0        8.183104    1.231504    3.013053
     70          1           0        2.989994   -3.509031   -2.220415
     71          1           0        1.024899   -1.504948   -2.424042
     72          1           0        1.322381   -1.879300   -4.576213
     73          1           0        2.571894   -3.041104   -4.168513
     74          1           0        3.141923   -1.340602   -4.404627
     75          1           0        0.769087   -2.546674   -0.455282
     76          1           0        2.239694   -2.505393    0.522029
     77          1           0        1.747469   -4.923841    0.721552
     78          1           0        1.716208   -4.964829   -1.048145
     79          1           0        1.610740    4.625064   -4.707935
     80          1           0        0.641454    3.465072   -3.761469
     81          1           0        1.752485    2.820479   -4.912401
     82          1           0        4.279242    7.337470   -1.537173
     83          1           0        3.251895    6.845919   -0.162022
     84          1           0        2.680813    7.925800   -1.298127
     85          1           0        5.662450    5.258246    2.435132
     86          1           0        8.135897    3.741018    2.561176
     87          1           0        8.413759    5.508043    1.458664
     88          1           0        7.191072    6.634214    1.576296
     89          1           0        7.364320    5.558040    0.035011
     90          1           0        6.401237    2.856307    4.617646
     91          1           0        6.336980    4.638974    4.574385
     92          1           0        8.992986    3.433964    4.381755
     93          1           0        8.028052    2.959014    5.812961
     94          1           0        8.446775    4.747257    5.471694
     95          1           0        9.634761   -0.752125    2.677834
     96          1           0        9.442833   -2.487707    2.668833
     97          1           0        8.499625   -1.432568    3.860481
     98          1           0        4.574679   -4.248220    0.111863
     99          1           0        5.072100   -4.108095   -4.485814
    100          1           0        6.434422   -5.067557   -3.926972
    101          1           0        6.614946   -3.370276   -4.344350
    102          1           0       -2.310477   -5.296262    1.706493
    103          1           0       -2.506647   -4.808814   -0.055433
    104          1           0       -2.799551   -2.567653    0.366278
    105          1           0       -2.669327   -4.445383    3.755143
    106          1           0       -4.395021   -4.038905    3.750477
    107          1           0       -3.292117   -2.945841    4.524278
    108          1           0       -3.766017   -0.750173    1.853901
    109          1           0       -4.469839   -1.176626    3.372384
    110          1           0       -5.820652   -2.713041    2.258391
    111          1           0       -5.402753   -2.033057    0.659633
    112          1           0       -6.196015    0.085661    2.575197
    113          1           0       -7.553609   -1.022206    2.154062
    114          1           0       -7.097642   -0.555197   -0.267901
    115          1           0       -4.786963    0.939665    0.610220
    116          1           0       -6.085734    2.169633    0.664103
    117          1           0       -5.642784    1.388347   -0.870123
    118          1           0       -8.208230    1.979088    0.124718
    119          1           0       -8.473620    1.068054    1.649233
    120          1           0       -9.924996   -0.385311    0.603204
    121          1           0       -9.215095   -0.253861   -0.980003
    122          1           0      -10.261076    1.942574   -1.331419
    123          1           0      -10.712542    2.059825    0.356984
    124          1           0      -11.901296   -0.337018   -0.431812
    125          1           0      -11.946470    1.735783   -2.639998
    126          1           0      -13.436519    0.968690   -2.343891
    127          1           0      -11.904998    0.051807   -2.864052
    128          1           0      -13.395012    2.275782   -0.279487
    129          1           0      -12.560942    1.652193    1.051916
    130          1           0      -14.271245    0.198811    1.510753
    131          1           0      -14.203908   -0.337002   -0.368927
    132          1           0      -15.559284    1.165882   -1.063405
    133          1           0      -15.407720    2.176241    0.353382
    134          1           0      -16.784654   -0.463596    0.275997
    135          1           0      -18.870700    1.227872    0.526404
    136          1           0      -18.271552    0.767040   -1.093766
    137          1           0      -17.806867    2.287928   -0.363114
    138          1           0      -16.804757   -0.570603    2.403662
    139          1           0      -18.032480    0.606076    2.415912
    140          1           0      -16.359526    1.104733    2.728943
 ---------------------------------------------------------------------

 SCF Done:  E(RPBE1PBE) =  -3005.33339547     A.U. after   16 cycles

 Excitation energies and oscillator strengths:

 Excited State   1:      Singlet-A      1.8371 eV  674.89 nm  f=0.3651  <S**2>=0.000
     245 -> 248        0.17549
     246 -> 247        0.68924
     246 <- 247       -0.10749
 This state for optimization and/or second-order correction.
 Total Energy, E(TD-HF/TD-DFT) =  -3005.26588285
 Copying the excited state density for this state as the 1-particle RhoCI density.

 Excited State   2:      Singlet-A      2.0243 eV  612.49 nm  f=0.1491  <S**2>=0.000
     244 -> 247       -0.10019
     245 -> 247        0.66889
     246 -> 248       -0.17923

 Excited State   3:      Singlet-A      2.4992 eV  496.10 nm  f=0.0094  <S**2>=0.000
     243 -> 247       -0.20386
     244 -> 247        0.66420

 Excited State   4:      Singlet-A      2.5955 eV  477.69 nm  f=0.0168  <S**2>=0.000
     243 -> 247        0.63339
     243 -> 249        0.13101
     244 -> 247        0.19827

 Excited State   5:      Singlet-A      2.7191 eV  455.97 nm  f=0.0006  <S**2>=0.000
     242 -> 247        0.68767
     242 -> 249       -0.10557

 The electronic state is 1-A.
 Alpha  occ. eigenvalues --  -46.93946 -19.27036 -19.26056 -19.20361 -19.19333
 Alpha  occ. eigenvalues --  -19.18336 -19.18114 -14.42697 -14.41942 -14.39713
 Alpha  occ. eigenvalues --  -14.39057 -10.36376 -10.36101 -10.31903 -10.31036
 Alpha  occ. eigenvalues --  -10.29695 -10.29416 -10.29272 -10.29244 -10.28919
 Alpha  occ. eigenvalues --  -10.28686 -10.28678 -10.28432 -10.27975 -10.27283
 Alpha  occ. eigenvalues --  -10.27081 -10.26824 -10.26820 -10.26408 -10.26287
 Alpha  occ. eigenvalues --  -10.26125 -10.25899 -10.25838 -10.25792 -10.25511
 Alpha  occ. eigenvalues --  -10.25456 -10.25379 -10.24783 -10.24679 -10.24668
 Alpha  occ. eigenvalues --  -10.24542 -10.24502 -10.24239 -10.24212 -10.24182
 Alpha  occ. eigenvalues --  -10.24153 -10.23890 -10.23707 -10.23547 -10.23460
 Alpha  occ. eigenvalues --  -10.23289 -10.23258 -10.22984 -10.22981 -10.22931
 Alpha  occ. eigenvalues --  -10.22667 -10.22559 -10.22518 -10.22426 -10.22213
 Alpha  occ. eigenvalues --  -10.22038 -10.21945 -10.21928 -10.21870 -10.21617
 Alpha  occ. eigenvalues --  -10.21575  -3.15800  -1.88641  -1.88185  -1.88004
 Alpha  occ. eigenvalues --   -1.13367  -1.12760  -1.06348  -1.04124  -1.02359
 Alpha  occ. eigenvalues --   -1.01488  -1.00128  -0.98724  -0.98164  -0.96806
 Alpha  occ. eigenvalues --   -0.87868  -0.84827  -0.84282  -0.84055  -0.83748
 Alpha  occ. eigenvalues --   -0.82968  -0.82615  -0.81994  -0.81675  -0.81607
 Alpha  occ. eigenvalues --   -0.80643  -0.79855  -0.78612  -0.78515  -0.77888
 Alpha  occ. eigenvalues --   -0.77127  -0.76837  -0.75425  -0.75006  -0.74726
 Alpha  occ. eigenvalues --   -0.74045  -0.73046  -0.72021  -0.71779  -0.70780
 Alpha  occ. eigenvalues --   -0.70361  -0.70149  -0.69739  -0.68818  -0.68520
 Alpha  occ. eigenvalues --   -0.68068  -0.67662  -0.66226  -0.65312  -0.63990
 Alpha  occ. eigenvalues --   -0.63720  -0.62539  -0.62047  -0.60904  -0.60630
 Alpha  occ. eigenvalues --   -0.60259  -0.59580  -0.59370  -0.59246  -0.58797
 Alpha  occ. eigenvalues --   -0.58380  -0.58076  -0.57269  -0.56253  -0.54772
 Alpha  occ. eigenvalues --   -0.54573  -0.54301  -0.53886  -0.53743  -0.52799
 Alpha  occ. eigenvalues --   -0.52438  -0.52229  -0.51368  -0.51314  -0.50866
 Alpha  occ. eigenvalues --   -0.50643  -0.50037  -0.49885  -0.49582  -0.49187
 Alpha  occ. eigenvalues --   -0.48578  -0.48188  -0.48013  -0.47688  -0.47444
 Alpha  occ. eigenvalues --   -0.47309  -0.46895  -0.46821  -0.46618  -0.46232
 Alpha  occ. eigenvalues --   -0.46083  -0.46025  -0.45780  -0.45636  -0.45319
 Alpha  occ. eigenvalues --   -0.45225  -0.45064  -0.44948  -0.44465  -0.44191
 Alpha  occ. eigenvalues --   -0.44093  -0.43833  -0.43595  -0.43508  -0.43432
 Alpha  occ. eigenvalues --   -0.43263  -0.43180  -0.42779  -0.42539  -0.42310
 Alpha  occ. eigenvalues --   -0.42201  -0.42018  -0.41894  -0.41826  -0.41468
 Alpha  occ. eigenvalues --   -0.41361  -0.41118  -0.41092  -0.40826  -0.40790
 Alpha  occ. eigenvalues --   -0.40379  -0.40294  -0.40195  -0.39982  -0.39734
 Alpha  occ. eigenvalues --   -0.39677  -0.39389  -0.39244  -0.38898  -0.38695
 Alpha  occ. eigenvalues --   -0.38486  -0.38372  -0.38084  -0.38050  -0.37874
 Alpha  occ. eigenvalues --   -0.37683  -0.37479  -0.37251  -0.37215  -0.37031
 Alpha  occ. eigenvalues --   -0.36910  -0.36870  -0.36654  -0.36535  -0.36413
 Alpha  occ. eigenvalues --   -0.36388  -0.35825  -0.35492  -0.35238  -0.35086
 Alpha  occ. eigenvalues --   -0.34734  -0.34562  -0.34324  -0.34109  -0.33970
 Alpha  occ. eigenvalues --   -0.33686  -0.33474  -0.33018  -0.32564  -0.32521
 Alpha  occ. eigenvalues --   -0.32249  -0.31966  -0.31647  -0.31565  -0.31218
 Alpha  occ. eigenvalues --   -0.31169  -0.31020  -0.30676  -0.30532  -0.29721
 Alpha  occ. eigenvalues --   -0.29325  -0.29142  -0.28368  -0.26761  -0.26107
 Alpha  occ. eigenvalues --   -0.26039  -0.25210  -0.24893  -0.24347  -0.20921
 Alpha  occ. eigenvalues --   -0.19743
 Alpha virt. eigenvalues --   -0.12207  -0.05377  -0.04454  -0.02238  -0.01353
 Alpha virt. eigenvalues --   -0.00128   0.00340   0.00539   0.01172   0.02795
 Alpha virt. eigenvalues --    0.03524   0.04128   0.04801   0.05193   0.05672

 Mulliken charges:
               1
     1  Mg   0.953263
     2  C    0.066294
     3  C   -0.057756
     4  C   -0.084046
     5  C   -0.059168
     6  N   -0.352869
     7  C    0.020779
     8  C   -0.120941
     9  C   -0.133255
    10  C    0.082763
    11  C    0.032465
    12  C    0.053961
    13  C    0.002231
    14  C    0.161780
    15  O   -0.254303
    16  O   -0.325172
    17  N   -0.480116
    18  C    0.124239
    19  C   -0.135674
    20  C   -0.122891
    21  C    0.235574
    22  C    0.059259
    23  C    0.022950
    24  O   -0.212598
    25  C   -0.045744
    26  N   -0.415302
    27  C    0.058511
    28  C   -0.134659
    29  C   -0.089807
    30  C    0.073059
    31  C    0.004607
    32  C   -0.027699
    33  C   -0.077036
    34  N   -0.424575
    35  C    0.101120
    36  C   -0.167209
    37  C    0.023531
    38  C    0.048265
    39  C    0.065690
    40  C    0.125143
    41  O   -0.230788
    42  C   -0.188519
    43  C    0.261194
    44  O   -0.258311
    45  O   -0.320577
    46  C    0.109449
    47  C    0.227809
    48  C   -0.123804
    49  C   -0.202560
    50  C    0.025788
    51  C   -0.045359
    52  C   -0.031605
    53  C    0.004456
    54  C   -0.201790
    55  C   -0.000353
    56  C   -0.038689
    57  C   -0.074401
    58  C    0.024978
    59  C   -0.224466
    60  C   -0.018695
    61  C   -0.023567
    62  C    0.021526
    63  C   -0.095624
    64  C   -0.206112
    65  C   -0.013190
    66  C   -0.018825
    67  H    0.004451
    68  H   -0.000847
    69  H    0.001713
    70  H    0.055758
    71  H    0.037079
    72  H    0.058097
    73  H    0.045496
    74  H    0.062999
    75  H    0.049075
    76  H    0.069366
    77  H    0.071530
    78  H    0.045658
    79  H    0.082039
    80  H    0.059472
    81  H    0.043025
    82  H    0.064470
    83  H    0.051655
    84  H    0.040730
    85  H    0.058477
    86  H    0.042497
    87  H    0.038131
    88  H    0.045092
    89  H    0.066816
    90  H    0.043236
    91  H    0.040873
    92  H    0.036147
    93  H    0.052419
    94  H    0.055608
    95  H    0.054537
    96  H    0.067690
    97  H    0.063935
    98  H    0.085967
    99  H    0.039579
   100  H    0.076968
   101  H    0.045918
   102  H    0.040111
   103  H    0.062064
   104  H    0.019039
   105  H    0.051382
   106  H    0.046505
   107  H    0.050927
   108  H    0.038918
   109  H    0.024872
   110  H    0.026669
   111  H    0.033106
   112  H    0.028458
   113  H    0.035122
   114  H    0.031096
   115  H    0.028965
   116  H    0.044572
   117  H    0.043878
   118  H    0.036824
   119  H    0.031636
   120  H    0.028885
   121  H    0.030793
   122  H    0.027200
   123  H    0.020269
   124  H    0.034532
   125  H    0.020022
   126  H    0.033221
   127  H    0.038924
   128  H    0.019568
   129  H    0.011257
   130  H    0.038887
   131  H    0.037796
   132  H    0.032260
   133  H    0.025915
   134  H    0.024750
   135  H    0.023681
   136  H    0.039847
   137  H    0.029641
   138  H    0.033438
   139  H    0.028550
   140  H    0.038137
 Sum of Mulliken charges =  -0.00000

 Dipole moment (field-independent basis, Debye):
    X=             -0.9409    Y=              5.7408    Z=              2.1386  Tot=              6.1980
 Quadrupole moment (field-independent basis, Debye-Ang):
   XX=           -387.3464   YY=           -455.0070   ZZ=           -385.6062
   XY=             63.2487   XZ=             -2.8658   YZ=             23.4332

 Normal termination of Gaussian 16 at Sat Apr 30 07:20:49 2022.
