 Gaussian 16, Revision A.03,
 Gaussian 16:  ES64L-G16RevA.03 25-Dec-2016

 --------------------------------
 #p wB97XD/Def2SVP td=(nstates=5)
 --------------------------------

 ---------------------------------------------------
 step_651_chromophore_2 TDDFT with wB97XD functional
 ---------------------------------------------------
 Symbolic Z-matrix:
 Charge =  0 Multiplicity = 1

                         Standard orientation:
 ---------------------------------------------------------------------
 Center     Atomic      Atomic             Coordinates (Angstroms)
 Number     Number       Type             X           Y           Z
 ---------------------------------------------------------------------
      1         12           0        5.076928    1.062224   -0.377544
      2          6           0        5.029190   -2.345213   -0.374795
      3          6           0        2.424527    0.974319   -2.704213
      4          6           0        4.798279    4.391102   -0.099054
      5          6           0        7.337592    1.061342    2.343567
      6          7           0        3.783486   -0.522892   -1.378489
      7          6           0        3.882745   -1.859903   -1.054214
      8          6           0        2.665765   -2.682071   -1.588774
      9          6           0        2.095064   -1.614684   -2.598634
     10          6           0        2.689728   -0.291371   -2.141507
     11          6           0        2.308458   -1.984889   -4.123588
     12          6           0        1.766236   -2.971592   -0.341807
     13          6           0        1.321164   -4.458479   -0.166851
     14          6           0       -0.115940   -4.799353   -0.276656
     15          8           0       -0.667183   -5.263018   -1.252533
     16          8           0       -0.688776   -4.470402    0.889906
     17          7           0        3.845935    2.541137   -1.403719
     18          6           0        2.873103    2.301958   -2.387505
     19          6           0        2.534559    3.517580   -3.018329
     20          6           0        3.077385    4.543167   -2.082116
     21          6           0        3.881933    3.863583   -1.078427
     22          6           0        1.612097    3.650427   -4.219544
     23          6           0        2.762562    5.973168   -2.226653
     24          8           0        2.137423    6.380091   -3.147454
     25          6           0        3.281766    7.018221   -1.238238
     26          7           0        5.665135    2.449731    1.139004
     27          6           0        5.563700    3.782859    0.920400
     28          6           0        6.371876    4.674055    1.848745
     29          6           0        7.070614    3.610788    2.751968
     30          6           0        6.669025    2.262346    2.097014
     31          6           0        7.389965    5.664128    1.119638
     32          6           0        6.903544    3.759079    4.269570
     33          6           0        8.226749    3.749617    5.089412
     34          7           0        6.111414   -0.376056    0.718936
     35          6           0        7.096458   -0.251547    1.666338
     36          6           0        7.731238   -1.522368    1.963693
     37          6           0        6.986697   -2.437610    1.122649
     38          6           0        5.979647   -1.635340    0.464353
     39          6           0        8.917474   -1.551952    2.861256
     40          6           0        6.725625   -3.762785    0.755374
     41          8           0        7.141663   -4.882675    1.140172
     42          6           0        5.457574   -3.714503   -0.239382
     43          6           0        5.747494   -4.394005   -1.548679
     44          8           0        6.132362   -5.579586   -1.609181
     45          8           0        5.669017   -3.537401   -2.600920
     46          6           0        5.959625   -4.089452   -3.852591
     47          6           0       -2.098020   -4.565606    0.924651
     48          6           0       -2.749529   -3.212397    1.243595
     49          6           0       -3.380034   -2.852661    2.360512
     50          6           0       -3.387339   -3.628755    3.679034
     51          6           0       -4.258589   -1.569134    2.377860
     52          6           0       -5.623387   -1.798110    1.701366
     53          6           0       -6.600196   -0.603028    1.834185
     54          6           0       -6.851874    0.186339    0.492174
     55          6           0       -5.753280    1.240496    0.204186
     56          6           0       -8.226357    0.993990    0.589573
     57          6           0       -9.502755    0.327455   -0.104890
     58          6           0      -10.558688    1.356748   -0.462049
     59          6           0      -11.937856    0.719628   -0.696035
     60          6           0      -12.363947    0.814339   -2.234752
     61          6           0      -13.041769    1.328663    0.128556
     62          6           0      -14.242823    0.394027    0.438766
     63          6           0      -15.500832    1.141196    0.024530
     64          6           0      -16.813493    0.578459    0.593198
     65          6           0      -18.013270    1.240471   -0.146786
     66          6           0      -16.994727    0.463994    2.117205
     67          1           0        1.687714    0.984780   -3.511383
     68          1           0        4.941264    5.473372   -0.077129
     69          1           0        8.183104    1.231504    3.013053
     70          1           0        2.989994   -3.509031   -2.220415
     71          1           0        1.024899   -1.504948   -2.424042
     72          1           0        1.322381   -1.879300   -4.576213
     73          1           0        2.571894   -3.041104   -4.168513
     74          1           0        3.141923   -1.340602   -4.404627
     75          1           0        0.769087   -2.546674   -0.455282
     76          1           0        2.239694   -2.505393    0.522029
     77          1           0        1.747469   -4.923841    0.721552
     78          1           0        1.716208   -4.964829   -1.048145
     79          1           0        1.610740    4.625064   -4.707935
     80          1           0        0.641454    3.465072   -3.761469
     81          1           0        1.752485    2.820479   -4.912401
     82          1           0        4.279242    7.337470   -1.537173
     83          1           0        3.251895    6.845919   -0.162022
     84          1           0        2.680813    7.925800   -1.298127
     85          1           0        5.662450    5.258246    2.435132
     86          1           0        8.135897    3.741018    2.561176
     87          1           0        8.413759    5.508043    1.458664
     88          1           0        7.191072    6.634214    1.576296
     89          1           0        7.364320    5.558040    0.035011
     90          1           0        6.401237    2.856307    4.617646
     91          1           0        6.336980    4.638974    4.574385
     92          1           0        8.992986    3.433964    4.381755
     93          1           0        8.028052    2.959014    5.812961
     94          1           0        8.446775    4.747257    5.471694
     95          1           0        9.634761   -0.752125    2.677834
     96          1           0        9.442833   -2.487707    2.668833
     97          1           0        8.499625   -1.432568    3.860481
     98          1           0        4.574679   -4.248220    0.111863
     99          1           0        5.072100   -4.108095   -4.485814
    100          1           0        6.434422   -5.067557   -3.926972
    101          1           0        6.614946   -3.370276   -4.344350
    102          1           0       -2.310477   -5.296262    1.706493
    103          1           0       -2.506647   -4.808814   -0.055433
    104          1           0       -2.799551   -2.567653    0.366278
    105          1           0       -2.669327   -4.445383    3.755143
    106          1           0       -4.395021   -4.038905    3.750477
    107          1           0       -3.292117   -2.945841    4.524278
    108          1           0       -3.766017   -0.750173    1.853901
    109          1           0       -4.469839   -1.176626    3.372384
    110          1           0       -5.820652   -2.713041    2.258391
    111          1           0       -5.402753   -2.033057    0.659633
    112          1           0       -6.196015    0.085661    2.575197
    113          1           0       -7.553609   -1.022206    2.154062
    114          1           0       -7.097642   -0.555197   -0.267901
    115          1           0       -4.786963    0.939665    0.610220
    116          1           0       -6.085734    2.169633    0.664103
    117          1           0       -5.642784    1.388347   -0.870123
    118          1           0       -8.208230    1.979088    0.124718
    119          1           0       -8.473620    1.068054    1.649233
    120          1           0       -9.924996   -0.385311    0.603204
    121          1           0       -9.215095   -0.253861   -0.980003
    122          1           0      -10.261076    1.942574   -1.331419
    123          1           0      -10.712542    2.059825    0.356984
    124          1           0      -11.901296   -0.337018   -0.431812
    125          1           0      -11.946470    1.735783   -2.639998
    126          1           0      -13.436519    0.968690   -2.343891
    127          1           0      -11.904998    0.051807   -2.864052
    128          1           0      -13.395012    2.275782   -0.279487
    129          1           0      -12.560942    1.652193    1.051916
    130          1           0      -14.271245    0.198811    1.510753
    131          1           0      -14.203908   -0.337002   -0.368927
    132          1           0      -15.559284    1.165882   -1.063405
    133          1           0      -15.407720    2.176241    0.353382
    134          1           0      -16.784654   -0.463596    0.275997
    135          1           0      -18.870700    1.227872    0.526404
    136          1           0      -18.271552    0.767040   -1.093766
    137          1           0      -17.806867    2.287928   -0.363114
    138          1           0      -16.804757   -0.570603    2.403662
    139          1           0      -18.032480    0.606076    2.415912
    140          1           0      -16.359526    1.104733    2.728943
 ---------------------------------------------------------------------

 SCF Done:  E(RwB97XD) =  -3007.83834951     A.U. after   19 cycles

 Excitation energies and oscillator strengths:

 Excited State   1:      Singlet-A      1.6472 eV  752.70 nm  f=0.3864  <S**2>=0.000
     245 -> 248       -0.18392
     246 -> 247        0.68344
     245 <- 248       -0.11278
 This state for optimization and/or second-order correction.
 Total Energy, E(TD-HF/TD-DFT) =  -3007.77781645
 Copying the excited state density for this state as the 1-particle RhoCI density.

 Excited State   2:      Singlet-A      1.9997 eV  620.02 nm  f=0.1676  <S**2>=0.000
     244 -> 247        0.10621
     245 -> 247        0.66523
     246 -> 248        0.20362

 Excited State   3:      Singlet-A      2.8140 eV  440.60 nm  f=0.0195  <S**2>=0.000
     244 -> 247        0.67895

 Excited State   4:      Singlet-A      3.1597 eV  392.39 nm  f=0.0028  <S**2>=0.000
     242 -> 247        0.13798
     242 -> 249        0.12438
     243 -> 247        0.55972
     243 -> 248       -0.10551
     243 -> 249        0.26743
     243 -> 250        0.11985

 Excited State   5:      Singlet-A      3.3716 eV  367.73 nm  f=0.0001  <S**2>=0.000
     241 -> 247        0.59311
     241 -> 249       -0.23760
     241 -> 250        0.21270
     242 -> 247        0.14770

 The electronic state is 1-A.
 Alpha  occ. eigenvalues --  -46.96903 -19.31598 -19.30616 -19.25030 -19.24020
 Alpha  occ. eigenvalues --  -19.23117 -19.22886 -14.48088 -14.46784 -14.44560
 Alpha  occ. eigenvalues --  -14.44120 -10.43208 -10.42904 -10.38607 -10.38067
 Alpha  occ. eigenvalues --  -10.35921 -10.35848 -10.35794 -10.35450 -10.35419
 Alpha  occ. eigenvalues --  -10.35296 -10.35185 -10.34682 -10.34361 -10.33751
 Alpha  occ. eigenvalues --  -10.33357 -10.33337 -10.32856 -10.32672 -10.32638
 Alpha  occ. eigenvalues --  -10.32630 -10.32616 -10.32241 -10.31892 -10.31854
 Alpha  occ. eigenvalues --  -10.31774 -10.31514 -10.31170 -10.31163 -10.31155
 Alpha  occ. eigenvalues --  -10.30907 -10.30907 -10.30481 -10.30470 -10.30434
 Alpha  occ. eigenvalues --  -10.30342 -10.30337 -10.30246 -10.29852 -10.29828
 Alpha  occ. eigenvalues --  -10.29671 -10.29646 -10.29373 -10.29277 -10.29245
 Alpha  occ. eigenvalues --  -10.29220 -10.29033 -10.28910 -10.28902 -10.28603
 Alpha  occ. eigenvalues --  -10.28423 -10.28381 -10.28365 -10.28258 -10.28010
 Alpha  occ. eigenvalues --  -10.27981  -3.22650  -1.96235  -1.95777  -1.95593
 Alpha  occ. eigenvalues --   -1.20732  -1.20151  -1.13989  -1.11462  -1.09696
 Alpha  occ. eigenvalues --   -1.08810  -1.07283  -1.06249  -1.05499  -1.04406
 Alpha  occ. eigenvalues --   -0.95453  -0.92513  -0.91956  -0.91729  -0.91246
 Alpha  occ. eigenvalues --   -0.90655  -0.90306  -0.89524  -0.89295  -0.89199
 Alpha  occ. eigenvalues --   -0.88334  -0.87721  -0.86323  -0.86052  -0.85584
 Alpha  occ. eigenvalues --   -0.84743  -0.84455  -0.83139  -0.82635  -0.82454
 Alpha  occ. eigenvalues --   -0.81722  -0.80674  -0.79702  -0.79448  -0.78475
 Alpha  occ. eigenvalues --   -0.77991  -0.77803  -0.77448  -0.76520  -0.76173
 Alpha  occ. eigenvalues --   -0.75608  -0.75294  -0.73816  -0.72955  -0.71496
 Alpha  occ. eigenvalues --   -0.71151  -0.70189  -0.69667  -0.68542  -0.68166
 Alpha  occ. eigenvalues --   -0.67740  -0.67064  -0.67019  -0.66705  -0.66323
 Alpha  occ. eigenvalues --   -0.65783  -0.65782  -0.64958  -0.63878  -0.62179
 Alpha  occ. eigenvalues --   -0.62090  -0.61816  -0.61392  -0.61095  -0.60156
 Alpha  occ. eigenvalues --   -0.59917  -0.59783  -0.58857  -0.58695  -0.58346
 Alpha  occ. eigenvalues --   -0.58141  -0.57574  -0.57254  -0.57001  -0.56530
 Alpha  occ. eigenvalues --   -0.55844  -0.55661  -0.55269  -0.54990  -0.54787
 Alpha  occ. eigenvalues --   -0.54626  -0.54296  -0.54247  -0.53957  -0.53825
 Alpha  occ. eigenvalues --   -0.53584  -0.53428  -0.53032  -0.53012  -0.52725
 Alpha  occ. eigenvalues --   -0.52457  -0.52404  -0.52292  -0.51792  -0.51726
 Alpha  occ. eigenvalues --   -0.51438  -0.51322  -0.50911  -0.50819  -0.50752
 Alpha  occ. eigenvalues --   -0.50498  -0.50470  -0.50060  -0.49760  -0.49528
 Alpha  occ. eigenvalues --   -0.49479  -0.49189  -0.49121  -0.49108  -0.48726
 Alpha  occ. eigenvalues --   -0.48551  -0.48399  -0.48309  -0.48080  -0.48051
 Alpha  occ. eigenvalues --   -0.47747  -0.47459  -0.47314  -0.47235  -0.46937
 Alpha  occ. eigenvalues --   -0.46846  -0.46491  -0.46422  -0.46102  -0.45782
 Alpha  occ. eigenvalues --   -0.45624  -0.45500  -0.45248  -0.45123  -0.45079
 Alpha  occ. eigenvalues --   -0.45001  -0.44573  -0.44377  -0.44319  -0.44214
 Alpha  occ. eigenvalues --   -0.44114  -0.44028  -0.43758  -0.43573  -0.43525
 Alpha  occ. eigenvalues --   -0.43369  -0.42905  -0.42593  -0.42271  -0.42141
 Alpha  occ. eigenvalues --   -0.41692  -0.41658  -0.41238  -0.41121  -0.40903
 Alpha  occ. eigenvalues --   -0.40746  -0.40597  -0.39917  -0.39567  -0.39490
 Alpha  occ. eigenvalues --   -0.39302  -0.38990  -0.38726  -0.38612  -0.38243
 Alpha  occ. eigenvalues --   -0.38175  -0.37997  -0.37658  -0.37363  -0.36823
 Alpha  occ. eigenvalues --   -0.36163  -0.36141  -0.35052  -0.33330  -0.32796
 Alpha  occ. eigenvalues --   -0.32569  -0.32459  -0.31687  -0.31151  -0.25893
 Alpha  occ. eigenvalues --   -0.24047
 Alpha virt. eigenvalues --   -0.08217   0.00106   0.01812   0.04220   0.04641
 Alpha virt. eigenvalues --    0.06580   0.07112   0.07243   0.07950   0.09072
 Alpha virt. eigenvalues --    0.10367   0.10776   0.11481   0.11980   0.12370

 Mulliken charges:
               1
     1  Mg   0.947088
     2  C    0.072404
     3  C   -0.066740
     4  C   -0.100470
     5  C   -0.074934
     6  N   -0.319504
     7  C   -0.015623
     8  C   -0.086049
     9  C   -0.110782
    10  C    0.062539
    11  C    0.045188
    12  C    0.061219
    13  C    0.018526
    14  C    0.153080
    15  O   -0.252160
    16  O   -0.325077
    17  N   -0.455425
    18  C    0.121713
    19  C   -0.128340
    20  C   -0.116047
    21  C    0.234462
    22  C    0.072005
    23  C    0.019803
    24  O   -0.207817
    25  C   -0.034318
    26  N   -0.389708
    27  C    0.053992
    28  C   -0.114276
    29  C   -0.058207
    30  C    0.063989
    31  C    0.016313
    32  C   -0.016970
    33  C   -0.058963
    34  N   -0.385497
    35  C    0.088568
    36  C   -0.166401
    37  C    0.023088
    38  C    0.029601
    39  C    0.075573
    40  C    0.110920
    41  O   -0.224177
    42  C   -0.149277
    43  C    0.240274
    44  O   -0.253968
    45  O   -0.318365
    46  C    0.124504
    47  C    0.242498
    48  C   -0.136046
    49  C   -0.186843
    50  C    0.038434
    51  C   -0.025093
    52  C   -0.011623
    53  C    0.019847
    54  C   -0.173692
    55  C    0.015323
    56  C   -0.023416
    57  C   -0.055532
    58  C    0.039161
    59  C   -0.195101
    60  C   -0.003895
    61  C   -0.007163
    62  C    0.039654
    63  C   -0.076221
    64  C   -0.177200
    65  C    0.001071
    66  C   -0.009762
    67  H   -0.000177
    68  H   -0.016163
    69  H   -0.006458
    70  H    0.036993
    71  H    0.026576
    72  H    0.054032
    73  H    0.039769
    74  H    0.056049
    75  H    0.038771
    76  H    0.062738
    77  H    0.067706
    78  H    0.037811
    79  H    0.081155
    80  H    0.054999
    81  H    0.038747
    82  H    0.060918
    83  H    0.047986
    84  H    0.039210
    85  H    0.048750
    86  H    0.024724
    87  H    0.033029
    88  H    0.039799
    89  H    0.061118
    90  H    0.034212
    91  H    0.033415
    92  H    0.028282
    93  H    0.047319
    94  H    0.050198
    95  H    0.048274
    96  H    0.062714
    97  H    0.057733
    98  H    0.075538
    99  H    0.034001
   100  H    0.074028
   101  H    0.041408
   102  H    0.035361
   103  H    0.057799
   104  H    0.016210
   105  H    0.046769
   106  H    0.039712
   107  H    0.045758
   108  H    0.026833
   109  H    0.016689
   110  H    0.014790
   111  H    0.022517
   112  H    0.018854
   113  H    0.027002
   114  H    0.018550
   115  H    0.019878
   116  H    0.037728
   117  H    0.038515
   118  H    0.026294
   119  H    0.022067
   120  H    0.018843
   121  H    0.021680
   122  H    0.018682
   123  H    0.009745
   124  H    0.021014
   125  H    0.012113
   126  H    0.024110
   127  H    0.033991
   128  H    0.008672
   129  H    0.001611
   130  H    0.031808
   131  H    0.025751
   132  H    0.021212
   133  H    0.013512
   134  H    0.012557
   135  H    0.016985
   136  H    0.034771
   137  H    0.022782
   138  H    0.027843
   139  H    0.022844
   140  H    0.032784
 Sum of Mulliken charges =  -0.00000

 Dipole moment (field-independent basis, Debye):
    X=             -1.3643    Y=              6.1134    Z=              1.6214  Tot=              6.4702
 Quadrupole moment (field-independent basis, Debye-Ang):
   XX=           -391.6991   YY=           -453.8339   ZZ=           -384.9871
   XY=             64.2186   XZ=             -5.5945   YZ=             22.3990

 Normal termination of Gaussian 16 at Sat Apr 30 07:42:49 2022.
