 Gaussian 16, Revision A.03,
 Gaussian 16:  ES64L-G16RevA.03 25-Dec-2016

 --------------------
 #p ZINDO=(nstates=5)
 --------------------

 ----------------------------
 step_651_chromophore_2 ZINDO
 ----------------------------
 Symbolic Z-matrix:
 Charge =  0 Multiplicity = 1

                         Standard orientation:
 ---------------------------------------------------------------------
 Center     Atomic      Atomic             Coordinates (Angstroms)
 Number     Number       Type             X           Y           Z
 ---------------------------------------------------------------------
      1         12           0        5.076928    1.062224   -0.377544
      2          6           0        5.029190   -2.345213   -0.374795
      3          6           0        2.424527    0.974319   -2.704213
      4          6           0        4.798279    4.391102   -0.099054
      5          6           0        7.337592    1.061342    2.343567
      6          7           0        3.783486   -0.522892   -1.378489
      7          6           0        3.882745   -1.859903   -1.054214
      8          6           0        2.665765   -2.682071   -1.588774
      9          6           0        2.095064   -1.614684   -2.598634
     10          6           0        2.689728   -0.291371   -2.141507
     11          6           0        2.308458   -1.984889   -4.123588
     12          6           0        1.766236   -2.971592   -0.341807
     13          6           0        1.321164   -4.458479   -0.166851
     14          6           0       -0.115940   -4.799353   -0.276656
     15          8           0       -0.667183   -5.263018   -1.252533
     16          8           0       -0.688776   -4.470402    0.889906
     17          7           0        3.845935    2.541137   -1.403719
     18          6           0        2.873103    2.301958   -2.387505
     19          6           0        2.534559    3.517580   -3.018329
     20          6           0        3.077385    4.543167   -2.082116
     21          6           0        3.881933    3.863583   -1.078427
     22          6           0        1.612097    3.650427   -4.219544
     23          6           0        2.762562    5.973168   -2.226653
     24          8           0        2.137423    6.380091   -3.147454
     25          6           0        3.281766    7.018221   -1.238238
     26          7           0        5.665135    2.449731    1.139004
     27          6           0        5.563700    3.782859    0.920400
     28          6           0        6.371876    4.674055    1.848745
     29          6           0        7.070614    3.610788    2.751968
     30          6           0        6.669025    2.262346    2.097014
     31          6           0        7.389965    5.664128    1.119638
     32          6           0        6.903544    3.759079    4.269570
     33          6           0        8.226749    3.749617    5.089412
     34          7           0        6.111414   -0.376056    0.718936
     35          6           0        7.096458   -0.251547    1.666338
     36          6           0        7.731238   -1.522368    1.963693
     37          6           0        6.986697   -2.437610    1.122649
     38          6           0        5.979647   -1.635340    0.464353
     39          6           0        8.917474   -1.551952    2.861256
     40          6           0        6.725625   -3.762785    0.755374
     41          8           0        7.141663   -4.882675    1.140172
     42          6           0        5.457574   -3.714503   -0.239382
     43          6           0        5.747494   -4.394005   -1.548679
     44          8           0        6.132362   -5.579586   -1.609181
     45          8           0        5.669017   -3.537401   -2.600920
     46          6           0        5.959625   -4.089452   -3.852591
     47          6           0       -2.098020   -4.565606    0.924651
     48          6           0       -2.749529   -3.212397    1.243595
     49          6           0       -3.380034   -2.852661    2.360512
     50          6           0       -3.387339   -3.628755    3.679034
     51          6           0       -4.258589   -1.569134    2.377860
     52          6           0       -5.623387   -1.798110    1.701366
     53          6           0       -6.600196   -0.603028    1.834185
     54          6           0       -6.851874    0.186339    0.492174
     55          6           0       -5.753280    1.240496    0.204186
     56          6           0       -8.226357    0.993990    0.589573
     57          6           0       -9.502755    0.327455   -0.104890
     58          6           0      -10.558688    1.356748   -0.462049
     59          6           0      -11.937856    0.719628   -0.696035
     60          6           0      -12.363947    0.814339   -2.234752
     61          6           0      -13.041769    1.328663    0.128556
     62          6           0      -14.242823    0.394027    0.438766
     63          6           0      -15.500832    1.141196    0.024530
     64          6           0      -16.813493    0.578459    0.593198
     65          6           0      -18.013270    1.240471   -0.146786
     66          6           0      -16.994727    0.463994    2.117205
     67          1           0        1.687714    0.984780   -3.511383
     68          1           0        4.941264    5.473372   -0.077129
     69          1           0        8.183104    1.231504    3.013053
     70          1           0        2.989994   -3.509031   -2.220415
     71          1           0        1.024899   -1.504948   -2.424042
     72          1           0        1.322381   -1.879300   -4.576213
     73          1           0        2.571894   -3.041104   -4.168513
     74          1           0        3.141923   -1.340602   -4.404627
     75          1           0        0.769087   -2.546674   -0.455282
     76          1           0        2.239694   -2.505393    0.522029
     77          1           0        1.747469   -4.923841    0.721552
     78          1           0        1.716208   -4.964829   -1.048145
     79          1           0        1.610740    4.625064   -4.707935
     80          1           0        0.641454    3.465072   -3.761469
     81          1           0        1.752485    2.820479   -4.912401
     82          1           0        4.279242    7.337470   -1.537173
     83          1           0        3.251895    6.845919   -0.162022
     84          1           0        2.680813    7.925800   -1.298127
     85          1           0        5.662450    5.258246    2.435132
     86          1           0        8.135897    3.741018    2.561176
     87          1           0        8.413759    5.508043    1.458664
     88          1           0        7.191072    6.634214    1.576296
     89          1           0        7.364320    5.558040    0.035011
     90          1           0        6.401237    2.856307    4.617646
     91          1           0        6.336980    4.638974    4.574385
     92          1           0        8.992986    3.433964    4.381755
     93          1           0        8.028052    2.959014    5.812961
     94          1           0        8.446775    4.747257    5.471694
     95          1           0        9.634761   -0.752125    2.677834
     96          1           0        9.442833   -2.487707    2.668833
     97          1           0        8.499625   -1.432568    3.860481
     98          1           0        4.574679   -4.248220    0.111863
     99          1           0        5.072100   -4.108095   -4.485814
    100          1           0        6.434422   -5.067557   -3.926972
    101          1           0        6.614946   -3.370276   -4.344350
    102          1           0       -2.310477   -5.296262    1.706493
    103          1           0       -2.506647   -4.808814   -0.055433
    104          1           0       -2.799551   -2.567653    0.366278
    105          1           0       -2.669327   -4.445383    3.755143
    106          1           0       -4.395021   -4.038905    3.750477
    107          1           0       -3.292117   -2.945841    4.524278
    108          1           0       -3.766017   -0.750173    1.853901
    109          1           0       -4.469839   -1.176626    3.372384
    110          1           0       -5.820652   -2.713041    2.258391
    111          1           0       -5.402753   -2.033057    0.659633
    112          1           0       -6.196015    0.085661    2.575197
    113          1           0       -7.553609   -1.022206    2.154062
    114          1           0       -7.097642   -0.555197   -0.267901
    115          1           0       -4.786963    0.939665    0.610220
    116          1           0       -6.085734    2.169633    0.664103
    117          1           0       -5.642784    1.388347   -0.870123
    118          1           0       -8.208230    1.979088    0.124718
    119          1           0       -8.473620    1.068054    1.649233
    120          1           0       -9.924996   -0.385311    0.603204
    121          1           0       -9.215095   -0.253861   -0.980003
    122          1           0      -10.261076    1.942574   -1.331419
    123          1           0      -10.712542    2.059825    0.356984
    124          1           0      -11.901296   -0.337018   -0.431812
    125          1           0      -11.946470    1.735783   -2.639998
    126          1           0      -13.436519    0.968690   -2.343891
    127          1           0      -11.904998    0.051807   -2.864052
    128          1           0      -13.395012    2.275782   -0.279487
    129          1           0      -12.560942    1.652193    1.051916
    130          1           0      -14.271245    0.198811    1.510753
    131          1           0      -14.203908   -0.337002   -0.368927
    132          1           0      -15.559284    1.165882   -1.063405
    133          1           0      -15.407720    2.176241    0.353382
    134          1           0      -16.784654   -0.463596    0.275997
    135          1           0      -18.870700    1.227872    0.526404
    136          1           0      -18.271552    0.767040   -1.093766
    137          1           0      -17.806867    2.287928   -0.363114
    138          1           0      -16.804757   -0.570603    2.403662
    139          1           0      -18.032480    0.606076    2.415912
    140          1           0      -16.359526    1.104733    2.728943
 ---------------------------------------------------------------------

 SCF Done:  E(RZINDO/S) =  -474.293007177     A.U. after   19 cycles

 Excitation energies and oscillator strengths:

 Excited State   1:      Singlet-A      1.2457 eV  995.34 nm  f=0.5929  <S**2>=0.000
     175 ->178         0.17318
     176 ->177         0.66709
 This state for optimization and/or second-order correction.
 Total Energy, E(CIS/TDA) =  -474.247230375
 Copying the excited state density for this state as the 1-particle RhoCI density.

 Excited State   2:      Singlet-A      1.8210 eV  680.87 nm  f=0.1681  <S**2>=0.000
     175 ->177         0.61224
     176 ->178        -0.30757

 Excited State   3:      Singlet-A      2.7527 eV  450.41 nm  f=0.0096  <S**2>=0.000
     172 ->177         0.64231
     174 ->177         0.20116

 Excited State   4:      Singlet-A      2.9012 eV  427.36 nm  f=0.0136  <S**2>=0.000
     169 ->177         0.13333
     169 ->179         0.12402
     169 ->180        -0.11241
     170 ->177         0.29681
     170 ->178        -0.17672
     170 ->179         0.26627
     170 ->180        -0.26441
     170 ->185         0.13308
     170 ->187        -0.14371
     173 ->177        -0.13078
     176 ->178        -0.13206

 Excited State   5:      Singlet-A      2.9203 eV  424.55 nm  f=0.0102  <S**2>=0.000
     168 ->177         0.37462
     168 ->179        -0.35102
     168 ->180        -0.24709
     168 ->185        -0.24044
     168 ->187        -0.11656
     168 ->194         0.12544

 The electronic state is 1-A.
 Alpha  occ. eigenvalues --   -1.84844  -1.80258  -1.79897  -1.77643  -1.74055
 Alpha  occ. eigenvalues --   -1.71482  -1.65602  -1.62433  -1.61107  -1.57900
 Alpha  occ. eigenvalues --   -1.55676  -1.51816  -1.49049  -1.48431  -1.46876
 Alpha  occ. eigenvalues --   -1.44405  -1.43718  -1.40160  -1.39583  -1.38261
 Alpha  occ. eigenvalues --   -1.36547  -1.34599  -1.32956  -1.31233  -1.28334
 Alpha  occ. eigenvalues --   -1.26340  -1.25947  -1.22669  -1.21250  -1.18805
 Alpha  occ. eigenvalues --   -1.16608  -1.16545  -1.15329  -1.14374  -1.13227
 Alpha  occ. eigenvalues --   -1.11822  -1.10587  -1.09074  -1.05930  -1.05259
 Alpha  occ. eigenvalues --   -1.02791  -1.01838  -0.98204  -0.97398  -0.96617
 Alpha  occ. eigenvalues --   -0.96243  -0.94835  -0.93503  -0.92599  -0.92551
 Alpha  occ. eigenvalues --   -0.91329  -0.90074  -0.89061  -0.88383  -0.86459
 Alpha  occ. eigenvalues --   -0.85068  -0.84969  -0.84404  -0.83337  -0.81635
 Alpha  occ. eigenvalues --   -0.80435  -0.79844  -0.78766  -0.77731  -0.77415
 Alpha  occ. eigenvalues --   -0.77136  -0.76221  -0.75035  -0.74286  -0.73674
 Alpha  occ. eigenvalues --   -0.73189  -0.73048  -0.71964  -0.71829  -0.71404
 Alpha  occ. eigenvalues --   -0.71253  -0.70408  -0.69510  -0.68552  -0.68449
 Alpha  occ. eigenvalues --   -0.67958  -0.67764  -0.67409  -0.65679  -0.65469
 Alpha  occ. eigenvalues --   -0.64969  -0.64673  -0.64217  -0.63721  -0.63630
 Alpha  occ. eigenvalues --   -0.63333  -0.63064  -0.62780  -0.62141  -0.61952
 Alpha  occ. eigenvalues --   -0.61738  -0.61278  -0.60616  -0.60485  -0.60202
 Alpha  occ. eigenvalues --   -0.59493  -0.59298  -0.58962  -0.58239  -0.58100
 Alpha  occ. eigenvalues --   -0.57935  -0.57608  -0.56755  -0.56659  -0.55866
 Alpha  occ. eigenvalues --   -0.55819  -0.55553  -0.55138  -0.54886  -0.54776
 Alpha  occ. eigenvalues --   -0.54436  -0.54074  -0.53643  -0.53460  -0.53050
 Alpha  occ. eigenvalues --   -0.52825  -0.52692  -0.52359  -0.52131  -0.52021
 Alpha  occ. eigenvalues --   -0.51393  -0.51198  -0.51094  -0.50998  -0.50381
 Alpha  occ. eigenvalues --   -0.50316  -0.49805  -0.49671  -0.49250  -0.48975
 Alpha  occ. eigenvalues --   -0.48777  -0.48454  -0.48247  -0.48169  -0.47779
 Alpha  occ. eigenvalues --   -0.47546  -0.47249  -0.47159  -0.47023  -0.46985
 Alpha  occ. eigenvalues --   -0.46904  -0.46322  -0.46125  -0.45900  -0.45744
 Alpha  occ. eigenvalues --   -0.45490  -0.45112  -0.44923  -0.44768  -0.44733
 Alpha  occ. eigenvalues --   -0.44230  -0.44164  -0.43464  -0.43363  -0.42779
 Alpha  occ. eigenvalues --   -0.41826  -0.41543  -0.40904  -0.39068  -0.38626
 Alpha  occ. eigenvalues --   -0.38043  -0.37837  -0.35344  -0.34509  -0.34430
 Alpha  occ. eigenvalues --   -0.33105  -0.32893  -0.32282  -0.32017  -0.26720
 Alpha  occ. eigenvalues --   -0.22918
 Alpha virt. eigenvalues --   -0.09714  -0.02358  -0.00922   0.00914   0.01015
 Alpha virt. eigenvalues --    0.01790   0.02212   0.02389   0.04533   0.04799
 Alpha virt. eigenvalues --    0.05589   0.06618   0.06842   0.07190   0.07536

 Mulliken charges:
               1
     1  Mg   0.434795
     2  C   -0.024127
     3  C   -0.057526
     4  C   -0.119172
     5  C   -0.088186
     6  N   -0.265603
     7  C    0.085154
     8  C    0.001008
     9  C   -0.001075
    10  C    0.149749
    11  C   -0.053845
    12  C   -0.018086
    13  C   -0.003657
    14  C    0.483083
    15  O   -0.522144
    16  O   -0.257628
    17  N   -0.355093
    18  C    0.120201
    19  C    0.068893
    20  C   -0.060640
    21  C    0.163267
    22  C   -0.030422
    23  C    0.333841
    24  O   -0.515705
    25  C   -0.038226
    26  N   -0.289840
    27  C    0.185261
    28  C   -0.001782
    29  C    0.001308
    30  C    0.095144
    31  C   -0.056126
    32  C   -0.033726
    33  C   -0.066388
    34  N   -0.285880
    35  C    0.056853
    36  C    0.012079
    37  C   -0.064612
    38  C    0.100947
    39  C   -0.030334
    40  C    0.329273
    41  O   -0.533485
    42  C    0.053911
    43  C    0.473450
    44  O   -0.516149
    45  O   -0.252071
    46  C    0.078163
    47  C    0.100068
    48  C   -0.092824
    49  C    0.001062
    50  C   -0.041974
    51  C   -0.027328
    52  C   -0.043384
    53  C   -0.030735
    54  C   -0.018358
    55  C   -0.050409
    56  C   -0.054713
    57  C   -0.039475
    58  C   -0.029476
    59  C   -0.013363
    60  C   -0.069551
    61  C   -0.038384
    62  C   -0.049430
    63  C   -0.030512
    64  C   -0.013663
    65  C   -0.059328
    66  C   -0.052179
    67  H    0.022247
    68  H    0.020378
    69  H    0.028949
    70  H    0.048638
    71  H    0.021606
    72  H    0.033574
    73  H    0.027809
    74  H    0.038293
    75  H    0.026525
    76  H    0.039123
    77  H    0.044519
    78  H    0.028428
    79  H    0.054266
    80  H    0.036201
    81  H    0.027788
    82  H    0.038923
    83  H    0.028656
    84  H    0.026073
    85  H    0.035035
    86  H    0.024541
    87  H    0.019911
    88  H    0.023539
    89  H    0.038351
    90  H    0.019400
    91  H    0.022320
    92  H    0.021771
    93  H    0.028223
    94  H    0.027696
    95  H    0.028004
    96  H    0.031305
    97  H    0.037794
    98  H    0.060386
    99  H    0.025823
   100  H    0.059290
   101  H    0.022439
   102  H    0.038611
   103  H    0.057954
   104  H    0.025990
   105  H    0.028495
   106  H    0.026349
   107  H    0.026368
   108  H    0.015182
   109  H    0.016980
   110  H    0.027222
   111  H    0.022701
   112  H    0.024560
   113  H    0.017736
   114  H    0.030294
   115  H    0.017980
   116  H    0.024671
   117  H    0.018444
   118  H    0.022085
   119  H    0.018301
   120  H    0.014642
   121  H    0.020320
   122  H    0.021180
   123  H    0.017058
   124  H    0.018813
   125  H    0.009448
   126  H    0.024831
   127  H    0.022181
   128  H    0.018681
   129  H    0.003177
   130  H    0.041408
   131  H    0.036545
   132  H    0.017433
   133  H    0.011659
   134  H    0.008875
   135  H    0.014567
   136  H    0.021299
   137  H    0.016083
   138  H    0.012626
   139  H    0.018183
   140  H    0.022352
 Sum of Mulliken charges =   0.00000

 Dipole moment (field-independent basis, Debye):
    X=             -3.3769    Y=              9.6475    Z=              1.5036  Tot=             10.3314
 N-N= 4.267612365217D+03 E-N= 0.000000000000D+00  KE=-9.208661108520D+03
 Leave Link  601 at Sat Apr 30 07:55:53 2022, MaxMem=  6710886400 cpu:               1.0 elap:               0.1
 (Enter /sw/apps/gaussian-16.0/g16/l9999.exe)
 1\1\GINC-BP1-COMPUTE070\SP\RZINDO CIS\STO-3G\C55H74Mg1N4O6\OF15641\30-
 Apr-2022\0\\#p ZINDO=(nstates=5)\\step_651_chromophore_2 ZINDO\\0,1\Mg
 ,0,3.465,-0.082,44.426\C,0,6.228,1.857,43.958\C,0,1.587,2.414,42.783\C
 ,0,0.808,-2.125,44.482\C,0,5.494,-2.751,45.555\N,0,3.872,1.903,43.386\
 C,0,5.152,2.381,43.197\C,0,5.192,3.547,42.157\C,0,3.65,3.872,42.119\C,
 0,2.977,2.625,42.672\C,0,3.258,5.241,42.812\C,0,5.778,2.928,40.845\C,0
 ,6.943,3.733,40.186\C,0,6.736,4.34,38.851\O,0,6.464,5.501,38.629\O,0,6

 Normal termination of Gaussian 16 at Sat Apr 30 07:55:53 2022.
