 Gaussian 16, Revision A.03,
 Gaussian 16:  ES64L-G16RevA.03 25-Dec-2016

 ------------------------------
 #p blyp/Def2SVP td=(nstates=5)
 ------------------------------

 --------------------------------------------------
 step_801_chromophore_10 TDDFT with blyp functional
 --------------------------------------------------
 Symbolic Z-matrix:
 Charge =  0 Multiplicity = 1

                         Standard orientation:
 ---------------------------------------------------------------------
 Center     Atomic      Atomic             Coordinates (Angstroms)
 Number     Number       Type             X           Y           Z
 ---------------------------------------------------------------------
      1         12           0        5.976080    0.323804   -0.050249
      2          6           0        3.602005   -2.147863   -0.062014
      3          6           0        3.708862    2.697439   -0.913116
      4          6           0        8.473079    2.827987    0.069361
      5          6           0        8.419900   -2.065878    0.568129
      6          7           0        3.928438    0.236377   -0.436226
      7          6           0        3.105662   -0.866291   -0.464562
      8          6           0        1.670235   -0.527758   -0.670794
      9          6           0        1.751436    1.007448   -0.907690
     10          6           0        3.178567    1.350513   -0.703635
     11          6           0        1.271791    1.413294   -2.290929
     12          6           0        0.476016   -0.974606    0.317604
     13          6           0       -0.948750   -0.721777   -0.133673
     14          6           0       -1.993980   -1.650692    0.466389
     15          8           0       -2.418465   -1.708372    1.620406
     16          8           0       -2.572250   -2.313930   -0.546776
     17          7           0        6.062872    2.511497   -0.310171
     18          6           0        5.019214    3.236148   -0.674628
     19          6           0        5.384091    4.570905   -0.847412
     20          6           0        6.737283    4.692582   -0.488575
     21          6           0        7.135017    3.344827   -0.193260
     22          6           0        4.369177    5.739305   -1.153639
     23          6           0        7.561009    5.897340   -0.478453
     24          8           0        8.784173    5.807947   -0.429899
     25          6           0        6.980973    7.327074   -0.507386
     26          7           0        8.182293    0.412508    0.077536
     27          6           0        8.919087    1.559809    0.275070
     28          6           0       10.415225    1.210000    0.594703
     29          6           0       10.233036   -0.306322    1.095775
     30          6           0        8.899725   -0.712751    0.409327
     31          6           0       11.335385    1.329716   -0.622652
     32          6           0       10.163191   -0.456654    2.614844
     33          6           0        9.622129    0.685184    3.470514
     34          7           0        6.047517   -1.717176    0.073759
     35          6           0        7.085422   -2.570508    0.336016
     36          6           0        6.635378   -3.917078    0.497490
     37          6           0        5.200318   -3.827456    0.424175
     38          6           0        4.943566   -2.493245    0.171647
     39          6           0        7.470487   -5.103846    0.842315
     40          6           0        3.976998   -4.522179    0.400966
     41          8           0        3.736786   -5.649490    0.701150
     42          6           0        2.863544   -3.403735    0.027776
     43          6           0        2.188024   -3.682482   -1.232762
     44          8           0        2.628498   -3.651971   -2.400641
     45          8           0        0.811455   -3.866849   -0.997029
     46          6           0        0.026721   -4.007789   -2.200315
     47          6           0       -3.664572   -3.200754   -0.246402
     48          6           0       -4.931885   -2.421808    0.087176
     49          6           0       -6.123067   -2.788465    0.601921
     50          6           0       -6.663032   -4.204919    0.695655
     51          6           0       -7.053216   -1.729976    1.260179
     52          6           0       -7.520143   -0.571125    0.387641
     53          6           0       -7.931386   -0.854687   -1.016923
     54          6           0       -9.475029   -0.634466   -1.201647
     55          6           0       -9.929666   -1.609703   -2.329466
     56          6           0       -9.856633    0.868905   -1.453036
     57          6           0      -10.911017    1.362899   -0.473235
     58          6           0      -10.512529    1.729039    0.980918
     59          6           0      -11.533810    2.725032    1.584777
     60          6           0      -10.734645    3.846263    2.332456
     61          6           0      -12.606381    2.049712    2.459089
     62          6           0      -13.979633    2.361065    1.930383
     63          6           0      -14.614703    1.223648    1.068263
     64          6           0      -14.763796    1.615592   -0.340012
     65          6           0      -16.027703    2.451458   -0.574210
     66          6           0      -14.613135    0.386089   -1.284002
     67          1           0        2.915447    3.415664   -1.131660
     68          1           0        9.235187    3.584828    0.265471
     69          1           0        9.213799   -2.721412    0.932133
     70          1           0        1.414008   -0.998247   -1.620454
     71          1           0        1.147122    1.587314   -0.210285
     72          1           0        0.688952    2.329463   -2.191580
     73          1           0        0.717050    0.568589   -2.700212
     74          1           0        2.165225    1.631341   -2.877022
     75          1           0        0.567434   -0.319585    1.184976
     76          1           0        0.539455   -2.020767    0.615936
     77          1           0       -0.926732   -0.809332   -1.219969
     78          1           0       -1.130763    0.278029    0.260241
     79          1           0        4.322779    6.396693   -0.285247
     80          1           0        3.412013    5.372191   -1.524344
     81          1           0        4.851601    6.223672   -2.002550
     82          1           0        6.197125    7.501316    0.230117
     83          1           0        6.585839    7.328325   -1.523760
     84          1           0        7.797244    8.047678   -0.461926
     85          1           0       10.857503    1.787847    1.406006
     86          1           0       11.131555   -0.827469    0.764294
     87          1           0       11.662363    0.374171   -1.032412
     88          1           0       12.158988    1.897752   -0.191601
     89          1           0       10.675977    1.863739   -1.307675
     90          1           0       11.209437   -0.614550    2.877093
     91          1           0        9.616668   -1.342861    2.939465
     92          1           0        8.992361    0.366739    4.300751
     93          1           0        8.973390    1.409650    2.977397
     94          1           0       10.401965    1.238593    3.994518
     95          1           0        8.377156   -4.852809    1.393024
     96          1           0        7.687128   -5.549828   -0.127910
     97          1           0        6.795969   -5.787032    1.358854
     98          1           0        2.152337   -3.240623    0.837405
     99          1           0       -0.959987   -4.109132   -1.750280
    100          1           0        0.219712   -4.958503   -2.699351
    101          1           0        0.218674   -3.113398   -2.792385
    102          1           0       -3.430969   -3.822808    0.618271
    103          1           0       -3.780117   -3.896878   -1.076339
    104          1           0       -4.773663   -1.343821    0.070422
    105          1           0       -5.928121   -4.974520    0.460137
    106          1           0       -7.572213   -4.354102    0.112380
    107          1           0       -6.891109   -4.477343    1.726451
    108          1           0       -6.628046   -1.405993    2.209603
    109          1           0       -7.960344   -2.246391    1.572626
    110          1           0       -6.629889    0.038170    0.234519
    111          1           0       -8.234933    0.034539    0.945367
    112          1           0       -7.725327   -1.902979   -1.233835
    113          1           0       -7.395733   -0.183403   -1.687900
    114          1           0       -9.932437   -0.992647   -0.279113
    115          1           0      -10.557190   -2.397974   -1.911937
    116          1           0       -9.134759   -1.946182   -2.994569
    117          1           0      -10.673716   -1.156153   -2.983685
    118          1           0      -10.172085    1.120851   -2.465167
    119          1           0       -9.023540    1.504249   -1.152620
    120          1           0      -11.671205    0.581957   -0.477719
    121          1           0      -11.460293    2.167585   -0.962613
    122          1           0       -9.519805    2.176758    1.022369
    123          1           0      -10.521567    0.798791    1.548956
    124          1           0      -12.054150    3.218617    0.764086
    125          1           0       -9.912886    4.276127    1.760868
    126          1           0      -10.446783    3.452369    3.306894
    127          1           0      -11.452820    4.642022    2.533194
    128          1           0      -12.643359    2.457322    3.469796
    129          1           0      -12.423654    0.982639    2.586208
    130          1           0      -14.101316    3.347468    1.483546
    131          1           0      -14.602675    2.421085    2.822868
    132          1           0      -15.534104    0.802248    1.474504
    133          1           0      -13.929447    0.379310    1.146002
    134          1           0      -14.019492    2.384513   -0.545975
    135          1           0      -15.662833    3.308731   -1.140148
    136          1           0      -16.545268    2.736449    0.341803
    137          1           0      -16.677684    1.879588   -1.235645
    138          1           0      -13.651449    0.286733   -1.788663
    139          1           0      -15.327065    0.524975   -2.095419
    140          1           0      -14.907395   -0.493452   -0.712366
 ---------------------------------------------------------------------

 SCF Done:  E(RB-LYP) =  -3007.36452920     A.U. after   20 cycles

 Excitation energies and oscillator strengths:

 Excited State   1:      Singlet-A      1.6763 eV  739.64 nm  f=0.0328  <S**2>=0.000
     244 -> 247        0.63556
     245 -> 247       -0.11032
     246 -> 247       -0.28603
 This state for optimization and/or second-order correction.
 Total Energy, E(TD-HF/TD-DFT) =  -3007.30292748
 Copying the excited state density for this state as the 1-particle RhoCI density.

 Excited State   2:      Singlet-A      1.8087 eV  685.47 nm  f=0.2441  <S**2>=0.000
     244 -> 247        0.27906
     245 -> 248       -0.19420
     246 -> 247        0.62652
     246 <- 247       -0.14182

 Excited State   3:      Singlet-A      1.9313 eV  641.99 nm  f=0.1174  <S**2>=0.000
     244 -> 247        0.12667
     245 -> 247        0.64972
     246 -> 248        0.21642
     245 <- 247       -0.10189

 Excited State   4:      Singlet-A      2.0920 eV  592.65 nm  f=0.0019  <S**2>=0.000
     243 -> 247        0.70196

 Excited State   5:      Singlet-A      2.1447 eV  578.09 nm  f=0.0000  <S**2>=0.000
     242 -> 247        0.70706

 The electronic state is 1-A.
 Alpha  occ. eigenvalues --  -46.27679 -18.83124 -18.81695 -18.77100 -18.77029
 Alpha  occ. eigenvalues --  -18.76461 -18.75010 -14.04231 -14.03198 -14.00981
 Alpha  occ. eigenvalues --  -14.00975 -10.04748 -10.04008 -10.00024  -9.99472
 Alpha  occ. eigenvalues --   -9.98774  -9.97378  -9.97358  -9.97172  -9.96834
 Alpha  occ. eigenvalues --   -9.95989  -9.95926  -9.95819  -9.95131  -9.94938
 Alpha  occ. eigenvalues --   -9.94411  -9.94155  -9.94135  -9.94093  -9.93927
 Alpha  occ. eigenvalues --   -9.93811  -9.93635  -9.93581  -9.93548  -9.93489
 Alpha  occ. eigenvalues --   -9.93479  -9.93386  -9.93375  -9.92957  -9.92785
 Alpha  occ. eigenvalues --   -9.92613  -9.92458  -9.92221  -9.92167  -9.92116
 Alpha  occ. eigenvalues --   -9.92056  -9.91827  -9.91802  -9.91717  -9.91649
 Alpha  occ. eigenvalues --   -9.91575  -9.91478  -9.91199  -9.91032  -9.90979
 Alpha  occ. eigenvalues --   -9.90963  -9.90960  -9.90887  -9.90837  -9.90723
 Alpha  occ. eigenvalues --   -9.90636  -9.90623  -9.90585  -9.90517  -9.90460
 Alpha  occ. eigenvalues --   -9.90298  -2.92221  -1.72662  -1.72065  -1.71964
 Alpha  occ. eigenvalues --   -0.99757  -0.96969  -0.93572  -0.91180  -0.90181
 Alpha  occ. eigenvalues --   -0.88843  -0.87440  -0.86976  -0.86368  -0.84654
 Alpha  occ. eigenvalues --   -0.76874  -0.74044  -0.73658  -0.73245  -0.72110
 Alpha  occ. eigenvalues --   -0.71904  -0.71681  -0.71147  -0.70939  -0.70577
 Alpha  occ. eigenvalues --   -0.70450  -0.69861  -0.68335  -0.67858  -0.67481
 Alpha  occ. eigenvalues --   -0.66639  -0.66099  -0.65455  -0.64896  -0.64402
 Alpha  occ. eigenvalues --   -0.64214  -0.63237  -0.62567  -0.61614  -0.60765
 Alpha  occ. eigenvalues --   -0.60379  -0.60235  -0.59730  -0.59470  -0.59390
 Alpha  occ. eigenvalues --   -0.59252  -0.58103  -0.56694  -0.55781  -0.54828
 Alpha  occ. eigenvalues --   -0.54689  -0.53626  -0.53512  -0.52485  -0.52127
 Alpha  occ. eigenvalues --   -0.51263  -0.51060  -0.50576  -0.50053  -0.49890
 Alpha  occ. eigenvalues --   -0.49571  -0.48946  -0.48420  -0.47978  -0.46989
 Alpha  occ. eigenvalues --   -0.46632  -0.46613  -0.46193  -0.45716  -0.45139
 Alpha  occ. eigenvalues --   -0.44572  -0.44118  -0.43936  -0.43152  -0.42286
 Alpha  occ. eigenvalues --   -0.42105  -0.41944  -0.41674  -0.41563  -0.41257
 Alpha  occ. eigenvalues --   -0.41141  -0.40863  -0.40695  -0.40468  -0.40303
 Alpha  occ. eigenvalues --   -0.39987  -0.39702  -0.39551  -0.39459  -0.39204
 Alpha  occ. eigenvalues --   -0.39141  -0.38787  -0.38573  -0.38213  -0.38077
 Alpha  occ. eigenvalues --   -0.38029  -0.37690  -0.37560  -0.37544  -0.37482
 Alpha  occ. eigenvalues --   -0.37303  -0.37157  -0.36959  -0.36835  -0.36781
 Alpha  occ. eigenvalues --   -0.36677  -0.36491  -0.36401  -0.36014  -0.35873
 Alpha  occ. eigenvalues --   -0.35763  -0.35541  -0.35474  -0.35173  -0.34986
 Alpha  occ. eigenvalues --   -0.34851  -0.34651  -0.34509  -0.34227  -0.34103
 Alpha  occ. eigenvalues --   -0.34014  -0.33927  -0.33833  -0.33781  -0.33242
 Alpha  occ. eigenvalues --   -0.33083  -0.32758  -0.32608  -0.32438  -0.32324
 Alpha  occ. eigenvalues --   -0.32108  -0.31903  -0.31818  -0.31671  -0.31458
 Alpha  occ. eigenvalues --   -0.31364  -0.31183  -0.31052  -0.30955  -0.30759
 Alpha  occ. eigenvalues --   -0.30608  -0.30412  -0.30210  -0.30099  -0.30073
 Alpha  occ. eigenvalues --   -0.29958  -0.29922  -0.29781  -0.29300  -0.29053
 Alpha  occ. eigenvalues --   -0.28717  -0.28428  -0.28185  -0.28056  -0.27734
 Alpha  occ. eigenvalues --   -0.27183  -0.26950  -0.26843  -0.26786  -0.26611
 Alpha  occ. eigenvalues --   -0.26207  -0.26185  -0.25975  -0.25588  -0.25073
 Alpha  occ. eigenvalues --   -0.24939  -0.24608  -0.24153  -0.23931  -0.23897
 Alpha  occ. eigenvalues --   -0.23704  -0.22461  -0.22263  -0.21913  -0.21107
 Alpha  occ. eigenvalues --   -0.20690  -0.19957  -0.19650  -0.18240  -0.17249
 Alpha  occ. eigenvalues --   -0.16269
 Alpha virt. eigenvalues --   -0.12076  -0.07071  -0.06384  -0.04623  -0.03802
 Alpha virt. eigenvalues --   -0.03549  -0.02703  -0.02011  -0.01340  -0.00217
 Alpha virt. eigenvalues --    0.00835   0.01243   0.01958   0.02379   0.02422

 Mulliken charges:
               1
     1  Mg   0.694569
     2  C   -0.033341
     3  C   -0.071206
     4  C   -0.009298
     5  C   -0.079192
     6  N   -0.256135
     7  C   -0.058848
     8  C    0.091046
     9  C   -0.047128
    10  C    0.022625
    11  C    0.144563
    12  C    0.069328
    13  C    0.147845
    14  C    0.061238
    15  O   -0.191246
    16  O   -0.242503
    17  N   -0.200075
    18  C    0.133105
    19  C   -0.182095
    20  C    0.107697
    21  C    0.028208
    22  C    0.183107
    23  C   -0.137998
    24  O   -0.174912
    25  C    0.151167
    26  N   -0.211177
    27  C    0.017677
    28  C   -0.055780
    29  C    0.007752
    30  C    0.037514
    31  C    0.166825
    32  C    0.109314
    33  C    0.054024
    34  N   -0.262251
    35  C    0.155226
    36  C   -0.201448
    37  C    0.123524
    38  C    0.050998
    39  C    0.193554
    40  C   -0.087369
    41  O   -0.085463
    42  C    0.062416
    43  C    0.137500
    44  O   -0.207490
    45  O   -0.302994
    46  C    0.228405
    47  C    0.319186
    48  C   -0.099780
    49  C   -0.160037
    50  C    0.136442
    51  C    0.150459
    52  C    0.062497
    53  C    0.111149
    54  C   -0.094831
    55  C    0.111000
    56  C    0.166837
    57  C   -0.023530
    58  C    0.120276
    59  C   -0.060061
    60  C    0.097117
    61  C    0.142096
    62  C    0.055210
    63  C    0.120608
    64  C   -0.127838
    65  C    0.122923
    66  C    0.125312
    67  H   -0.068586
    68  H   -0.042289
    69  H   -0.052500
    70  H   -0.022586
    71  H   -0.017134
    72  H   -0.007226
    73  H   -0.001134
    74  H   -0.003510
    75  H   -0.018632
    76  H    0.014814
    77  H   -0.009983
    78  H   -0.000119
    79  H    0.019310
    80  H   -0.011638
    81  H   -0.005961
    82  H    0.011580
    83  H   -0.006046
    84  H   -0.007342
    85  H   -0.023450
    86  H   -0.043126
    87  H   -0.002646
    88  H   -0.003666
    89  H    0.001859
    90  H   -0.027492
    91  H   -0.022107
    92  H   -0.024266
    93  H    0.002110
    94  H   -0.013819
    95  H    0.004022
    96  H    0.007558
    97  H    0.009313
    98  H    0.003358
    99  H    0.004294
   100  H    0.011689
   101  H    0.016875
   102  H    0.006724
   103  H    0.003716
   104  H   -0.025671
   105  H   -0.029815
   106  H    0.005449
   107  H   -0.009166
   108  H   -0.009240
   109  H   -0.057233
   110  H   -0.042072
   111  H   -0.028500
   112  H   -0.026288
   113  H   -0.033164
   114  H   -0.034401
   115  H   -0.023134
   116  H   -0.005756
   117  H   -0.042520
   118  H   -0.030919
   119  H   -0.048131
   120  H   -0.025934
   121  H   -0.039457
   122  H   -0.027722
   123  H   -0.018041
   124  H   -0.032881
   125  H   -0.006871
   126  H   -0.013416
   127  H   -0.028187
   128  H   -0.045830
   129  H   -0.035787
   130  H   -0.027408
   131  H   -0.056273
   132  H   -0.039775
   133  H   -0.052618
   134  H   -0.037176
   135  H   -0.021366
   136  H   -0.009769
   137  H   -0.026485
   138  H   -0.001238
   139  H   -0.038449
   140  H   -0.013036
 Sum of Mulliken charges =  -0.00000

 Dipole moment (field-independent basis, Debye):
    X=             -2.5907    Y=              2.4118    Z=              0.4294  Tot=              3.5655
 Quadrupole moment (field-independent basis, Debye-Ang):
   XX=           -391.6177   YY=           -421.0642   ZZ=           -411.4012
   XY=             -7.4232   XZ=             18.4972   YZ=             -0.8194

 Normal termination of Gaussian 16 at Sat Apr 30 16:03:18 2022.
