 Gaussian 16, Revision A.03,
 Gaussian 16:  ES64L-G16RevA.03 25-Dec-2016

 -----------------------------------
 #p cam-b3lyp/Def2SVP td=(nstates=5)
 -----------------------------------

 -------------------------------------------------------
 step_801_chromophore_10 TDDFT with cam-b3lyp functional
 -------------------------------------------------------
 Symbolic Z-matrix:
 Charge =  0 Multiplicity = 1

                         Standard orientation:
 ---------------------------------------------------------------------
 Center     Atomic      Atomic             Coordinates (Angstroms)
 Number     Number       Type             X           Y           Z
 ---------------------------------------------------------------------
      1         12           0        5.976080    0.323804   -0.050249
      2          6           0        3.602005   -2.147863   -0.062014
      3          6           0        3.708862    2.697439   -0.913116
      4          6           0        8.473079    2.827987    0.069361
      5          6           0        8.419900   -2.065878    0.568129
      6          7           0        3.928438    0.236377   -0.436226
      7          6           0        3.105662   -0.866291   -0.464562
      8          6           0        1.670235   -0.527758   -0.670794
      9          6           0        1.751436    1.007448   -0.907690
     10          6           0        3.178567    1.350513   -0.703635
     11          6           0        1.271791    1.413294   -2.290929
     12          6           0        0.476016   -0.974606    0.317604
     13          6           0       -0.948750   -0.721777   -0.133673
     14          6           0       -1.993980   -1.650692    0.466389
     15          8           0       -2.418465   -1.708372    1.620406
     16          8           0       -2.572250   -2.313930   -0.546776
     17          7           0        6.062872    2.511497   -0.310171
     18          6           0        5.019214    3.236148   -0.674628
     19          6           0        5.384091    4.570905   -0.847412
     20          6           0        6.737283    4.692582   -0.488575
     21          6           0        7.135017    3.344827   -0.193260
     22          6           0        4.369177    5.739305   -1.153639
     23          6           0        7.561009    5.897340   -0.478453
     24          8           0        8.784173    5.807947   -0.429899
     25          6           0        6.980973    7.327074   -0.507386
     26          7           0        8.182293    0.412508    0.077536
     27          6           0        8.919087    1.559809    0.275070
     28          6           0       10.415225    1.210000    0.594703
     29          6           0       10.233036   -0.306322    1.095775
     30          6           0        8.899725   -0.712751    0.409327
     31          6           0       11.335385    1.329716   -0.622652
     32          6           0       10.163191   -0.456654    2.614844
     33          6           0        9.622129    0.685184    3.470514
     34          7           0        6.047517   -1.717176    0.073759
     35          6           0        7.085422   -2.570508    0.336016
     36          6           0        6.635378   -3.917078    0.497490
     37          6           0        5.200318   -3.827456    0.424175
     38          6           0        4.943566   -2.493245    0.171647
     39          6           0        7.470487   -5.103846    0.842315
     40          6           0        3.976998   -4.522179    0.400966
     41          8           0        3.736786   -5.649490    0.701150
     42          6           0        2.863544   -3.403735    0.027776
     43          6           0        2.188024   -3.682482   -1.232762
     44          8           0        2.628498   -3.651971   -2.400641
     45          8           0        0.811455   -3.866849   -0.997029
     46          6           0        0.026721   -4.007789   -2.200315
     47          6           0       -3.664572   -3.200754   -0.246402
     48          6           0       -4.931885   -2.421808    0.087176
     49          6           0       -6.123067   -2.788465    0.601921
     50          6           0       -6.663032   -4.204919    0.695655
     51          6           0       -7.053216   -1.729976    1.260179
     52          6           0       -7.520143   -0.571125    0.387641
     53          6           0       -7.931386   -0.854687   -1.016923
     54          6           0       -9.475029   -0.634466   -1.201647
     55          6           0       -9.929666   -1.609703   -2.329466
     56          6           0       -9.856633    0.868905   -1.453036
     57          6           0      -10.911017    1.362899   -0.473235
     58          6           0      -10.512529    1.729039    0.980918
     59          6           0      -11.533810    2.725032    1.584777
     60          6           0      -10.734645    3.846263    2.332456
     61          6           0      -12.606381    2.049712    2.459089
     62          6           0      -13.979633    2.361065    1.930383
     63          6           0      -14.614703    1.223648    1.068263
     64          6           0      -14.763796    1.615592   -0.340012
     65          6           0      -16.027703    2.451458   -0.574210
     66          6           0      -14.613135    0.386089   -1.284002
     67          1           0        2.915447    3.415664   -1.131660
     68          1           0        9.235187    3.584828    0.265471
     69          1           0        9.213799   -2.721412    0.932133
     70          1           0        1.414008   -0.998247   -1.620454
     71          1           0        1.147122    1.587314   -0.210285
     72          1           0        0.688952    2.329463   -2.191580
     73          1           0        0.717050    0.568589   -2.700212
     74          1           0        2.165225    1.631341   -2.877022
     75          1           0        0.567434   -0.319585    1.184976
     76          1           0        0.539455   -2.020767    0.615936
     77          1           0       -0.926732   -0.809332   -1.219969
     78          1           0       -1.130763    0.278029    0.260241
     79          1           0        4.322779    6.396693   -0.285247
     80          1           0        3.412013    5.372191   -1.524344
     81          1           0        4.851601    6.223672   -2.002550
     82          1           0        6.197125    7.501316    0.230117
     83          1           0        6.585839    7.328325   -1.523760
     84          1           0        7.797244    8.047678   -0.461926
     85          1           0       10.857503    1.787847    1.406006
     86          1           0       11.131555   -0.827469    0.764294
     87          1           0       11.662363    0.374171   -1.032412
     88          1           0       12.158988    1.897752   -0.191601
     89          1           0       10.675977    1.863739   -1.307675
     90          1           0       11.209437   -0.614550    2.877093
     91          1           0        9.616668   -1.342861    2.939465
     92          1           0        8.992361    0.366739    4.300751
     93          1           0        8.973390    1.409650    2.977397
     94          1           0       10.401965    1.238593    3.994518
     95          1           0        8.377156   -4.852809    1.393024
     96          1           0        7.687128   -5.549828   -0.127910
     97          1           0        6.795969   -5.787032    1.358854
     98          1           0        2.152337   -3.240623    0.837405
     99          1           0       -0.959987   -4.109132   -1.750280
    100          1           0        0.219712   -4.958503   -2.699351
    101          1           0        0.218674   -3.113398   -2.792385
    102          1           0       -3.430969   -3.822808    0.618271
    103          1           0       -3.780117   -3.896878   -1.076339
    104          1           0       -4.773663   -1.343821    0.070422
    105          1           0       -5.928121   -4.974520    0.460137
    106          1           0       -7.572213   -4.354102    0.112380
    107          1           0       -6.891109   -4.477343    1.726451
    108          1           0       -6.628046   -1.405993    2.209603
    109          1           0       -7.960344   -2.246391    1.572626
    110          1           0       -6.629889    0.038170    0.234519
    111          1           0       -8.234933    0.034539    0.945367
    112          1           0       -7.725327   -1.902979   -1.233835
    113          1           0       -7.395733   -0.183403   -1.687900
    114          1           0       -9.932437   -0.992647   -0.279113
    115          1           0      -10.557190   -2.397974   -1.911937
    116          1           0       -9.134759   -1.946182   -2.994569
    117          1           0      -10.673716   -1.156153   -2.983685
    118          1           0      -10.172085    1.120851   -2.465167
    119          1           0       -9.023540    1.504249   -1.152620
    120          1           0      -11.671205    0.581957   -0.477719
    121          1           0      -11.460293    2.167585   -0.962613
    122          1           0       -9.519805    2.176758    1.022369
    123          1           0      -10.521567    0.798791    1.548956
    124          1           0      -12.054150    3.218617    0.764086
    125          1           0       -9.912886    4.276127    1.760868
    126          1           0      -10.446783    3.452369    3.306894
    127          1           0      -11.452820    4.642022    2.533194
    128          1           0      -12.643359    2.457322    3.469796
    129          1           0      -12.423654    0.982639    2.586208
    130          1           0      -14.101316    3.347468    1.483546
    131          1           0      -14.602675    2.421085    2.822868
    132          1           0      -15.534104    0.802248    1.474504
    133          1           0      -13.929447    0.379310    1.146002
    134          1           0      -14.019492    2.384513   -0.545975
    135          1           0      -15.662833    3.308731   -1.140148
    136          1           0      -16.545268    2.736449    0.341803
    137          1           0      -16.677684    1.879588   -1.235645
    138          1           0      -13.651449    0.286733   -1.788663
    139          1           0      -15.327065    0.524975   -2.095419
    140          1           0      -14.907395   -0.493452   -0.712366
 ---------------------------------------------------------------------

 SCF Done:  E(RCAM-B3LYP) =  -3007.16851261     A.U. after   16 cycles

 Excitation energies and oscillator strengths:

 Excited State   1:      Singlet-A      1.6861 eV  735.32 nm  f=0.3693  <S**2>=0.000
     245 -> 248       -0.18320
     246 -> 247        0.68381
     245 <- 248       -0.10860
 This state for optimization and/or second-order correction.
 Total Energy, E(TD-HF/TD-DFT) =  -3007.10654861
 Copying the excited state density for this state as the 1-particle RhoCI density.

 Excited State   2:      Singlet-A      2.0946 eV  591.92 nm  f=0.1730  <S**2>=0.000
     245 -> 247        0.65907
     246 -> 248        0.24318

 Excited State   3:      Singlet-A      3.2987 eV  375.86 nm  f=0.0021  <S**2>=0.000
     243 -> 247        0.69178

 Excited State   4:      Singlet-A      3.4532 eV  359.04 nm  f=0.0282  <S**2>=0.000
     240 -> 247       -0.14191
     242 -> 247        0.58857
     246 -> 248        0.30544

 Excited State   5:      Singlet-A      3.5290 eV  351.33 nm  f=0.0001  <S**2>=0.000
     241 -> 247        0.58339
     241 -> 249       -0.24326
     241 -> 250        0.19271
     242 -> 249       -0.11865
     242 -> 250        0.10593

 The electronic state is 1-A.
 Alpha  occ. eigenvalues --  -46.89229 -19.26024 -19.24798 -19.20360 -19.20085
 Alpha  occ. eigenvalues --  -19.19643 -19.18191 -14.43258 -14.42047 -14.39409
 Alpha  occ. eigenvalues --  -14.39373 -10.40037 -10.39777 -10.35400 -10.34612
 Alpha  occ. eigenvalues --  -10.32800 -10.32010 -10.31928 -10.31324 -10.31203
 Alpha  occ. eigenvalues --  -10.30367 -10.30333 -10.30084 -10.29337 -10.29074
 Alpha  occ. eigenvalues --  -10.28743 -10.28649 -10.28119 -10.28119 -10.28111
 Alpha  occ. eigenvalues --  -10.28082 -10.27973 -10.27923 -10.27886 -10.27662
 Alpha  occ. eigenvalues --  -10.27597 -10.27412 -10.27333 -10.27096 -10.26527
 Alpha  occ. eigenvalues --  -10.26401 -10.26312 -10.26252 -10.26097 -10.26090
 Alpha  occ. eigenvalues --  -10.25871 -10.25810 -10.25562 -10.25422 -10.25303
 Alpha  occ. eigenvalues --  -10.25266 -10.25221 -10.25020 -10.24714 -10.24634
 Alpha  occ. eigenvalues --  -10.24625 -10.24560 -10.24506 -10.24452 -10.24354
 Alpha  occ. eigenvalues --  -10.24295 -10.24249 -10.24181 -10.24099 -10.24094
 Alpha  occ. eigenvalues --  -10.23918  -3.17675  -1.92593  -1.92102  -1.92003
 Alpha  occ. eigenvalues --   -1.18250  -1.15640  -1.12077  -1.09563  -1.08074
 Alpha  occ. eigenvalues --   -1.06926  -1.05243  -1.04647  -1.04028  -1.02206
 Alpha  occ. eigenvalues --   -0.94174  -0.90916  -0.90528  -0.90082  -0.88795
 Alpha  occ. eigenvalues --   -0.88578  -0.88297  -0.87752  -0.87549  -0.87179
 Alpha  occ. eigenvalues --   -0.87065  -0.86316  -0.84586  -0.84130  -0.83662
 Alpha  occ. eigenvalues --   -0.82656  -0.82125  -0.81326  -0.80944  -0.80321
 Alpha  occ. eigenvalues --   -0.80046  -0.78965  -0.78261  -0.77076  -0.76161
 Alpha  occ. eigenvalues --   -0.75688  -0.75600  -0.75004  -0.74742  -0.74656
 Alpha  occ. eigenvalues --   -0.74419  -0.73183  -0.71635  -0.70610  -0.69529
 Alpha  occ. eigenvalues --   -0.69347  -0.68165  -0.68063  -0.66876  -0.66366
 Alpha  occ. eigenvalues --   -0.65493  -0.65212  -0.64547  -0.63952  -0.63882
 Alpha  occ. eigenvalues --   -0.63493  -0.62848  -0.62287  -0.61853  -0.60682
 Alpha  occ. eigenvalues --   -0.60269  -0.60243  -0.59740  -0.59300  -0.58765
 Alpha  occ. eigenvalues --   -0.57985  -0.57491  -0.57271  -0.56274  -0.55646
 Alpha  occ. eigenvalues --   -0.55238  -0.55010  -0.54865  -0.54412  -0.54079
 Alpha  occ. eigenvalues --   -0.53962  -0.53560  -0.53456  -0.53200  -0.53029
 Alpha  occ. eigenvalues --   -0.52793  -0.52657  -0.52351  -0.52036  -0.51960
 Alpha  occ. eigenvalues --   -0.51846  -0.51368  -0.50951  -0.50791  -0.50444
 Alpha  occ. eigenvalues --   -0.50321  -0.50166  -0.50005  -0.49979  -0.49863
 Alpha  occ. eigenvalues --   -0.49701  -0.49530  -0.49411  -0.49223  -0.49038
 Alpha  occ. eigenvalues --   -0.48910  -0.48742  -0.48584  -0.48468  -0.47983
 Alpha  occ. eigenvalues --   -0.47815  -0.47695  -0.47538  -0.47078  -0.46951
 Alpha  occ. eigenvalues --   -0.46678  -0.46514  -0.46458  -0.46193  -0.46089
 Alpha  occ. eigenvalues --   -0.45865  -0.45833  -0.45743  -0.45633  -0.44986
 Alpha  occ. eigenvalues --   -0.44722  -0.44596  -0.44313  -0.44070  -0.43907
 Alpha  occ. eigenvalues --   -0.43745  -0.43625  -0.43421  -0.43192  -0.43066
 Alpha  occ. eigenvalues --   -0.42858  -0.42702  -0.42466  -0.42410  -0.42355
 Alpha  occ. eigenvalues --   -0.41912  -0.41788  -0.41765  -0.41753  -0.41531
 Alpha  occ. eigenvalues --   -0.41317  -0.41231  -0.40959  -0.40623  -0.40145
 Alpha  occ. eigenvalues --   -0.39957  -0.39399  -0.39178  -0.39062  -0.38615
 Alpha  occ. eigenvalues --   -0.38355  -0.38055  -0.37867  -0.37696  -0.37337
 Alpha  occ. eigenvalues --   -0.37008  -0.36939  -0.36676  -0.36586  -0.36390
 Alpha  occ. eigenvalues --   -0.35647  -0.35136  -0.34798  -0.34780  -0.34587
 Alpha  occ. eigenvalues --   -0.34533  -0.34383  -0.33230  -0.31544  -0.31212
 Alpha  occ. eigenvalues --   -0.30633  -0.30347  -0.29980  -0.29630  -0.23866
 Alpha  occ. eigenvalues --   -0.21731
 Alpha virt. eigenvalues --   -0.09418  -0.01911   0.00123   0.02395   0.02868
 Alpha virt. eigenvalues --    0.03706   0.04146   0.04919   0.05484   0.06232
 Alpha virt. eigenvalues --    0.07589   0.08084   0.08444   0.08526   0.08662

 Mulliken charges:
               1
     1  Mg   0.827516
     2  C   -0.053385
     3  C   -0.078886
     4  C   -0.021651
     5  C   -0.090341
     6  N   -0.329283
     7  C   -0.006135
     8  C    0.033952
     9  C   -0.104774
    10  C    0.046149
    11  C    0.084236
    12  C    0.023661
    13  C    0.078791
    14  C    0.141812
    15  O   -0.231573
    16  O   -0.306365
    17  N   -0.286958
    18  C    0.135094
    19  C   -0.182074
    20  C    0.029716
    21  C    0.056578
    22  C    0.128101
    23  C   -0.059930
    24  O   -0.216928
    25  C    0.073566
    26  N   -0.277867
    27  C    0.023473
    28  C   -0.101705
    29  C   -0.048562
    30  C    0.058201
    31  C    0.107973
    32  C    0.054842
    33  C   -0.012173
    34  N   -0.352746
    35  C    0.158232
    36  C   -0.188821
    37  C    0.045677
    38  C    0.083356
    39  C    0.138511
    40  C    0.012142
    41  O   -0.125320
    42  C   -0.028157
    43  C    0.226208
    44  O   -0.241478
    45  O   -0.364027
    46  C    0.189408
    47  C    0.287461
    48  C   -0.116466
    49  C   -0.193668
    50  C    0.077140
    51  C    0.101956
    52  C    0.005534
    53  C    0.058911
    54  C   -0.148669
    55  C    0.051935
    56  C    0.111108
    57  C   -0.064886
    58  C    0.065343
    59  C   -0.116633
    60  C    0.043353
    61  C    0.084601
    62  C   -0.004652
    63  C    0.064447
    64  C   -0.183085
    65  C    0.062529
    66  C    0.065996
    67  H   -0.034696
    68  H   -0.002641
    69  H   -0.017370
    70  H    0.009259
    71  H    0.016984
    72  H    0.017142
    73  H    0.021368
    74  H    0.024982
    75  H    0.011873
    76  H    0.040496
    77  H    0.022497
    78  H    0.031613
    79  H    0.043553
    80  H    0.016064
    81  H    0.019501
    82  H    0.038194
    83  H    0.019771
    84  H    0.028790
    85  H    0.011745
    86  H   -0.006448
    87  H    0.021372
    88  H    0.019968
    89  H    0.027385
    90  H    0.001710
    91  H    0.007811
    92  H    0.002683
    93  H    0.023903
    94  H    0.010372
    95  H    0.027275
    96  H    0.034803
    97  H    0.036350
    98  H    0.050151
    99  H    0.026759
   100  H    0.036484
   101  H    0.037726
   102  H    0.036903
   103  H    0.030438
   104  H    0.003425
   105  H   -0.004805
   106  H    0.028241
   107  H    0.016010
   108  H    0.021508
   109  H   -0.027013
   110  H   -0.014367
   111  H   -0.001939
   112  H    0.002400
   113  H   -0.003092
   114  H   -0.003918
   115  H    0.001597
   116  H    0.018421
   117  H   -0.017487
   118  H   -0.000793
   119  H   -0.019474
   120  H   -0.005762
   121  H   -0.011511
   122  H   -0.000881
   123  H    0.005843
   124  H   -0.002751
   125  H    0.016811
   126  H    0.009603
   127  H   -0.004054
   128  H   -0.013831
   129  H   -0.005979
   130  H   -0.000030
   131  H   -0.023136
   132  H   -0.009621
   133  H   -0.023374
   134  H   -0.008707
   135  H    0.002961
   136  H    0.014249
   137  H   -0.001703
   138  H    0.019620
   139  H   -0.012514
   140  H    0.010978
 Sum of Mulliken charges =  -0.00000

 Dipole moment (field-independent basis, Debye):
    X=             -2.7711    Y=              2.8264    Z=              0.3906  Tot=              3.9774
 Quadrupole moment (field-independent basis, Debye-Ang):
   XX=           -391.1609   YY=           -416.6986   ZZ=           -411.7472
   XY=             -5.3657   XZ=             19.7070   YZ=             -1.0568

 Normal termination of Gaussian 16 at Sat Apr 30 14:41:54 2022.
