 Gaussian 16, Revision A.03,
 Gaussian 16:  ES64L-G16RevA.03 25-Dec-2016

 ---------------------------------
 #p PBE1PBE/Def2SVP td=(nstates=5)
 ---------------------------------

 -----------------------------------------------------
 step_801_chromophore_10 TDDFT with PBE1PBE functional
 -----------------------------------------------------
 Symbolic Z-matrix:
 Charge =  0 Multiplicity = 1

                         Standard orientation:
 ---------------------------------------------------------------------
 Center     Atomic      Atomic             Coordinates (Angstroms)
 Number     Number       Type             X           Y           Z
 ---------------------------------------------------------------------
      1         12           0        5.976080    0.323804   -0.050249
      2          6           0        3.602005   -2.147863   -0.062014
      3          6           0        3.708862    2.697439   -0.913116
      4          6           0        8.473079    2.827987    0.069361
      5          6           0        8.419900   -2.065878    0.568129
      6          7           0        3.928438    0.236377   -0.436226
      7          6           0        3.105662   -0.866291   -0.464562
      8          6           0        1.670235   -0.527758   -0.670794
      9          6           0        1.751436    1.007448   -0.907690
     10          6           0        3.178567    1.350513   -0.703635
     11          6           0        1.271791    1.413294   -2.290929
     12          6           0        0.476016   -0.974606    0.317604
     13          6           0       -0.948750   -0.721777   -0.133673
     14          6           0       -1.993980   -1.650692    0.466389
     15          8           0       -2.418465   -1.708372    1.620406
     16          8           0       -2.572250   -2.313930   -0.546776
     17          7           0        6.062872    2.511497   -0.310171
     18          6           0        5.019214    3.236148   -0.674628
     19          6           0        5.384091    4.570905   -0.847412
     20          6           0        6.737283    4.692582   -0.488575
     21          6           0        7.135017    3.344827   -0.193260
     22          6           0        4.369177    5.739305   -1.153639
     23          6           0        7.561009    5.897340   -0.478453
     24          8           0        8.784173    5.807947   -0.429899
     25          6           0        6.980973    7.327074   -0.507386
     26          7           0        8.182293    0.412508    0.077536
     27          6           0        8.919087    1.559809    0.275070
     28          6           0       10.415225    1.210000    0.594703
     29          6           0       10.233036   -0.306322    1.095775
     30          6           0        8.899725   -0.712751    0.409327
     31          6           0       11.335385    1.329716   -0.622652
     32          6           0       10.163191   -0.456654    2.614844
     33          6           0        9.622129    0.685184    3.470514
     34          7           0        6.047517   -1.717176    0.073759
     35          6           0        7.085422   -2.570508    0.336016
     36          6           0        6.635378   -3.917078    0.497490
     37          6           0        5.200318   -3.827456    0.424175
     38          6           0        4.943566   -2.493245    0.171647
     39          6           0        7.470487   -5.103846    0.842315
     40          6           0        3.976998   -4.522179    0.400966
     41          8           0        3.736786   -5.649490    0.701150
     42          6           0        2.863544   -3.403735    0.027776
     43          6           0        2.188024   -3.682482   -1.232762
     44          8           0        2.628498   -3.651971   -2.400641
     45          8           0        0.811455   -3.866849   -0.997029
     46          6           0        0.026721   -4.007789   -2.200315
     47          6           0       -3.664572   -3.200754   -0.246402
     48          6           0       -4.931885   -2.421808    0.087176
     49          6           0       -6.123067   -2.788465    0.601921
     50          6           0       -6.663032   -4.204919    0.695655
     51          6           0       -7.053216   -1.729976    1.260179
     52          6           0       -7.520143   -0.571125    0.387641
     53          6           0       -7.931386   -0.854687   -1.016923
     54          6           0       -9.475029   -0.634466   -1.201647
     55          6           0       -9.929666   -1.609703   -2.329466
     56          6           0       -9.856633    0.868905   -1.453036
     57          6           0      -10.911017    1.362899   -0.473235
     58          6           0      -10.512529    1.729039    0.980918
     59          6           0      -11.533810    2.725032    1.584777
     60          6           0      -10.734645    3.846263    2.332456
     61          6           0      -12.606381    2.049712    2.459089
     62          6           0      -13.979633    2.361065    1.930383
     63          6           0      -14.614703    1.223648    1.068263
     64          6           0      -14.763796    1.615592   -0.340012
     65          6           0      -16.027703    2.451458   -0.574210
     66          6           0      -14.613135    0.386089   -1.284002
     67          1           0        2.915447    3.415664   -1.131660
     68          1           0        9.235187    3.584828    0.265471
     69          1           0        9.213799   -2.721412    0.932133
     70          1           0        1.414008   -0.998247   -1.620454
     71          1           0        1.147122    1.587314   -0.210285
     72          1           0        0.688952    2.329463   -2.191580
     73          1           0        0.717050    0.568589   -2.700212
     74          1           0        2.165225    1.631341   -2.877022
     75          1           0        0.567434   -0.319585    1.184976
     76          1           0        0.539455   -2.020767    0.615936
     77          1           0       -0.926732   -0.809332   -1.219969
     78          1           0       -1.130763    0.278029    0.260241
     79          1           0        4.322779    6.396693   -0.285247
     80          1           0        3.412013    5.372191   -1.524344
     81          1           0        4.851601    6.223672   -2.002550
     82          1           0        6.197125    7.501316    0.230117
     83          1           0        6.585839    7.328325   -1.523760
     84          1           0        7.797244    8.047678   -0.461926
     85          1           0       10.857503    1.787847    1.406006
     86          1           0       11.131555   -0.827469    0.764294
     87          1           0       11.662363    0.374171   -1.032412
     88          1           0       12.158988    1.897752   -0.191601
     89          1           0       10.675977    1.863739   -1.307675
     90          1           0       11.209437   -0.614550    2.877093
     91          1           0        9.616668   -1.342861    2.939465
     92          1           0        8.992361    0.366739    4.300751
     93          1           0        8.973390    1.409650    2.977397
     94          1           0       10.401965    1.238593    3.994518
     95          1           0        8.377156   -4.852809    1.393024
     96          1           0        7.687128   -5.549828   -0.127910
     97          1           0        6.795969   -5.787032    1.358854
     98          1           0        2.152337   -3.240623    0.837405
     99          1           0       -0.959987   -4.109132   -1.750280
    100          1           0        0.219712   -4.958503   -2.699351
    101          1           0        0.218674   -3.113398   -2.792385
    102          1           0       -3.430969   -3.822808    0.618271
    103          1           0       -3.780117   -3.896878   -1.076339
    104          1           0       -4.773663   -1.343821    0.070422
    105          1           0       -5.928121   -4.974520    0.460137
    106          1           0       -7.572213   -4.354102    0.112380
    107          1           0       -6.891109   -4.477343    1.726451
    108          1           0       -6.628046   -1.405993    2.209603
    109          1           0       -7.960344   -2.246391    1.572626
    110          1           0       -6.629889    0.038170    0.234519
    111          1           0       -8.234933    0.034539    0.945367
    112          1           0       -7.725327   -1.902979   -1.233835
    113          1           0       -7.395733   -0.183403   -1.687900
    114          1           0       -9.932437   -0.992647   -0.279113
    115          1           0      -10.557190   -2.397974   -1.911937
    116          1           0       -9.134759   -1.946182   -2.994569
    117          1           0      -10.673716   -1.156153   -2.983685
    118          1           0      -10.172085    1.120851   -2.465167
    119          1           0       -9.023540    1.504249   -1.152620
    120          1           0      -11.671205    0.581957   -0.477719
    121          1           0      -11.460293    2.167585   -0.962613
    122          1           0       -9.519805    2.176758    1.022369
    123          1           0      -10.521567    0.798791    1.548956
    124          1           0      -12.054150    3.218617    0.764086
    125          1           0       -9.912886    4.276127    1.760868
    126          1           0      -10.446783    3.452369    3.306894
    127          1           0      -11.452820    4.642022    2.533194
    128          1           0      -12.643359    2.457322    3.469796
    129          1           0      -12.423654    0.982639    2.586208
    130          1           0      -14.101316    3.347468    1.483546
    131          1           0      -14.602675    2.421085    2.822868
    132          1           0      -15.534104    0.802248    1.474504
    133          1           0      -13.929447    0.379310    1.146002
    134          1           0      -14.019492    2.384513   -0.545975
    135          1           0      -15.662833    3.308731   -1.140148
    136          1           0      -16.545268    2.736449    0.341803
    137          1           0      -16.677684    1.879588   -1.235645
    138          1           0      -13.651449    0.286733   -1.788663
    139          1           0      -15.327065    0.524975   -2.095419
    140          1           0      -14.907395   -0.493452   -0.712366
 ---------------------------------------------------------------------

 SCF Done:  E(RPBE1PBE) =  -3005.35930491     A.U. after   15 cycles

 Excitation energies and oscillator strengths:

 Excited State   1:      Singlet-A      1.8423 eV  672.99 nm  f=0.3460  <S**2>=0.000
     245 -> 248       -0.17922
     246 -> 247        0.69121
     246 <- 247       -0.11012
 This state for optimization and/or second-order correction.
 Total Energy, E(TD-HF/TD-DFT) =  -3005.29160231
 Copying the excited state density for this state as the 1-particle RhoCI density.

 Excited State   2:      Singlet-A      2.1152 eV  586.16 nm  f=0.1636  <S**2>=0.000
     245 -> 247        0.66765
     246 -> 248        0.22342

 Excited State   3:      Singlet-A      2.8755 eV  431.17 nm  f=0.0006  <S**2>=0.000
     243 -> 247        0.68335
     243 -> 249       -0.13102

 Excited State   4:      Singlet-A      2.9971 eV  413.68 nm  f=0.0003  <S**2>=0.000
     242 -> 247        0.69484

 Excited State   5:      Singlet-A      3.0883 eV  401.46 nm  f=0.0013  <S**2>=0.000
     240 -> 247        0.64532
     240 -> 249        0.14361
     241 -> 247       -0.19823

 The electronic state is 1-A.
 Alpha  occ. eigenvalues --  -46.92633 -19.26704 -19.25397 -19.20522 -19.20378
 Alpha  occ. eigenvalues --  -19.19870 -19.18432 -14.42745 -14.41577 -14.39041
 Alpha  occ. eigenvalues --  -14.39037 -10.37077 -10.36726 -10.32508 -10.31758
 Alpha  occ. eigenvalues --  -10.30196 -10.29727 -10.29651 -10.29097 -10.28392
 Alpha  occ. eigenvalues --  -10.28124 -10.28021 -10.27803 -10.26987 -10.26906
 Alpha  occ. eigenvalues --  -10.26400 -10.26336 -10.25891 -10.25774 -10.25670
 Alpha  occ. eigenvalues --  -10.25636 -10.25616 -10.25604 -10.25597 -10.25347
 Alpha  occ. eigenvalues --  -10.25276 -10.25185 -10.25031 -10.24771 -10.24100
 Alpha  occ. eigenvalues --  -10.24013 -10.23768 -10.23751 -10.23733 -10.23537
 Alpha  occ. eigenvalues --  -10.23362 -10.23269 -10.23242 -10.23021 -10.22996
 Alpha  occ. eigenvalues --  -10.22959 -10.22720 -10.22455 -10.22277 -10.22269
 Alpha  occ. eigenvalues --  -10.22162 -10.22061 -10.21967 -10.21908 -10.21841
 Alpha  occ. eigenvalues --  -10.21814 -10.21769 -10.21627 -10.21572 -10.21475
 Alpha  occ. eigenvalues --  -10.21444  -3.14663  -1.87523  -1.87009  -1.86913
 Alpha  occ. eigenvalues --   -1.13092  -1.10323  -1.06859  -1.04305  -1.02935
 Alpha  occ. eigenvalues --   -1.01658  -0.99872  -0.99355  -0.98688  -0.96803
 Alpha  occ. eigenvalues --   -0.88525  -0.85136  -0.84604  -0.84187  -0.83029
 Alpha  occ. eigenvalues --   -0.82780  -0.82556  -0.82050  -0.81755  -0.81457
 Alpha  occ. eigenvalues --   -0.81365  -0.80607  -0.78774  -0.78407  -0.77941
 Alpha  occ. eigenvalues --   -0.76868  -0.76389  -0.75537  -0.75150  -0.74605
 Alpha  occ. eigenvalues --   -0.74173  -0.73260  -0.72534  -0.71386  -0.70483
 Alpha  occ. eigenvalues --   -0.69889  -0.69682  -0.69343  -0.68885  -0.68825
 Alpha  occ. eigenvalues --   -0.68675  -0.67635  -0.66024  -0.64968  -0.63930
 Alpha  occ. eigenvalues --   -0.63758  -0.62612  -0.62330  -0.61144  -0.60770
 Alpha  occ. eigenvalues --   -0.59787  -0.59657  -0.59104  -0.58318  -0.58049
 Alpha  occ. eigenvalues --   -0.57928  -0.57026  -0.56492  -0.56347  -0.55167
 Alpha  occ. eigenvalues --   -0.54802  -0.54603  -0.54336  -0.53755  -0.53281
 Alpha  occ. eigenvalues --   -0.52599  -0.51968  -0.51711  -0.50892  -0.50164
 Alpha  occ. eigenvalues --   -0.49731  -0.49610  -0.49472  -0.48791  -0.48556
 Alpha  occ. eigenvalues --   -0.48430  -0.47990  -0.47912  -0.47619  -0.47608
 Alpha  occ. eigenvalues --   -0.47311  -0.47208  -0.46835  -0.46589  -0.46503
 Alpha  occ. eigenvalues --   -0.46421  -0.45945  -0.45488  -0.45324  -0.45005
 Alpha  occ. eigenvalues --   -0.44902  -0.44759  -0.44608  -0.44526  -0.44436
 Alpha  occ. eigenvalues --   -0.44244  -0.44182  -0.43963  -0.43783  -0.43601
 Alpha  occ. eigenvalues --   -0.43525  -0.43355  -0.43184  -0.43127  -0.42574
 Alpha  occ. eigenvalues --   -0.42462  -0.42350  -0.42157  -0.41733  -0.41556
 Alpha  occ. eigenvalues --   -0.41266  -0.41178  -0.41043  -0.40947  -0.40797
 Alpha  occ. eigenvalues --   -0.40605  -0.40546  -0.40428  -0.40391  -0.39760
 Alpha  occ. eigenvalues --   -0.39460  -0.39278  -0.39084  -0.38847  -0.38639
 Alpha  occ. eigenvalues --   -0.38472  -0.38442  -0.38191  -0.38006  -0.37863
 Alpha  occ. eigenvalues --   -0.37688  -0.37537  -0.37245  -0.37136  -0.37070
 Alpha  occ. eigenvalues --   -0.36732  -0.36669  -0.36587  -0.36574  -0.36347
 Alpha  occ. eigenvalues --   -0.36029  -0.35977  -0.35821  -0.35457  -0.34902
 Alpha  occ. eigenvalues --   -0.34882  -0.34275  -0.34089  -0.33814  -0.33380
 Alpha  occ. eigenvalues --   -0.33343  -0.32872  -0.32855  -0.32512  -0.32170
 Alpha  occ. eigenvalues --   -0.32026  -0.31874  -0.31625  -0.31489  -0.31416
 Alpha  occ. eigenvalues --   -0.30495  -0.29996  -0.29794  -0.29619  -0.29483
 Alpha  occ. eigenvalues --   -0.29382  -0.29285  -0.28841  -0.26956  -0.26446
 Alpha  occ. eigenvalues --   -0.26080  -0.25648  -0.25280  -0.24895  -0.20869
 Alpha  occ. eigenvalues --   -0.19303
 Alpha virt. eigenvalues --   -0.11782  -0.05430  -0.04108  -0.02028  -0.00927
 Alpha virt. eigenvalues --   -0.00444  -0.00135   0.01010   0.01081   0.02621
 Alpha virt. eigenvalues --    0.03540   0.04287   0.04729   0.05295   0.05338

 Mulliken charges:
               1
     1  Mg   0.977981
     2  C   -0.064001
     3  C   -0.067116
     4  C   -0.010474
     5  C   -0.087148
     6  N   -0.441034
     7  C    0.075926
     8  C   -0.034821
     9  C   -0.186782
    10  C    0.091755
    11  C    0.025763
    12  C   -0.031438
    13  C   -0.002693
    14  C    0.213110
    15  O   -0.265246
    16  O   -0.339291
    17  N   -0.405607
    18  C    0.155390
    19  C   -0.200020
    20  C   -0.031992
    21  C    0.097347
    22  C    0.063437
    23  C   -0.006423
    24  O   -0.252030
    25  C   -0.002561
    26  N   -0.375939
    27  C    0.042996
    28  C   -0.173199
    29  C   -0.126372
    30  C    0.102471
    31  C    0.052722
    32  C   -0.001311
    33  C   -0.085333
    34  N   -0.478553
    35  C    0.180868
    36  C   -0.206045
    37  C    0.003840
    38  C    0.125831
    39  C    0.080221
    40  C    0.113785
    41  O   -0.173324
    42  C   -0.152364
    43  C    0.314451
    44  O   -0.276029
    45  O   -0.394837
    46  C    0.131505
    47  C    0.245832
    48  C   -0.120657
    49  C   -0.250453
    50  C    0.016207
    51  C    0.047004
    52  C   -0.069998
    53  C    0.004354
    54  C   -0.234966
    55  C   -0.006339
    56  C    0.055305
    57  C   -0.131116
    58  C    0.010256
    59  C   -0.200414
    60  C   -0.020579
    61  C    0.035517
    62  C   -0.073736
    63  C    0.012141
    64  C   -0.276352
    65  C    0.004526
    66  C    0.000382
    67  H   -0.001763
    68  H    0.028192
    69  H    0.014179
    70  H    0.052441
    71  H    0.053708
    72  H    0.044036
    73  H    0.048409
    74  H    0.054014
    75  H    0.045966
    76  H    0.074823
    77  H    0.056062
    78  H    0.064197
    79  H    0.071075
    80  H    0.043302
    81  H    0.048940
    82  H    0.064328
    83  H    0.048470
    84  H    0.056525
    85  H    0.047667
    86  H    0.029789
    87  H    0.048212
    88  H    0.047573
    89  H    0.056161
    90  H    0.035246
    91  H    0.040693
    92  H    0.031575
    93  H    0.054389
    94  H    0.038022
    95  H    0.053277
    96  H    0.064234
    97  H    0.064311
    98  H    0.088679
    99  H    0.052604
   100  H    0.059313
   101  H    0.058912
   102  H    0.064063
   103  H    0.055601
   104  H    0.033845
   105  H    0.022961
   106  H    0.054896
   107  H    0.043737
   108  H    0.053484
   109  H    0.006273
   110  H    0.019580
   111  H    0.037258
   112  H    0.038842
   113  H    0.029410
   114  H    0.034795
   115  H    0.029331
   116  H    0.044767
   117  H    0.010542
   118  H    0.030196
   119  H    0.015692
   120  H    0.033449
   121  H    0.021589
   122  H    0.029413
   123  H    0.036646
   124  H    0.034927
   125  H    0.044133
   126  H    0.037935
   127  H    0.025585
   128  H    0.018842
   129  H    0.024501
   130  H    0.031547
   131  H    0.011773
   132  H    0.022372
   133  H    0.009962
   134  H    0.031913
   135  H    0.030128
   136  H    0.041052
   137  H    0.025928
   138  H    0.046842
   139  H    0.015712
   140  H    0.038591
 Sum of Mulliken charges =  -0.00000

 Dipole moment (field-independent basis, Debye):
    X=             -2.6998    Y=              2.8021    Z=              0.4901  Tot=              3.9218
 Quadrupole moment (field-independent basis, Debye-Ang):
   XX=           -384.7104   YY=           -413.9801   ZZ=           -409.1651
   XY=             -6.0527   XZ=             20.3726   YZ=             -1.2332

 Normal termination of Gaussian 16 at Sat Apr 30 15:07:31 2022.
