 Gaussian 16, Revision A.03,
 Gaussian 16:  ES64L-G16RevA.03 25-Dec-2016

 --------------------------------
 #p wB97XD/Def2SVP td=(nstates=5)
 --------------------------------

 ----------------------------------------------------
 step_801_chromophore_10 TDDFT with wB97XD functional
 ----------------------------------------------------
 Symbolic Z-matrix:
 Charge =  0 Multiplicity = 1

                         Standard orientation:
 ---------------------------------------------------------------------
 Center     Atomic      Atomic             Coordinates (Angstroms)
 Number     Number       Type             X           Y           Z
 ---------------------------------------------------------------------
      1         12           0        5.976080    0.323804   -0.050249
      2          6           0        3.602005   -2.147863   -0.062014
      3          6           0        3.708862    2.697439   -0.913116
      4          6           0        8.473079    2.827987    0.069361
      5          6           0        8.419900   -2.065878    0.568129
      6          7           0        3.928438    0.236377   -0.436226
      7          6           0        3.105662   -0.866291   -0.464562
      8          6           0        1.670235   -0.527758   -0.670794
      9          6           0        1.751436    1.007448   -0.907690
     10          6           0        3.178567    1.350513   -0.703635
     11          6           0        1.271791    1.413294   -2.290929
     12          6           0        0.476016   -0.974606    0.317604
     13          6           0       -0.948750   -0.721777   -0.133673
     14          6           0       -1.993980   -1.650692    0.466389
     15          8           0       -2.418465   -1.708372    1.620406
     16          8           0       -2.572250   -2.313930   -0.546776
     17          7           0        6.062872    2.511497   -0.310171
     18          6           0        5.019214    3.236148   -0.674628
     19          6           0        5.384091    4.570905   -0.847412
     20          6           0        6.737283    4.692582   -0.488575
     21          6           0        7.135017    3.344827   -0.193260
     22          6           0        4.369177    5.739305   -1.153639
     23          6           0        7.561009    5.897340   -0.478453
     24          8           0        8.784173    5.807947   -0.429899
     25          6           0        6.980973    7.327074   -0.507386
     26          7           0        8.182293    0.412508    0.077536
     27          6           0        8.919087    1.559809    0.275070
     28          6           0       10.415225    1.210000    0.594703
     29          6           0       10.233036   -0.306322    1.095775
     30          6           0        8.899725   -0.712751    0.409327
     31          6           0       11.335385    1.329716   -0.622652
     32          6           0       10.163191   -0.456654    2.614844
     33          6           0        9.622129    0.685184    3.470514
     34          7           0        6.047517   -1.717176    0.073759
     35          6           0        7.085422   -2.570508    0.336016
     36          6           0        6.635378   -3.917078    0.497490
     37          6           0        5.200318   -3.827456    0.424175
     38          6           0        4.943566   -2.493245    0.171647
     39          6           0        7.470487   -5.103846    0.842315
     40          6           0        3.976998   -4.522179    0.400966
     41          8           0        3.736786   -5.649490    0.701150
     42          6           0        2.863544   -3.403735    0.027776
     43          6           0        2.188024   -3.682482   -1.232762
     44          8           0        2.628498   -3.651971   -2.400641
     45          8           0        0.811455   -3.866849   -0.997029
     46          6           0        0.026721   -4.007789   -2.200315
     47          6           0       -3.664572   -3.200754   -0.246402
     48          6           0       -4.931885   -2.421808    0.087176
     49          6           0       -6.123067   -2.788465    0.601921
     50          6           0       -6.663032   -4.204919    0.695655
     51          6           0       -7.053216   -1.729976    1.260179
     52          6           0       -7.520143   -0.571125    0.387641
     53          6           0       -7.931386   -0.854687   -1.016923
     54          6           0       -9.475029   -0.634466   -1.201647
     55          6           0       -9.929666   -1.609703   -2.329466
     56          6           0       -9.856633    0.868905   -1.453036
     57          6           0      -10.911017    1.362899   -0.473235
     58          6           0      -10.512529    1.729039    0.980918
     59          6           0      -11.533810    2.725032    1.584777
     60          6           0      -10.734645    3.846263    2.332456
     61          6           0      -12.606381    2.049712    2.459089
     62          6           0      -13.979633    2.361065    1.930383
     63          6           0      -14.614703    1.223648    1.068263
     64          6           0      -14.763796    1.615592   -0.340012
     65          6           0      -16.027703    2.451458   -0.574210
     66          6           0      -14.613135    0.386089   -1.284002
     67          1           0        2.915447    3.415664   -1.131660
     68          1           0        9.235187    3.584828    0.265471
     69          1           0        9.213799   -2.721412    0.932133
     70          1           0        1.414008   -0.998247   -1.620454
     71          1           0        1.147122    1.587314   -0.210285
     72          1           0        0.688952    2.329463   -2.191580
     73          1           0        0.717050    0.568589   -2.700212
     74          1           0        2.165225    1.631341   -2.877022
     75          1           0        0.567434   -0.319585    1.184976
     76          1           0        0.539455   -2.020767    0.615936
     77          1           0       -0.926732   -0.809332   -1.219969
     78          1           0       -1.130763    0.278029    0.260241
     79          1           0        4.322779    6.396693   -0.285247
     80          1           0        3.412013    5.372191   -1.524344
     81          1           0        4.851601    6.223672   -2.002550
     82          1           0        6.197125    7.501316    0.230117
     83          1           0        6.585839    7.328325   -1.523760
     84          1           0        7.797244    8.047678   -0.461926
     85          1           0       10.857503    1.787847    1.406006
     86          1           0       11.131555   -0.827469    0.764294
     87          1           0       11.662363    0.374171   -1.032412
     88          1           0       12.158988    1.897752   -0.191601
     89          1           0       10.675977    1.863739   -1.307675
     90          1           0       11.209437   -0.614550    2.877093
     91          1           0        9.616668   -1.342861    2.939465
     92          1           0        8.992361    0.366739    4.300751
     93          1           0        8.973390    1.409650    2.977397
     94          1           0       10.401965    1.238593    3.994518
     95          1           0        8.377156   -4.852809    1.393024
     96          1           0        7.687128   -5.549828   -0.127910
     97          1           0        6.795969   -5.787032    1.358854
     98          1           0        2.152337   -3.240623    0.837405
     99          1           0       -0.959987   -4.109132   -1.750280
    100          1           0        0.219712   -4.958503   -2.699351
    101          1           0        0.218674   -3.113398   -2.792385
    102          1           0       -3.430969   -3.822808    0.618271
    103          1           0       -3.780117   -3.896878   -1.076339
    104          1           0       -4.773663   -1.343821    0.070422
    105          1           0       -5.928121   -4.974520    0.460137
    106          1           0       -7.572213   -4.354102    0.112380
    107          1           0       -6.891109   -4.477343    1.726451
    108          1           0       -6.628046   -1.405993    2.209603
    109          1           0       -7.960344   -2.246391    1.572626
    110          1           0       -6.629889    0.038170    0.234519
    111          1           0       -8.234933    0.034539    0.945367
    112          1           0       -7.725327   -1.902979   -1.233835
    113          1           0       -7.395733   -0.183403   -1.687900
    114          1           0       -9.932437   -0.992647   -0.279113
    115          1           0      -10.557190   -2.397974   -1.911937
    116          1           0       -9.134759   -1.946182   -2.994569
    117          1           0      -10.673716   -1.156153   -2.983685
    118          1           0      -10.172085    1.120851   -2.465167
    119          1           0       -9.023540    1.504249   -1.152620
    120          1           0      -11.671205    0.581957   -0.477719
    121          1           0      -11.460293    2.167585   -0.962613
    122          1           0       -9.519805    2.176758    1.022369
    123          1           0      -10.521567    0.798791    1.548956
    124          1           0      -12.054150    3.218617    0.764086
    125          1           0       -9.912886    4.276127    1.760868
    126          1           0      -10.446783    3.452369    3.306894
    127          1           0      -11.452820    4.642022    2.533194
    128          1           0      -12.643359    2.457322    3.469796
    129          1           0      -12.423654    0.982639    2.586208
    130          1           0      -14.101316    3.347468    1.483546
    131          1           0      -14.602675    2.421085    2.822868
    132          1           0      -15.534104    0.802248    1.474504
    133          1           0      -13.929447    0.379310    1.146002
    134          1           0      -14.019492    2.384513   -0.545975
    135          1           0      -15.662833    3.308731   -1.140148
    136          1           0      -16.545268    2.736449    0.341803
    137          1           0      -16.677684    1.879588   -1.235645
    138          1           0      -13.651449    0.286733   -1.788663
    139          1           0      -15.327065    0.524975   -2.095419
    140          1           0      -14.907395   -0.493452   -0.712366
 ---------------------------------------------------------------------

 SCF Done:  E(RwB97XD) =  -3007.87392029     A.U. after   17 cycles

 Excitation energies and oscillator strengths:

 Excited State   1:      Singlet-A      1.6250 eV  762.99 nm  f=0.3686  <S**2>=0.000
     245 -> 248       -0.18909
     246 -> 247        0.68168
     245 <- 248       -0.11839
 This state for optimization and/or second-order correction.
 Total Energy, E(TD-HF/TD-DFT) =  -3007.81420345
 Copying the excited state density for this state as the 1-particle RhoCI density.

 Excited State   2:      Singlet-A      2.0355 eV  609.12 nm  f=0.1677  <S**2>=0.000
     245 -> 247        0.65710
     246 -> 248        0.24664
     246 <- 248        0.10241

 Excited State   3:      Singlet-A      3.3226 eV  373.16 nm  f=0.0029  <S**2>=0.000
     243 -> 247        0.68220

 Excited State   4:      Singlet-A      3.4807 eV  356.20 nm  f=0.0617  <S**2>=0.000
     240 -> 247       -0.12488
     241 -> 247       -0.37026
     242 -> 247        0.42300
     246 -> 248        0.35767

 Excited State   5:      Singlet-A      3.5603 eV  348.24 nm  f=0.0021  <S**2>=0.000
     241 -> 247        0.44379
     241 -> 249       -0.15988
     241 -> 250        0.12486
     242 -> 247        0.33885
     242 -> 249       -0.24687
     242 -> 250        0.21161

 The electronic state is 1-A.
 Alpha  occ. eigenvalues --  -46.95564 -19.31262 -19.30022 -19.25311 -19.25055
 Alpha  occ. eigenvalues --  -19.24700 -19.23208 -14.47866 -14.46647 -14.44000
 Alpha  occ. eigenvalues --  -14.43989 -10.43869 -10.43629 -10.39408 -10.38563
 Alpha  occ. eigenvalues --  -10.36683 -10.36050 -10.35963 -10.35364 -10.34950
 Alpha  occ. eigenvalues --  -10.34404 -10.34380 -10.34124 -10.33348 -10.33166
 Alpha  occ. eigenvalues --  -10.32800 -10.32747 -10.32221 -10.32137 -10.32116
 Alpha  occ. eigenvalues --  -10.32064 -10.32049 -10.31998 -10.31987 -10.31741
 Alpha  occ. eigenvalues --  -10.31556 -10.31463 -10.31374 -10.31109 -10.30471
 Alpha  occ. eigenvalues --  -10.30404 -10.30197 -10.30137 -10.30122 -10.30024
 Alpha  occ. eigenvalues --  -10.29759 -10.29696 -10.29557 -10.29346 -10.29322
 Alpha  occ. eigenvalues --  -10.29303 -10.29066 -10.28847 -10.28667 -10.28557
 Alpha  occ. eigenvalues --  -10.28551 -10.28422 -10.28399 -10.28273 -10.28260
 Alpha  occ. eigenvalues --  -10.28216 -10.28168 -10.28017 -10.28001 -10.27899
 Alpha  occ. eigenvalues --  -10.27815  -3.21461  -1.95069  -1.94555  -1.94456
 Alpha  occ. eigenvalues --   -1.20460  -1.17793  -1.14336  -1.11761  -1.10282
 Alpha  occ. eigenvalues --   -1.09113  -1.07265  -1.06708  -1.06073  -1.04204
 Alpha  occ. eigenvalues --   -0.96171  -0.92775  -0.92276  -0.91857  -0.90658
 Alpha  occ. eigenvalues --   -0.90411  -0.90161  -0.89660  -0.89402  -0.89105
 Alpha  occ. eigenvalues --   -0.88998  -0.88240  -0.86429  -0.86057  -0.85565
 Alpha  occ. eigenvalues --   -0.84511  -0.84022  -0.83193  -0.82868  -0.82278
 Alpha  occ. eigenvalues --   -0.81853  -0.80907  -0.80204  -0.78989  -0.78109
 Alpha  occ. eigenvalues --   -0.77548  -0.77382  -0.76938  -0.76560  -0.76485
 Alpha  occ. eigenvalues --   -0.76313  -0.75189  -0.73597  -0.72565  -0.71500
 Alpha  occ. eigenvalues --   -0.71297  -0.70131  -0.69963  -0.68749  -0.68307
 Alpha  occ. eigenvalues --   -0.67359  -0.67211  -0.66549  -0.65843  -0.65729
 Alpha  occ. eigenvalues --   -0.65426  -0.64677  -0.64112  -0.63836  -0.62642
 Alpha  occ. eigenvalues --   -0.62243  -0.62143  -0.61749  -0.61239  -0.60755
 Alpha  occ. eigenvalues --   -0.59982  -0.59409  -0.59203  -0.58265  -0.57596
 Alpha  occ. eigenvalues --   -0.57169  -0.56989  -0.56843  -0.56267  -0.55981
 Alpha  occ. eigenvalues --   -0.55858  -0.55435  -0.55347  -0.55097  -0.54969
 Alpha  occ. eigenvalues --   -0.54748  -0.54604  -0.54248  -0.53962  -0.53868
 Alpha  occ. eigenvalues --   -0.53779  -0.53297  -0.52837  -0.52680  -0.52334
 Alpha  occ. eigenvalues --   -0.52223  -0.52121  -0.51943  -0.51906  -0.51771
 Alpha  occ. eigenvalues --   -0.51582  -0.51435  -0.51285  -0.51122  -0.50976
 Alpha  occ. eigenvalues --   -0.50822  -0.50669  -0.50478  -0.50367  -0.49934
 Alpha  occ. eigenvalues --   -0.49706  -0.49613  -0.49430  -0.49016  -0.48829
 Alpha  occ. eigenvalues --   -0.48539  -0.48415  -0.48348  -0.48137  -0.48021
 Alpha  occ. eigenvalues --   -0.47842  -0.47698  -0.47669  -0.47583  -0.46915
 Alpha  occ. eigenvalues --   -0.46655  -0.46455  -0.46216  -0.45993  -0.45812
 Alpha  occ. eigenvalues --   -0.45596  -0.45540  -0.45322  -0.45087  -0.44969
 Alpha  occ. eigenvalues --   -0.44765  -0.44654  -0.44345  -0.44343  -0.44229
 Alpha  occ. eigenvalues --   -0.43812  -0.43763  -0.43707  -0.43660  -0.43436
 Alpha  occ. eigenvalues --   -0.43142  -0.43101  -0.42862  -0.42533  -0.41997
 Alpha  occ. eigenvalues --   -0.41896  -0.41274  -0.41070  -0.40921  -0.40453
 Alpha  occ. eigenvalues --   -0.40282  -0.39899  -0.39771  -0.39546  -0.39181
 Alpha  occ. eigenvalues --   -0.38950  -0.38874  -0.38665  -0.38530  -0.38463
 Alpha  occ. eigenvalues --   -0.37474  -0.36956  -0.36710  -0.36695  -0.36546
 Alpha  occ. eigenvalues --   -0.36421  -0.36205  -0.35502  -0.33596  -0.33395
 Alpha  occ. eigenvalues --   -0.32681  -0.32429  -0.32178  -0.31654  -0.25768
 Alpha  occ. eigenvalues --   -0.23535
 Alpha virt. eigenvalues --   -0.07789   0.00000   0.02181   0.04511   0.05676
 Alpha virt. eigenvalues --    0.06029   0.06442   0.07451   0.07726   0.09002
 Alpha virt. eigenvalues --    0.10092   0.11135   0.11383   0.11915   0.12035

 Mulliken charges:
               1
     1  Mg   0.967864
     2  C   -0.062095
     3  C   -0.085194
     4  C   -0.028857
     5  C   -0.099952
     6  N   -0.406916
     7  C    0.038263
     8  C   -0.002716
     9  C   -0.162806
    10  C    0.076597
    11  C    0.038006
    12  C   -0.015103
    13  C    0.018833
    14  C    0.197613
    15  O   -0.261167
    16  O   -0.336849
    17  N   -0.370094
    18  C    0.149729
    19  C   -0.195118
    20  C   -0.021076
    21  C    0.084913
    22  C    0.080798
    23  C   -0.012562
    24  O   -0.247753
    25  C    0.012134
    26  N   -0.345871
    27  C    0.036164
    28  C   -0.146943
    29  C   -0.097286
    30  C    0.082508
    31  C    0.060046
    32  C    0.008986
    33  C   -0.067610
    34  N   -0.442442
    35  C    0.172708
    36  C   -0.200277
    37  C    0.004057
    38  C    0.111008
    39  C    0.091363
    40  C    0.095147
    41  O   -0.164557
    42  C   -0.107614
    43  C    0.291192
    44  O   -0.269636
    45  O   -0.392306
    46  C    0.147467
    47  C    0.262435
    48  C   -0.134879
    49  C   -0.229971
    50  C    0.028267
    51  C    0.061374
    52  C   -0.044478
    53  C    0.022336
    54  C   -0.203682
    55  C    0.005272
    56  C    0.068289
    57  C   -0.098290
    58  C    0.025368
    59  C   -0.169190
    60  C   -0.004612
    61  C    0.043969
    62  C   -0.052669
    63  C    0.025477
    64  C   -0.239736
    65  C    0.012656
    66  C    0.016796
    67  H   -0.010909
    68  H    0.024371
    69  H    0.007984
    70  H    0.030161
    71  H    0.043370
    72  H    0.039470
    73  H    0.041979
    74  H    0.047117
    75  H    0.037860
    76  H    0.060587
    77  H    0.046720
    78  H    0.058694
    79  H    0.065155
    80  H    0.039807
    81  H    0.041103
    82  H    0.059511
    83  H    0.040215
    84  H    0.055710
    85  H    0.036939
    86  H    0.020518
    87  H    0.042972
    88  H    0.042883
    89  H    0.049009
    90  H    0.028055
    91  H    0.031938
    92  H    0.026535
    93  H    0.042876
    94  H    0.032547
    95  H    0.048569
    96  H    0.058979
    97  H    0.060575
    98  H    0.081788
    99  H    0.046311
   100  H    0.056065
   101  H    0.054662
   102  H    0.058284
   103  H    0.052221
   104  H    0.026873
   105  H    0.017956
   106  H    0.049742
   107  H    0.037982
   108  H    0.047926
   109  H   -0.002796
   110  H    0.009870
   111  H    0.021880
   112  H    0.022906
   113  H    0.022087
   114  H    0.019274
   115  H    0.023995
   116  H    0.039422
   117  H    0.003790
   118  H    0.024609
   119  H    0.003529
   120  H    0.010016
   121  H    0.011143
   122  H    0.019281
   123  H    0.025959
   124  H    0.017637
   125  H    0.038884
   126  H    0.030926
   127  H    0.018546
   128  H    0.011470
   129  H    0.016517
   130  H    0.021644
   131  H    0.004290
   132  H    0.015257
   133  H   -0.003120
   134  H    0.011762
   135  H    0.025454
   136  H    0.035865
   137  H    0.019261
   138  H    0.040736
   139  H    0.009208
   140  H    0.032260
 Sum of Mulliken charges =  -0.00000

 Dipole moment (field-independent basis, Debye):
    X=             -2.8044    Y=              2.8784    Z=              0.4252  Tot=              4.0411
 Quadrupole moment (field-independent basis, Debye-Ang):
   XX=           -386.0286   YY=           -412.1869   ZZ=           -408.8955
   XY=             -5.3427   XZ=             20.4137   YZ=             -1.1784

 Normal termination of Gaussian 16 at Sat Apr 30 15:44:39 2022.
