 Gaussian 16, Revision A.03,
 Gaussian 16:  ES64L-G16RevA.03 25-Dec-2016

 --------------------
 #p ZINDO=(nstates=5)
 --------------------

 -----------------------------
 step_801_chromophore_10 ZINDO
 -----------------------------
 Symbolic Z-matrix:
 Charge =  0 Multiplicity = 1

                         Standard orientation:
 ---------------------------------------------------------------------
 Center     Atomic      Atomic             Coordinates (Angstroms)
 Number     Number       Type             X           Y           Z
 ---------------------------------------------------------------------
      1         12           0        5.976080    0.323804   -0.050249
      2          6           0        3.602005   -2.147863   -0.062014
      3          6           0        3.708862    2.697439   -0.913116
      4          6           0        8.473079    2.827987    0.069361
      5          6           0        8.419900   -2.065878    0.568129
      6          7           0        3.928438    0.236377   -0.436226
      7          6           0        3.105662   -0.866291   -0.464562
      8          6           0        1.670235   -0.527758   -0.670794
      9          6           0        1.751436    1.007448   -0.907690
     10          6           0        3.178567    1.350513   -0.703635
     11          6           0        1.271791    1.413294   -2.290929
     12          6           0        0.476016   -0.974606    0.317604
     13          6           0       -0.948750   -0.721777   -0.133673
     14          6           0       -1.993980   -1.650692    0.466389
     15          8           0       -2.418465   -1.708372    1.620406
     16          8           0       -2.572250   -2.313930   -0.546776
     17          7           0        6.062872    2.511497   -0.310171
     18          6           0        5.019214    3.236148   -0.674628
     19          6           0        5.384091    4.570905   -0.847412
     20          6           0        6.737283    4.692582   -0.488575
     21          6           0        7.135017    3.344827   -0.193260
     22          6           0        4.369177    5.739305   -1.153639
     23          6           0        7.561009    5.897340   -0.478453
     24          8           0        8.784173    5.807947   -0.429899
     25          6           0        6.980973    7.327074   -0.507386
     26          7           0        8.182293    0.412508    0.077536
     27          6           0        8.919087    1.559809    0.275070
     28          6           0       10.415225    1.210000    0.594703
     29          6           0       10.233036   -0.306322    1.095775
     30          6           0        8.899725   -0.712751    0.409327
     31          6           0       11.335385    1.329716   -0.622652
     32          6           0       10.163191   -0.456654    2.614844
     33          6           0        9.622129    0.685184    3.470514
     34          7           0        6.047517   -1.717176    0.073759
     35          6           0        7.085422   -2.570508    0.336016
     36          6           0        6.635378   -3.917078    0.497490
     37          6           0        5.200318   -3.827456    0.424175
     38          6           0        4.943566   -2.493245    0.171647
     39          6           0        7.470487   -5.103846    0.842315
     40          6           0        3.976998   -4.522179    0.400966
     41          8           0        3.736786   -5.649490    0.701150
     42          6           0        2.863544   -3.403735    0.027776
     43          6           0        2.188024   -3.682482   -1.232762
     44          8           0        2.628498   -3.651971   -2.400641
     45          8           0        0.811455   -3.866849   -0.997029
     46          6           0        0.026721   -4.007789   -2.200315
     47          6           0       -3.664572   -3.200754   -0.246402
     48          6           0       -4.931885   -2.421808    0.087176
     49          6           0       -6.123067   -2.788465    0.601921
     50          6           0       -6.663032   -4.204919    0.695655
     51          6           0       -7.053216   -1.729976    1.260179
     52          6           0       -7.520143   -0.571125    0.387641
     53          6           0       -7.931386   -0.854687   -1.016923
     54          6           0       -9.475029   -0.634466   -1.201647
     55          6           0       -9.929666   -1.609703   -2.329466
     56          6           0       -9.856633    0.868905   -1.453036
     57          6           0      -10.911017    1.362899   -0.473235
     58          6           0      -10.512529    1.729039    0.980918
     59          6           0      -11.533810    2.725032    1.584777
     60          6           0      -10.734645    3.846263    2.332456
     61          6           0      -12.606381    2.049712    2.459089
     62          6           0      -13.979633    2.361065    1.930383
     63          6           0      -14.614703    1.223648    1.068263
     64          6           0      -14.763796    1.615592   -0.340012
     65          6           0      -16.027703    2.451458   -0.574210
     66          6           0      -14.613135    0.386089   -1.284002
     67          1           0        2.915447    3.415664   -1.131660
     68          1           0        9.235187    3.584828    0.265471
     69          1           0        9.213799   -2.721412    0.932133
     70          1           0        1.414008   -0.998247   -1.620454
     71          1           0        1.147122    1.587314   -0.210285
     72          1           0        0.688952    2.329463   -2.191580
     73          1           0        0.717050    0.568589   -2.700212
     74          1           0        2.165225    1.631341   -2.877022
     75          1           0        0.567434   -0.319585    1.184976
     76          1           0        0.539455   -2.020767    0.615936
     77          1           0       -0.926732   -0.809332   -1.219969
     78          1           0       -1.130763    0.278029    0.260241
     79          1           0        4.322779    6.396693   -0.285247
     80          1           0        3.412013    5.372191   -1.524344
     81          1           0        4.851601    6.223672   -2.002550
     82          1           0        6.197125    7.501316    0.230117
     83          1           0        6.585839    7.328325   -1.523760
     84          1           0        7.797244    8.047678   -0.461926
     85          1           0       10.857503    1.787847    1.406006
     86          1           0       11.131555   -0.827469    0.764294
     87          1           0       11.662363    0.374171   -1.032412
     88          1           0       12.158988    1.897752   -0.191601
     89          1           0       10.675977    1.863739   -1.307675
     90          1           0       11.209437   -0.614550    2.877093
     91          1           0        9.616668   -1.342861    2.939465
     92          1           0        8.992361    0.366739    4.300751
     93          1           0        8.973390    1.409650    2.977397
     94          1           0       10.401965    1.238593    3.994518
     95          1           0        8.377156   -4.852809    1.393024
     96          1           0        7.687128   -5.549828   -0.127910
     97          1           0        6.795969   -5.787032    1.358854
     98          1           0        2.152337   -3.240623    0.837405
     99          1           0       -0.959987   -4.109132   -1.750280
    100          1           0        0.219712   -4.958503   -2.699351
    101          1           0        0.218674   -3.113398   -2.792385
    102          1           0       -3.430969   -3.822808    0.618271
    103          1           0       -3.780117   -3.896878   -1.076339
    104          1           0       -4.773663   -1.343821    0.070422
    105          1           0       -5.928121   -4.974520    0.460137
    106          1           0       -7.572213   -4.354102    0.112380
    107          1           0       -6.891109   -4.477343    1.726451
    108          1           0       -6.628046   -1.405993    2.209603
    109          1           0       -7.960344   -2.246391    1.572626
    110          1           0       -6.629889    0.038170    0.234519
    111          1           0       -8.234933    0.034539    0.945367
    112          1           0       -7.725327   -1.902979   -1.233835
    113          1           0       -7.395733   -0.183403   -1.687900
    114          1           0       -9.932437   -0.992647   -0.279113
    115          1           0      -10.557190   -2.397974   -1.911937
    116          1           0       -9.134759   -1.946182   -2.994569
    117          1           0      -10.673716   -1.156153   -2.983685
    118          1           0      -10.172085    1.120851   -2.465167
    119          1           0       -9.023540    1.504249   -1.152620
    120          1           0      -11.671205    0.581957   -0.477719
    121          1           0      -11.460293    2.167585   -0.962613
    122          1           0       -9.519805    2.176758    1.022369
    123          1           0      -10.521567    0.798791    1.548956
    124          1           0      -12.054150    3.218617    0.764086
    125          1           0       -9.912886    4.276127    1.760868
    126          1           0      -10.446783    3.452369    3.306894
    127          1           0      -11.452820    4.642022    2.533194
    128          1           0      -12.643359    2.457322    3.469796
    129          1           0      -12.423654    0.982639    2.586208
    130          1           0      -14.101316    3.347468    1.483546
    131          1           0      -14.602675    2.421085    2.822868
    132          1           0      -15.534104    0.802248    1.474504
    133          1           0      -13.929447    0.379310    1.146002
    134          1           0      -14.019492    2.384513   -0.545975
    135          1           0      -15.662833    3.308731   -1.140148
    136          1           0      -16.545268    2.736449    0.341803
    137          1           0      -16.677684    1.879588   -1.235645
    138          1           0      -13.651449    0.286733   -1.788663
    139          1           0      -15.327065    0.524975   -2.095419
    140          1           0      -14.907395   -0.493452   -0.712366
 ---------------------------------------------------------------------

 SCF Done:  E(RZINDO/S) =  -474.628038168     A.U. after   20 cycles

 Excitation energies and oscillator strengths:

 Excited State   1:      Singlet-A      1.2264 eV 1010.93 nm  f=0.6017  <S**2>=0.000
     175 ->178        -0.19328
     176 ->177         0.66012
 This state for optimization and/or second-order correction.
 Total Energy, E(CIS/TDA) =  -474.582967486
 Copying the excited state density for this state as the 1-particle RhoCI density.

 Excited State   2:      Singlet-A      1.8210 eV  680.85 nm  f=0.1198  <S**2>=0.000
     175 ->177         0.58759
     176 ->178         0.35720

 Excited State   3:      Singlet-A      2.9138 eV  425.51 nm  f=0.0033  <S**2>=0.000
     168 ->177         0.18286
     168 ->179         0.24128
     168 ->180        -0.21568
     168 ->185         0.10146
     168 ->187        -0.12655
     169 ->177         0.22112
     169 ->179         0.26791
     169 ->180        -0.24577
     169 ->182         0.10109
     169 ->185         0.11078
     169 ->187        -0.14181
     170 ->177        -0.11315
     170 ->179        -0.12947
     170 ->180         0.11732

 Excited State   4:      Singlet-A      2.9634 eV  418.38 nm  f=0.8086  <S**2>=0.000
     172 ->177         0.11621
     175 ->177        -0.29674
     176 ->178         0.54709
     176 ->179         0.21744

 Excited State   5:      Singlet-A      3.0471 eV  406.89 nm  f=0.0161  <S**2>=0.000
     168 ->177         0.22856
     168 ->178        -0.15435
     168 ->179        -0.20722
     168 ->180        -0.13641
     168 ->182         0.14992
     168 ->185        -0.15698
     169 ->177        -0.25107
     169 ->178         0.16459
     169 ->179         0.22412
     169 ->180         0.14026
     169 ->182        -0.15845
     169 ->185         0.16772
     170 ->177        -0.10550

 The electronic state is 1-A.
 Alpha  occ. eigenvalues --   -1.86363  -1.83245  -1.80325  -1.76213  -1.73238
 Alpha  occ. eigenvalues --   -1.72720  -1.67735  -1.62799  -1.60978  -1.59552
 Alpha  occ. eigenvalues --   -1.54932  -1.51235  -1.50548  -1.48882  -1.45152
 Alpha  occ. eigenvalues --   -1.44396  -1.42930  -1.39647  -1.39156  -1.38419
 Alpha  occ. eigenvalues --   -1.37306  -1.34723  -1.33086  -1.32086  -1.29575
 Alpha  occ. eigenvalues --   -1.28448  -1.24536  -1.22340  -1.20581  -1.19324
 Alpha  occ. eigenvalues --   -1.17470  -1.16199  -1.15285  -1.13849  -1.13262
 Alpha  occ. eigenvalues --   -1.12679  -1.11836  -1.10067  -1.05372  -1.03489
 Alpha  occ. eigenvalues --   -1.02913  -1.01272  -0.98056  -0.97711  -0.97345
 Alpha  occ. eigenvalues --   -0.95886  -0.94790  -0.94168  -0.93009  -0.92657
 Alpha  occ. eigenvalues --   -0.90992  -0.90571  -0.89869  -0.88350  -0.85977
 Alpha  occ. eigenvalues --   -0.85869  -0.83876  -0.82828  -0.82185  -0.81452
 Alpha  occ. eigenvalues --   -0.79645  -0.79212  -0.77561  -0.77192  -0.76399
 Alpha  occ. eigenvalues --   -0.75584  -0.75237  -0.74831  -0.74651  -0.73334
 Alpha  occ. eigenvalues --   -0.73196  -0.73006  -0.72419  -0.71281  -0.70509
 Alpha  occ. eigenvalues --   -0.70308  -0.69941  -0.68834  -0.68478  -0.68016
 Alpha  occ. eigenvalues --   -0.67559  -0.67467  -0.66920  -0.66200  -0.65948
 Alpha  occ. eigenvalues --   -0.65484  -0.65056  -0.64866  -0.63845  -0.63608
 Alpha  occ. eigenvalues --   -0.63174  -0.63064  -0.63020  -0.62393  -0.61901
 Alpha  occ. eigenvalues --   -0.61681  -0.61207  -0.60953  -0.60688  -0.60234
 Alpha  occ. eigenvalues --   -0.59874  -0.59834  -0.59100  -0.58713  -0.58508
 Alpha  occ. eigenvalues --   -0.58098  -0.57768  -0.57221  -0.57169  -0.56709
 Alpha  occ. eigenvalues --   -0.56068  -0.55766  -0.55200  -0.54460  -0.54301
 Alpha  occ. eigenvalues --   -0.54210  -0.53582  -0.52940  -0.52801  -0.52608
 Alpha  occ. eigenvalues --   -0.52231  -0.51918  -0.51892  -0.51488  -0.50964
 Alpha  occ. eigenvalues --   -0.50827  -0.50698  -0.50355  -0.50264  -0.50117
 Alpha  occ. eigenvalues --   -0.49860  -0.49524  -0.49372  -0.49171  -0.48950
 Alpha  occ. eigenvalues --   -0.48431  -0.48355  -0.48030  -0.47883  -0.47761
 Alpha  occ. eigenvalues --   -0.47347  -0.47114  -0.47014  -0.46689  -0.46487
 Alpha  occ. eigenvalues --   -0.46161  -0.45915  -0.45693  -0.45550  -0.45253
 Alpha  occ. eigenvalues --   -0.44905  -0.44741  -0.44616  -0.44371  -0.43797
 Alpha  occ. eigenvalues --   -0.43240  -0.42860  -0.42626  -0.42315  -0.41899
 Alpha  occ. eigenvalues --   -0.41804  -0.41757  -0.41667  -0.39195  -0.39053
 Alpha  occ. eigenvalues --   -0.38229  -0.37562  -0.35245  -0.34999  -0.34510
 Alpha  occ. eigenvalues --   -0.33404  -0.32513  -0.32057  -0.31812  -0.26308
 Alpha  occ. eigenvalues --   -0.22272
 Alpha virt. eigenvalues --   -0.09208  -0.02339  -0.00533   0.01264   0.01459
 Alpha virt. eigenvalues --    0.01727   0.02342   0.03090   0.04831   0.04853
 Alpha virt. eigenvalues --    0.06097   0.06462   0.07243   0.07670   0.07952

 Mulliken charges:
               1
     1  Mg   0.428843
     2  C   -0.037317
     3  C   -0.099527
     4  C   -0.057941
     5  C   -0.070115
     6  N   -0.269933
     7  C    0.114585
     8  C   -0.000393
     9  C    0.009100
    10  C    0.139568
    11  C   -0.051325
    12  C   -0.026357
    13  C    0.006599
    14  C    0.475945
    15  O   -0.522905
    16  O   -0.263588
    17  N   -0.319858
    18  C    0.128304
    19  C   -0.003473
    20  C   -0.032783
    21  C    0.140140
    22  C   -0.055416
    23  C    0.325317
    24  O   -0.534467
    25  C   -0.033038
    26  N   -0.274356
    27  C    0.143277
    28  C   -0.008560
    29  C   -0.000041
    30  C    0.110915
    31  C   -0.057639
    32  C   -0.017965
    33  C   -0.055671
    34  N   -0.324775
    35  C    0.097670
    36  C    0.032010
    37  C   -0.058830
    38  C    0.116528
    39  C   -0.038407
    40  C    0.342921
    41  O   -0.505454
    42  C    0.060374
    43  C    0.486595
    44  O   -0.535132
    45  O   -0.286903
    46  C    0.074565
    47  C    0.115791
    48  C   -0.079050
    49  C   -0.005199
    50  C   -0.042998
    51  C   -0.017766
    52  C   -0.028779
    53  C   -0.029755
    54  C   -0.015838
    55  C   -0.065352
    56  C   -0.033957
    57  C   -0.041493
    58  C   -0.030761
    59  C   -0.015670
    60  C   -0.060822
    61  C   -0.024627
    62  C   -0.036257
    63  C   -0.026754
    64  C   -0.010594
    65  C   -0.059997
    66  C   -0.061161
    67  H    0.022901
    68  H    0.040644
    69  H    0.030671
    70  H    0.034121
    71  H    0.027915
    72  H    0.019945
    73  H    0.026539
    74  H    0.028625
    75  H    0.020979
    76  H    0.037359
    77  H    0.038816
    78  H    0.045575
    79  H    0.038346
    80  H    0.029384
    81  H    0.026443
    82  H    0.039134
    83  H    0.037284
    84  H    0.041696
    85  H    0.031246
    86  H    0.024937
    87  H    0.027832
    88  H    0.027454
    89  H    0.035275
    90  H    0.010956
    91  H    0.022147
    92  H    0.010811
    93  H    0.024338
    94  H    0.016422
    95  H    0.033574
    96  H    0.037827
    97  H    0.036045
    98  H    0.054996
    99  H    0.027129
   100  H    0.049558
   101  H    0.050458
   102  H    0.050763
   103  H    0.036457
   104  H    0.027211
   105  H    0.014626
   106  H    0.031927
   107  H    0.023162
   108  H    0.029510
   109  H    0.006203
   110  H    0.006136
   111  H    0.021505
   112  H    0.021868
   113  H    0.021454
   114  H    0.023819
   115  H    0.018611
   116  H    0.027111
   117  H    0.005447
   118  H    0.027692
   119  H    0.014046
   120  H    0.009815
   121  H    0.010788
   122  H    0.022680
   123  H    0.021737
   124  H    0.022272
   125  H    0.024749
   126  H    0.021578
   127  H    0.007539
   128  H    0.012058
   129  H    0.025309
   130  H    0.027370
   131  H   -0.001696
   132  H    0.019172
   133  H    0.005448
   134  H    0.016314
   135  H    0.015895
   136  H    0.025704
   137  H    0.017756
   138  H    0.025982
   139  H    0.010515
   140  H    0.024037
 Sum of Mulliken charges =  -0.00000

 Dipole moment (field-independent basis, Debye):
    X=             -3.7364    Y=              5.3373    Z=              0.4951  Tot=              6.5340
 N-N= 4.302495408064D+03 E-N= 0.000000000000D+00  KE=-9.279473631188D+03
 Leave Link  601 at Sat Apr 30 16:03:26 2022, MaxMem=  6710886400 cpu:               3.5 elap:               0.2
 (Enter /sw/apps/gaussian-16.0/g16/l9999.exe)
 1\1\GINC-BP1-COMPUTE180\SP\RZINDO CIS\STO-3G\C55H74Mg1N4O6\OF15641\30-
 Apr-2022\0\\#p ZINDO=(nstates=5)\\step_801_chromophore_10 ZINDO\\0,1\M
 g,0,41.512,8.286,28.966\C,0,43.274,9.757,31.511\C,0,39.247,6.957,31.11
 6\C,0,39.704,6.874,26.272\C,0,43.92,9.371,26.71\N,0,41.33,8.367,31.042
 \C,0,42.172,8.958,31.956\C,0,41.659,8.905,33.353\C,0,40.38,8.038,33.17
 4\C,0,40.277,7.806,31.714\C,0,40.446,6.73,33.944\C,0,41.447,10.196,34.
 297\C,0,41.107,9.959,35.755\C,0,41.508,11.078,36.705\O,0,41.035,12.208

 Normal termination of Gaussian 16 at Sat Apr 30 16:03:26 2022.
