 Gaussian 16, Revision A.03,
 Gaussian 16:  ES64L-G16RevA.03 25-Dec-2016

 ------------------------------
 #p blyp/Def2SVP td=(nstates=5)
 ------------------------------

 --------------------------------------------------
 step_751_chromophore_26 TDDFT with blyp functional
 --------------------------------------------------
 Symbolic Z-matrix:
 Charge =  0 Multiplicity = 1

                         Standard orientation:
 ---------------------------------------------------------------------
 Center     Atomic      Atomic             Coordinates (Angstroms)
 Number     Number       Type             X           Y           Z
 ---------------------------------------------------------------------
      1         12           0       -4.124689    1.163912    0.499576
      2          6           0       -5.249527   -2.104273    0.078055
      3          6           0       -2.466065    0.073873    3.390917
      4          6           0       -2.861039    4.334210    0.824440
      5          6           0       -5.208551    1.907745   -2.711344
      6          7           0       -3.890802   -0.849391    1.619357
      7          6           0       -4.311540   -2.025268    1.105533
      8          6           0       -3.769744   -3.210519    2.043766
      9          6           0       -3.025987   -2.426068    3.179621
     10          6           0       -3.095772   -0.979010    2.736951
     11          6           0       -3.659836   -2.667874    4.629172
     12          6           0       -2.780011   -4.138281    1.196322
     13          6           0       -2.155030   -3.579263   -0.067288
     14          6           0       -0.691490   -4.082782   -0.370781
     15          8           0       -0.257854   -5.206935   -0.122445
     16          8           0        0.050121   -3.085998   -0.920016
     17          7           0       -2.870169    2.063362    1.896687
     18          6           0       -2.313506    1.447585    2.992282
     19          6           0       -1.640357    2.484008    3.785197
     20          6           0       -1.692492    3.716070    3.132072
     21          6           0       -2.464121    3.404936    1.872915
     22          6           0       -0.805319    2.085098    5.069539
     23          6           0       -1.071473    5.020788    3.590718
     24          8           0       -0.410739    5.014181    4.628245
     25          6           0       -1.246354    6.281762    2.860343
     26          7           0       -4.033983    2.769956   -0.746527
     27          6           0       -3.518931    4.063897   -0.386607
     28          6           0       -3.805332    5.131773   -1.437297
     29          6           0       -4.393903    4.301284   -2.625160
     30          6           0       -4.466763    2.891685   -1.996340
     31          6           0       -4.703724    6.243936   -0.895490
     32          6           0       -3.659406    4.241992   -4.022046
     33          6           0       -4.250512    5.065784   -5.136864
     34          7           0       -5.041049    0.168725   -1.034723
     35          6           0       -5.488683    0.619888   -2.276392
     36          6           0       -6.286115   -0.371435   -2.862170
     37          6           0       -6.212899   -1.512343   -1.956309
     38          6           0       -5.433746   -1.082628   -0.908921
     39          6           0       -7.136235   -0.232190   -4.064200
     40          6           0       -6.712066   -2.868264   -1.731110
     41          8           0       -7.379670   -3.587805   -2.477030
     42          6           0       -6.022044   -3.321190   -0.426114
     43          6           0       -7.041483   -3.813621    0.453341
     44          8           0       -7.092233   -4.945477    0.964341
     45          8           0       -7.868992   -2.809086    0.706743
     46          6           0       -9.109028   -3.087005    1.508572
     47          6           0        1.296552   -3.683710   -1.443537
     48          6           0        1.916519   -2.682621   -2.404517
     49          6           0        3.209256   -2.185615   -2.378802
     50          6           0        4.458104   -2.848565   -1.732555
     51          6           0        3.524539   -0.876679   -3.139118
     52          6           0        4.066210    0.264317   -2.250773
     53          6           0        5.618441    0.552172   -2.304631
     54          6           0        6.325521    0.753032   -0.972763
     55          6           0        7.037897    2.190688   -0.761097
     56          6           0        7.429907   -0.371917   -0.860103
     57          6           0        7.693143   -0.724121    0.620730
     58          6           0        9.145449   -1.321567    0.781335
     59          6           0       10.128594   -0.639134    1.742244
     60          6           0        9.850847   -1.212654    3.176496
     61          6           0       11.633243   -0.799314    1.340458
     62          6           0       12.123706    0.186958    0.222385
     63          6           0       13.059578   -0.398291   -0.918898
     64          6           0       14.356707    0.450022   -1.002852
     65          6           0       14.973939    0.208552   -2.443886
     66          6           0       15.377263    0.056032    0.114729
     67          1           0       -1.945114   -0.180133    4.316442
     68          1           0       -2.549745    5.377595    0.747816
     69          1           0       -5.623007    2.235441   -3.668057
     70          1           0       -4.633070   -3.777852    2.390237
     71          1           0       -2.050543   -2.860867    3.399428
     72          1           0       -3.861090   -1.678040    5.039229
     73          1           0       -3.025270   -3.205852    5.333245
     74          1           0       -4.617624   -3.181662    4.548105
     75          1           0       -3.504562   -4.901035    0.909531
     76          1           0       -2.009235   -4.615968    1.801013
     77          1           0       -2.078662   -2.492590   -0.040678
     78          1           0       -2.832852   -3.831948   -0.882514
     79          1           0       -1.010291    2.793175    5.872869
     80          1           0        0.235814    2.230771    4.783582
     81          1           0       -0.862206    1.073365    5.469929
     82          1           0       -2.324380    6.436531    2.894106
     83          1           0       -0.847739    6.284274    1.846581
     84          1           0       -0.807448    7.087752    3.447329
     85          1           0       -2.863765    5.564706   -1.774780
     86          1           0       -5.400502    4.639081   -2.871964
     87          1           0       -4.381314    6.501875    0.112687
     88          1           0       -5.774899    6.100694   -1.039841
     89          1           0       -4.526352    7.116584   -1.522836
     90          1           0       -3.492198    3.255571   -4.453973
     91          1           0       -2.660550    4.651968   -3.871729
     92          1           0       -3.511447    5.540803   -5.782036
     93          1           0       -4.913598    5.838490   -4.748576
     94          1           0       -4.924816    4.454698   -5.737644
     95          1           0       -6.533249    0.170923   -4.877851
     96          1           0       -7.832856    0.601044   -3.970229
     97          1           0       -7.626545   -1.196198   -4.194549
     98          1           0       -5.413050   -4.152532   -0.779175
     99          1           0       -9.109456   -4.048125    2.023438
    100          1           0       -9.971730   -3.097425    0.841862
    101          1           0       -9.201491   -2.310304    2.267863
    102          1           0        1.062096   -4.584920   -2.010515
    103          1           0        1.964574   -3.895512   -0.608681
    104          1           0        1.257855   -1.932918   -2.840414
    105          1           0        4.195402   -3.810216   -1.291752
    106          1           0        4.600748   -2.098545   -0.955579
    107          1           0        5.229426   -2.848411   -2.502321
    108          1           0        2.681422   -0.492043   -3.713438
    109          1           0        4.312332   -1.162135   -3.836438
    110          1           0        3.672238    0.067118   -1.253176
    111          1           0        3.509438    1.118322   -2.635592
    112          1           0        5.675627    1.541454   -2.760382
    113          1           0        6.102667   -0.142780   -2.990920
    114          1           0        5.569498    0.610344   -0.200496
    115          1           0        6.626795    2.921208   -1.458430
    116          1           0        8.117076    2.114397   -0.891631
    117          1           0        6.799492    2.676595    0.184980
    118          1           0        8.298472    0.002105   -1.400727
    119          1           0        7.160778   -1.301589   -1.362368
    120          1           0        7.016981   -1.479060    1.024252
    121          1           0        7.662020    0.149168    1.272219
    122          1           0        9.515811   -1.373291   -0.242088
    123          1           0        9.148756   -2.369556    1.079848
    124          1           0        9.958662    0.436531    1.698926
    125          1           0        8.984981   -1.874275    3.129265
    126          1           0        9.539760   -0.436046    3.875600
    127          1           0       10.662828   -1.734859    3.682160
    128          1           0       11.764778   -1.814013    0.965001
    129          1           0       12.308239   -0.582694    2.168813
    130          1           0       12.649101    0.945342    0.802786
    131          1           0       11.240435    0.614017   -0.254780
    132          1           0       12.495881   -0.346634   -1.849789
    133          1           0       13.289212   -1.433598   -0.663958
    134          1           0       14.303275    1.536253   -0.923133
    135          1           0       14.322263    0.342361   -3.307809
    136          1           0       15.199558   -0.856303   -2.497821
    137          1           0       15.921640    0.720128   -2.611156
    138          1           0       15.944600    0.919250    0.460925
    139          1           0       16.029619   -0.735958   -0.255338
    140          1           0       14.855741   -0.291903    1.006928
 ---------------------------------------------------------------------

 SCF Done:  E(RB-LYP) =  -3007.39406988     A.U. after   21 cycles

 Excitation energies and oscillator strengths:

 Excited State   1:      Singlet-A      1.7689 eV  700.93 nm  f=0.2655  <S**2>=0.000
     245 -> 248       -0.18198
     246 -> 247        0.68657
     246 <- 247       -0.15543
 This state for optimization and/or second-order correction.
 Total Energy, E(TD-HF/TD-DFT) =  -3007.32906559
 Copying the excited state density for this state as the 1-particle RhoCI density.

 Excited State   2:      Singlet-A      1.8729 eV  662.00 nm  f=0.0014  <S**2>=0.000
     244 -> 247        0.69979

 Excited State   3:      Singlet-A      1.8842 eV  658.02 nm  f=0.0190  <S**2>=0.000
     243 -> 247        0.61500
     245 -> 247       -0.32045

 Excited State   4:      Singlet-A      2.0652 eV  600.36 nm  f=0.0647  <S**2>=0.000
     242 -> 247       -0.12632
     243 -> 247        0.31825
     245 -> 247        0.54580
     246 -> 248        0.24678

 Excited State   5:      Singlet-A      2.1160 eV  585.92 nm  f=0.0030  <S**2>=0.000
     242 -> 247        0.69535

 The electronic state is 1-A.
 Alpha  occ. eigenvalues --  -46.27045 -18.82937 -18.82640 -18.76711 -18.76004
 Alpha  occ. eigenvalues --  -18.75993 -18.75544 -14.03933 -14.03564 -14.02045
 Alpha  occ. eigenvalues --  -14.00686 -10.04031 -10.03646 -10.00069  -9.99819
 Alpha  occ. eigenvalues --   -9.98455  -9.97789  -9.97398  -9.97115  -9.97078
 Alpha  occ. eigenvalues --   -9.97040  -9.96821  -9.96131  -9.95156  -9.95086
 Alpha  occ. eigenvalues --   -9.94846  -9.94547  -9.94403  -9.94218  -9.94033
 Alpha  occ. eigenvalues --   -9.94023  -9.93865  -9.93660  -9.93539  -9.93502
 Alpha  occ. eigenvalues --   -9.93440  -9.93412  -9.93337  -9.93305  -9.93043
 Alpha  occ. eigenvalues --   -9.92963  -9.92814  -9.92587  -9.92498  -9.92460
 Alpha  occ. eigenvalues --   -9.92403  -9.92370  -9.92369  -9.92334  -9.92091
 Alpha  occ. eigenvalues --   -9.92069  -9.91966  -9.91942  -9.91622  -9.91543
 Alpha  occ. eigenvalues --   -9.91504  -9.91480  -9.91448  -9.91412  -9.91022
 Alpha  occ. eigenvalues --   -9.90954  -9.90928  -9.90912  -9.90605  -9.90595
 Alpha  occ. eigenvalues --   -9.90584  -2.91801  -1.72224  -1.71686  -1.71513
 Alpha  occ. eigenvalues --   -0.98651  -0.98370  -0.91492  -0.91037  -0.89520
 Alpha  occ. eigenvalues --   -0.88772  -0.87188  -0.86036  -0.85635  -0.84474
 Alpha  occ. eigenvalues --   -0.76252  -0.73229  -0.73202  -0.72292  -0.72281
 Alpha  occ. eigenvalues --   -0.71746  -0.71328  -0.71134  -0.70502  -0.70317
 Alpha  occ. eigenvalues --   -0.69177  -0.68914  -0.68654  -0.68079  -0.67282
 Alpha  occ. eigenvalues --   -0.66751  -0.66083  -0.65645  -0.65077  -0.64585
 Alpha  occ. eigenvalues --   -0.63646  -0.62989  -0.62238  -0.61760  -0.61369
 Alpha  occ. eigenvalues --   -0.60535  -0.60018  -0.59877  -0.58961  -0.58831
 Alpha  occ. eigenvalues --   -0.58148  -0.57651  -0.57177  -0.55339  -0.54746
 Alpha  occ. eigenvalues --   -0.54082  -0.53646  -0.52797  -0.52038  -0.51914
 Alpha  occ. eigenvalues --   -0.51340  -0.50948  -0.50773  -0.50669  -0.49978
 Alpha  occ. eigenvalues --   -0.49923  -0.49173  -0.49148  -0.48588  -0.46782
 Alpha  occ. eigenvalues --   -0.46450  -0.45945  -0.45600  -0.44898  -0.44659
 Alpha  occ. eigenvalues --   -0.44056  -0.43603  -0.43301  -0.43115  -0.42715
 Alpha  occ. eigenvalues --   -0.42328  -0.42278  -0.41996  -0.41636  -0.41083
 Alpha  occ. eigenvalues --   -0.40874  -0.40814  -0.40674  -0.40435  -0.40352
 Alpha  occ. eigenvalues --   -0.40144  -0.39758  -0.39612  -0.39341  -0.39255
 Alpha  occ. eigenvalues --   -0.39044  -0.38972  -0.38881  -0.38770  -0.38387
 Alpha  occ. eigenvalues --   -0.38276  -0.38142  -0.37344  -0.37266  -0.37016
 Alpha  occ. eigenvalues --   -0.36900  -0.36748  -0.36561  -0.36453  -0.36267
 Alpha  occ. eigenvalues --   -0.36228  -0.36109  -0.36011  -0.35894  -0.35621
 Alpha  occ. eigenvalues --   -0.35501  -0.35104  -0.34869  -0.34829  -0.34496
 Alpha  occ. eigenvalues --   -0.34301  -0.34087  -0.34012  -0.33764  -0.33684
 Alpha  occ. eigenvalues --   -0.33603  -0.33475  -0.33401  -0.33256  -0.33128
 Alpha  occ. eigenvalues --   -0.32988  -0.32844  -0.32733  -0.32548  -0.32483
 Alpha  occ. eigenvalues --   -0.32311  -0.31999  -0.31895  -0.31704  -0.31580
 Alpha  occ. eigenvalues --   -0.31186  -0.31079  -0.30849  -0.30791  -0.30654
 Alpha  occ. eigenvalues --   -0.30552  -0.30435  -0.30372  -0.30229  -0.30041
 Alpha  occ. eigenvalues --   -0.30014  -0.29789  -0.29641  -0.29624  -0.29344
 Alpha  occ. eigenvalues --   -0.29285  -0.28811  -0.28748  -0.28354  -0.27996
 Alpha  occ. eigenvalues --   -0.27570  -0.27202  -0.26979  -0.26732  -0.26621
 Alpha  occ. eigenvalues --   -0.26494  -0.26393  -0.26303  -0.26139  -0.25872
 Alpha  occ. eigenvalues --   -0.25659  -0.25251  -0.24199  -0.24191  -0.23832
 Alpha  occ. eigenvalues --   -0.23785  -0.22466  -0.21813  -0.21517  -0.21039
 Alpha  occ. eigenvalues --   -0.20328  -0.19779  -0.18928  -0.18837  -0.17753
 Alpha  occ. eigenvalues --   -0.16112
 Alpha virt. eigenvalues --   -0.12011  -0.07482  -0.06167  -0.05001  -0.02801
 Alpha virt. eigenvalues --   -0.02686  -0.02400  -0.02272  -0.01695  -0.00374
 Alpha virt. eigenvalues --    0.00474   0.01214   0.02054   0.02181   0.02856

 Mulliken charges:
               1
     1  Mg   0.712265
     2  C    0.002577
     3  C   -0.036718
     4  C   -0.048616
     5  C   -0.130824
     6  N   -0.187484
     7  C   -0.120766
     8  C    0.041808
     9  C    0.000317
    10  C    0.054152
    11  C    0.088314
    12  C    0.080364
    13  C    0.109464
    14  C    0.089753
    15  O   -0.202820
    16  O   -0.252486
    17  N   -0.302153
    18  C    0.122862
    19  C   -0.143890
    20  C    0.049493
    21  C    0.131368
    22  C    0.159879
    23  C   -0.102159
    24  O   -0.169411
    25  C    0.161712
    26  N   -0.253925
    27  C   -0.030067
    28  C    0.075362
    29  C    0.005916
    30  C    0.050870
    31  C    0.137481
    32  C    0.087013
    33  C    0.050964
    34  N   -0.265590
    35  C    0.177831
    36  C   -0.185191
    37  C    0.043418
    38  C    0.104157
    39  C    0.196083
    40  C   -0.074730
    41  O   -0.137558
    42  C    0.120952
    43  C    0.076274
    44  O   -0.188925
    45  O   -0.262100
    46  C    0.205826
    47  C    0.300988
    48  C   -0.057687
    49  C   -0.229145
    50  C    0.155255
    51  C    0.120597
    52  C    0.035520
    53  C    0.154188
    54  C   -0.071038
    55  C    0.094013
    56  C    0.053524
    57  C    0.103419
    58  C    0.066532
    59  C   -0.060330
    60  C    0.110889
    61  C    0.085102
    62  C    0.041556
    63  C    0.117439
    64  C   -0.079438
    65  C    0.076946
    66  C    0.089265
    67  H   -0.063317
    68  H   -0.066009
    69  H   -0.064988
    70  H   -0.006529
    71  H   -0.018496
    72  H   -0.013518
    73  H   -0.001074
    74  H   -0.007619
    75  H   -0.011589
    76  H   -0.005246
    77  H    0.010880
    78  H    0.008588
    79  H    0.006645
    80  H    0.004981
    81  H   -0.016050
    82  H    0.006381
    83  H    0.026970
    84  H   -0.011593
    85  H   -0.025702
    86  H   -0.023658
    87  H   -0.005092
    88  H   -0.002807
    89  H   -0.019104
    90  H   -0.007387
    91  H   -0.032034
    92  H   -0.001584
    93  H   -0.019769
    94  H   -0.010516
    95  H   -0.015744
    96  H   -0.014199
    97  H    0.023643
    98  H   -0.001458
    99  H    0.028107
   100  H    0.028030
   101  H    0.021178
   102  H    0.009358
   103  H    0.001114
   104  H   -0.035479
   105  H   -0.000516
   106  H    0.009151
   107  H    0.018046
   108  H   -0.033200
   109  H   -0.028933
   110  H   -0.016358
   111  H   -0.029724
   112  H   -0.050351
   113  H   -0.028619
   114  H   -0.031054
   115  H   -0.023255
   116  H   -0.001723
   117  H   -0.010286
   118  H   -0.021174
   119  H   -0.027678
   120  H   -0.023134
   121  H   -0.029315
   122  H   -0.048009
   123  H   -0.042081
   124  H   -0.039453
   125  H   -0.023696
   126  H   -0.023859
   127  H   -0.013542
   128  H   -0.035174
   129  H   -0.027392
   130  H   -0.025922
   131  H   -0.026444
   132  H   -0.030283
   133  H   -0.023632
   134  H   -0.023985
   135  H   -0.016967
   136  H   -0.029944
   137  H   -0.018977
   138  H   -0.015829
   139  H   -0.012168
   140  H   -0.018492
 Sum of Mulliken charges =  -0.00000

 Dipole moment (field-independent basis, Debye):
    X=             -0.0965    Y=              7.0657    Z=             -1.4261  Tot=              7.2088
 Quadrupole moment (field-independent basis, Debye-Ang):
   XX=           -397.1867   YY=           -427.9047   ZZ=           -408.9055
   XY=            -42.6886   XZ=            -15.5157   YZ=            -32.7697

 Normal termination of Gaussian 16 at Thu May  5 09:29:16 2022.
