 Gaussian 16, Revision A.03,
 Gaussian 16:  ES64L-G16RevA.03 25-Dec-2016

 -----------------------------------
 #p cam-b3lyp/Def2SVP td=(nstates=5)
 -----------------------------------

 -------------------------------------------------------
 step_751_chromophore_26 TDDFT with cam-b3lyp functional
 -------------------------------------------------------
 Symbolic Z-matrix:
 Charge =  0 Multiplicity = 1

                         Standard orientation:
 ---------------------------------------------------------------------
 Center     Atomic      Atomic             Coordinates (Angstroms)
 Number     Number       Type             X           Y           Z
 ---------------------------------------------------------------------
      1         12           0       -4.124689    1.163912    0.499576
      2          6           0       -5.249527   -2.104273    0.078055
      3          6           0       -2.466065    0.073873    3.390917
      4          6           0       -2.861039    4.334210    0.824440
      5          6           0       -5.208551    1.907745   -2.711344
      6          7           0       -3.890802   -0.849391    1.619357
      7          6           0       -4.311540   -2.025268    1.105533
      8          6           0       -3.769744   -3.210519    2.043766
      9          6           0       -3.025987   -2.426068    3.179621
     10          6           0       -3.095772   -0.979010    2.736951
     11          6           0       -3.659836   -2.667874    4.629172
     12          6           0       -2.780011   -4.138281    1.196322
     13          6           0       -2.155030   -3.579263   -0.067288
     14          6           0       -0.691490   -4.082782   -0.370781
     15          8           0       -0.257854   -5.206935   -0.122445
     16          8           0        0.050121   -3.085998   -0.920016
     17          7           0       -2.870169    2.063362    1.896687
     18          6           0       -2.313506    1.447585    2.992282
     19          6           0       -1.640357    2.484008    3.785197
     20          6           0       -1.692492    3.716070    3.132072
     21          6           0       -2.464121    3.404936    1.872915
     22          6           0       -0.805319    2.085098    5.069539
     23          6           0       -1.071473    5.020788    3.590718
     24          8           0       -0.410739    5.014181    4.628245
     25          6           0       -1.246354    6.281762    2.860343
     26          7           0       -4.033983    2.769956   -0.746527
     27          6           0       -3.518931    4.063897   -0.386607
     28          6           0       -3.805332    5.131773   -1.437297
     29          6           0       -4.393903    4.301284   -2.625160
     30          6           0       -4.466763    2.891685   -1.996340
     31          6           0       -4.703724    6.243936   -0.895490
     32          6           0       -3.659406    4.241992   -4.022046
     33          6           0       -4.250512    5.065784   -5.136864
     34          7           0       -5.041049    0.168725   -1.034723
     35          6           0       -5.488683    0.619888   -2.276392
     36          6           0       -6.286115   -0.371435   -2.862170
     37          6           0       -6.212899   -1.512343   -1.956309
     38          6           0       -5.433746   -1.082628   -0.908921
     39          6           0       -7.136235   -0.232190   -4.064200
     40          6           0       -6.712066   -2.868264   -1.731110
     41          8           0       -7.379670   -3.587805   -2.477030
     42          6           0       -6.022044   -3.321190   -0.426114
     43          6           0       -7.041483   -3.813621    0.453341
     44          8           0       -7.092233   -4.945477    0.964341
     45          8           0       -7.868992   -2.809086    0.706743
     46          6           0       -9.109028   -3.087005    1.508572
     47          6           0        1.296552   -3.683710   -1.443537
     48          6           0        1.916519   -2.682621   -2.404517
     49          6           0        3.209256   -2.185615   -2.378802
     50          6           0        4.458104   -2.848565   -1.732555
     51          6           0        3.524539   -0.876679   -3.139118
     52          6           0        4.066210    0.264317   -2.250773
     53          6           0        5.618441    0.552172   -2.304631
     54          6           0        6.325521    0.753032   -0.972763
     55          6           0        7.037897    2.190688   -0.761097
     56          6           0        7.429907   -0.371917   -0.860103
     57          6           0        7.693143   -0.724121    0.620730
     58          6           0        9.145449   -1.321567    0.781335
     59          6           0       10.128594   -0.639134    1.742244
     60          6           0        9.850847   -1.212654    3.176496
     61          6           0       11.633243   -0.799314    1.340458
     62          6           0       12.123706    0.186958    0.222385
     63          6           0       13.059578   -0.398291   -0.918898
     64          6           0       14.356707    0.450022   -1.002852
     65          6           0       14.973939    0.208552   -2.443886
     66          6           0       15.377263    0.056032    0.114729
     67          1           0       -1.945114   -0.180133    4.316442
     68          1           0       -2.549745    5.377595    0.747816
     69          1           0       -5.623007    2.235441   -3.668057
     70          1           0       -4.633070   -3.777852    2.390237
     71          1           0       -2.050543   -2.860867    3.399428
     72          1           0       -3.861090   -1.678040    5.039229
     73          1           0       -3.025270   -3.205852    5.333245
     74          1           0       -4.617624   -3.181662    4.548105
     75          1           0       -3.504562   -4.901035    0.909531
     76          1           0       -2.009235   -4.615968    1.801013
     77          1           0       -2.078662   -2.492590   -0.040678
     78          1           0       -2.832852   -3.831948   -0.882514
     79          1           0       -1.010291    2.793175    5.872869
     80          1           0        0.235814    2.230771    4.783582
     81          1           0       -0.862206    1.073365    5.469929
     82          1           0       -2.324380    6.436531    2.894106
     83          1           0       -0.847739    6.284274    1.846581
     84          1           0       -0.807448    7.087752    3.447329
     85          1           0       -2.863765    5.564706   -1.774780
     86          1           0       -5.400502    4.639081   -2.871964
     87          1           0       -4.381314    6.501875    0.112687
     88          1           0       -5.774899    6.100694   -1.039841
     89          1           0       -4.526352    7.116584   -1.522836
     90          1           0       -3.492198    3.255571   -4.453973
     91          1           0       -2.660550    4.651968   -3.871729
     92          1           0       -3.511447    5.540803   -5.782036
     93          1           0       -4.913598    5.838490   -4.748576
     94          1           0       -4.924816    4.454698   -5.737644
     95          1           0       -6.533249    0.170923   -4.877851
     96          1           0       -7.832856    0.601044   -3.970229
     97          1           0       -7.626545   -1.196198   -4.194549
     98          1           0       -5.413050   -4.152532   -0.779175
     99          1           0       -9.109456   -4.048125    2.023438
    100          1           0       -9.971730   -3.097425    0.841862
    101          1           0       -9.201491   -2.310304    2.267863
    102          1           0        1.062096   -4.584920   -2.010515
    103          1           0        1.964574   -3.895512   -0.608681
    104          1           0        1.257855   -1.932918   -2.840414
    105          1           0        4.195402   -3.810216   -1.291752
    106          1           0        4.600748   -2.098545   -0.955579
    107          1           0        5.229426   -2.848411   -2.502321
    108          1           0        2.681422   -0.492043   -3.713438
    109          1           0        4.312332   -1.162135   -3.836438
    110          1           0        3.672238    0.067118   -1.253176
    111          1           0        3.509438    1.118322   -2.635592
    112          1           0        5.675627    1.541454   -2.760382
    113          1           0        6.102667   -0.142780   -2.990920
    114          1           0        5.569498    0.610344   -0.200496
    115          1           0        6.626795    2.921208   -1.458430
    116          1           0        8.117076    2.114397   -0.891631
    117          1           0        6.799492    2.676595    0.184980
    118          1           0        8.298472    0.002105   -1.400727
    119          1           0        7.160778   -1.301589   -1.362368
    120          1           0        7.016981   -1.479060    1.024252
    121          1           0        7.662020    0.149168    1.272219
    122          1           0        9.515811   -1.373291   -0.242088
    123          1           0        9.148756   -2.369556    1.079848
    124          1           0        9.958662    0.436531    1.698926
    125          1           0        8.984981   -1.874275    3.129265
    126          1           0        9.539760   -0.436046    3.875600
    127          1           0       10.662828   -1.734859    3.682160
    128          1           0       11.764778   -1.814013    0.965001
    129          1           0       12.308239   -0.582694    2.168813
    130          1           0       12.649101    0.945342    0.802786
    131          1           0       11.240435    0.614017   -0.254780
    132          1           0       12.495881   -0.346634   -1.849789
    133          1           0       13.289212   -1.433598   -0.663958
    134          1           0       14.303275    1.536253   -0.923133
    135          1           0       14.322263    0.342361   -3.307809
    136          1           0       15.199558   -0.856303   -2.497821
    137          1           0       15.921640    0.720128   -2.611156
    138          1           0       15.944600    0.919250    0.460925
    139          1           0       16.029619   -0.735958   -0.255338
    140          1           0       14.855741   -0.291903    1.006928
 ---------------------------------------------------------------------

 SCF Done:  E(RCAM-B3LYP) =  -3007.17835292     A.U. after   19 cycles

 Excitation energies and oscillator strengths:

 Excited State   1:      Singlet-A      1.6546 eV  749.35 nm  f=0.3540  <S**2>=0.000
     245 -> 248       -0.16860
     246 -> 247        0.68704
     245 <- 248       -0.10684
 This state for optimization and/or second-order correction.
 Total Energy, E(TD-HF/TD-DFT) =  -3007.11754894
 Copying the excited state density for this state as the 1-particle RhoCI density.

 Excited State   2:      Singlet-A      2.2311 eV  555.71 nm  f=0.1038  <S**2>=0.000
     245 -> 247        0.63022
     246 -> 248        0.30575

 Excited State   3:      Singlet-A      3.1948 eV  388.08 nm  f=0.0021  <S**2>=0.000
     243 -> 247        0.68795

 Excited State   4:      Singlet-A      3.4568 eV  358.67 nm  f=0.2406  <S**2>=0.000
     241 -> 247        0.43958
     241 -> 249        0.18750
     242 -> 247       -0.19089
     245 -> 247       -0.18614
     246 -> 248        0.38896

 Excited State   5:      Singlet-A      3.4865 eV  355.61 nm  f=0.2244  <S**2>=0.000
     239 -> 247        0.14289
     241 -> 247       -0.37552
     241 -> 249       -0.18096
     242 -> 247       -0.30883
     245 -> 247       -0.16757
     246 -> 248        0.38347

 The electronic state is 1-A.
 Alpha  occ. eigenvalues --  -46.88593 -19.25934 -19.25452 -19.19602 -19.19316
 Alpha  occ. eigenvalues --  -19.19075 -19.18709 -14.42916 -14.42441 -14.40632
 Alpha  occ. eigenvalues --  -14.39052 -10.39268 -10.39032 -10.35284 -10.35149
 Alpha  occ. eigenvalues --  -10.32551 -10.31934 -10.31817 -10.31689 -10.31642
 Alpha  occ. eigenvalues --  -10.31627 -10.31222 -10.30395 -10.29457 -10.29063
 Alpha  occ. eigenvalues --  -10.28951 -10.28903 -10.28554 -10.28540 -10.28514
 Alpha  occ. eigenvalues --  -10.28093 -10.28082 -10.28025 -10.27976 -10.27737
 Alpha  occ. eigenvalues --  -10.27593 -10.27337 -10.27257 -10.27147 -10.27125
 Alpha  occ. eigenvalues --  -10.27119 -10.26492 -10.26447 -10.26384 -10.26343
 Alpha  occ. eigenvalues --  -10.26147 -10.26120 -10.26045 -10.26032 -10.25805
 Alpha  occ. eigenvalues --  -10.25720 -10.25716 -10.25696 -10.25358 -10.25251
 Alpha  occ. eigenvalues --  -10.25238 -10.25227 -10.25209 -10.25135 -10.25079
 Alpha  occ. eigenvalues --  -10.24634 -10.24614 -10.24556 -10.24251 -10.24233
 Alpha  occ. eigenvalues --  -10.24184  -3.17258  -1.92155  -1.91717  -1.91565
 Alpha  occ. eigenvalues --   -1.17222  -1.16746  -1.09832  -1.09528  -1.07304
 Alpha  occ. eigenvalues --   -1.06754  -1.04958  -1.03732  -1.03275  -1.01950
 Alpha  occ. eigenvalues --   -0.93489  -0.90021  -0.89941  -0.89044  -0.89031
 Alpha  occ. eigenvalues --   -0.88446  -0.87974  -0.87745  -0.87084  -0.86862
 Alpha  occ. eigenvalues --   -0.85732  -0.85265  -0.84954  -0.84282  -0.83442
 Alpha  occ. eigenvalues --   -0.82968  -0.82087  -0.81511  -0.80997  -0.80398
 Alpha  occ. eigenvalues --   -0.79371  -0.78590  -0.77888  -0.77291  -0.76881
 Alpha  occ. eigenvalues --   -0.75890  -0.75330  -0.75208  -0.74208  -0.74027
 Alpha  occ. eigenvalues --   -0.73219  -0.72642  -0.72090  -0.70117  -0.69347
 Alpha  occ. eigenvalues --   -0.68733  -0.68199  -0.67325  -0.66262  -0.66137
 Alpha  occ. eigenvalues --   -0.65275  -0.65085  -0.64892  -0.64781  -0.63979
 Alpha  occ. eigenvalues --   -0.63697  -0.63122  -0.62959  -0.62479  -0.60526
 Alpha  occ. eigenvalues --   -0.59956  -0.59509  -0.59071  -0.58452  -0.57981
 Alpha  occ. eigenvalues --   -0.57571  -0.56936  -0.56470  -0.56276  -0.56057
 Alpha  occ. eigenvalues --   -0.55601  -0.55351  -0.54825  -0.54359  -0.53793
 Alpha  occ. eigenvalues --   -0.53745  -0.53655  -0.53528  -0.53082  -0.53024
 Alpha  occ. eigenvalues --   -0.52829  -0.52743  -0.52331  -0.52067  -0.51911
 Alpha  occ. eigenvalues --   -0.51569  -0.51489  -0.51370  -0.51263  -0.50888
 Alpha  occ. eigenvalues --   -0.50559  -0.50356  -0.49814  -0.49418  -0.49363
 Alpha  occ. eigenvalues --   -0.49258  -0.49171  -0.49112  -0.48977  -0.48556
 Alpha  occ. eigenvalues --   -0.48432  -0.48243  -0.48221  -0.48081  -0.47732
 Alpha  occ. eigenvalues --   -0.47427  -0.47037  -0.46971  -0.46618  -0.46474
 Alpha  occ. eigenvalues --   -0.46236  -0.46016  -0.45876  -0.45632  -0.45564
 Alpha  occ. eigenvalues --   -0.45313  -0.45228  -0.45141  -0.45096  -0.44783
 Alpha  occ. eigenvalues --   -0.44610  -0.44480  -0.44414  -0.44285  -0.44123
 Alpha  occ. eigenvalues --   -0.43997  -0.43495  -0.43461  -0.43120  -0.43032
 Alpha  occ. eigenvalues --   -0.42649  -0.42617  -0.42585  -0.42480  -0.42199
 Alpha  occ. eigenvalues --   -0.42120  -0.42023  -0.41870  -0.41646  -0.41387
 Alpha  occ. eigenvalues --   -0.41069  -0.40909  -0.40799  -0.40705  -0.40455
 Alpha  occ. eigenvalues --   -0.40355  -0.39882  -0.39776  -0.39211  -0.38914
 Alpha  occ. eigenvalues --   -0.38404  -0.38005  -0.37990  -0.37685  -0.37561
 Alpha  occ. eigenvalues --   -0.37497  -0.37227  -0.37175  -0.36921  -0.36823
 Alpha  occ. eigenvalues --   -0.36549  -0.36536  -0.34764  -0.34581  -0.34318
 Alpha  occ. eigenvalues --   -0.34172  -0.33827  -0.33515  -0.31608  -0.31305
 Alpha  occ. eigenvalues --   -0.31022  -0.30373  -0.29625  -0.29336  -0.24574
 Alpha  occ. eigenvalues --   -0.21398
 Alpha virt. eigenvalues --   -0.09250  -0.02305   0.00366   0.01862   0.02558
 Alpha virt. eigenvalues --    0.04970   0.05200   0.05401   0.05580   0.06333
 Alpha virt. eigenvalues --    0.07295   0.08048   0.08177   0.08313   0.08933

 Mulliken charges:
               1
     1  Mg   0.846357
     2  C   -0.016232
     3  C   -0.047760
     4  C   -0.069698
     5  C   -0.129882
     6  N   -0.253967
     7  C   -0.081985
     8  C   -0.002247
     9  C   -0.052331
    10  C    0.065270
    11  C    0.034159
    12  C    0.031727
    13  C    0.041837
    14  C    0.171375
    15  O   -0.245436
    16  O   -0.315040
    17  N   -0.386057
    18  C    0.130800
    19  C   -0.148888
    20  C   -0.024175
    21  C    0.160060
    22  C    0.107854
    23  C   -0.021093
    24  O   -0.209950
    25  C    0.073202
    26  N   -0.327489
    27  C   -0.008809
    28  C    0.013476
    29  C   -0.047179
    30  C    0.071107
    31  C    0.079762
    32  C    0.029216
    33  C   -0.008323
    34  N   -0.358991
    35  C    0.175565
    36  C   -0.172494
    37  C   -0.038510
    38  C    0.142171
    39  C    0.138423
    40  C    0.033069
    41  O   -0.175666
    42  C    0.025773
    43  C    0.169928
    44  O   -0.231383
    45  O   -0.325205
    46  C    0.170324
    47  C    0.263160
    48  C   -0.081244
    49  C   -0.238081
    50  C    0.096518
    51  C    0.061559
    52  C   -0.020729
    53  C    0.095077
    54  C   -0.126867
    55  C    0.039087
    56  C    0.002763
    57  C    0.052525
    58  C    0.014034
    59  C   -0.115561
    60  C    0.049840
    61  C    0.038197
    62  C   -0.008561
    63  C    0.060003
    64  C   -0.140849
    65  C    0.019034
    66  C    0.032997
    67  H   -0.028182
    68  H   -0.032620
    69  H   -0.029879
    70  H    0.027270
    71  H    0.016507
    72  H    0.011437
    73  H    0.022884
    74  H    0.016289
    75  H    0.017891
    76  H    0.026796
    77  H    0.042717
    78  H    0.036983
    79  H    0.033812
    80  H    0.031214
    81  H    0.009181
    82  H    0.032943
    83  H    0.053274
    84  H    0.025409
    85  H    0.009966
    86  H    0.011495
    87  H    0.018410
    88  H    0.022558
    89  H    0.006475
    90  H    0.023195
    91  H   -0.002749
    92  H    0.023505
    93  H    0.002748
    94  H    0.011612
    95  H    0.009770
    96  H    0.013707
    97  H    0.050724
    98  H    0.038947
    99  H    0.054948
   100  H    0.049419
   101  H    0.043304
   102  H    0.039019
   103  H    0.029055
   104  H   -0.002007
   105  H    0.023663
   106  H    0.028877
   107  H    0.039212
   108  H   -0.000742
   109  H   -0.000617
   110  H    0.011091
   111  H    0.000748
   112  H   -0.018631
   113  H   -0.000994
   114  H    0.000403
   115  H    0.000932
   116  H    0.018976
   117  H    0.013530
   118  H    0.004985
   119  H   -0.001148
   120  H    0.004394
   121  H   -0.002359
   122  H   -0.019552
   123  H   -0.012455
   124  H   -0.008985
   125  H    0.000572
   126  H    0.001299
   127  H    0.011418
   128  H   -0.008828
   129  H    0.000031
   130  H    0.001646
   131  H   -0.001520
   132  H   -0.000810
   133  H    0.004221
   134  H    0.006817
   135  H    0.007972
   136  H   -0.007476
   137  H    0.006453
   138  H    0.008927
   139  H    0.011234
   140  H    0.003122
 Sum of Mulliken charges =  -0.00000

 Dipole moment (field-independent basis, Debye):
    X=             -0.2508    Y=              7.4960    Z=             -1.4759  Tot=              7.6440
 Quadrupole moment (field-independent basis, Debye-Ang):
   XX=           -394.5716   YY=           -425.4186   ZZ=           -407.2576
   XY=            -43.7499   XZ=            -15.4978   YZ=            -34.3123

 Normal termination of Gaussian 16 at Thu May  5 08:07:13 2022.
