 Gaussian 16, Revision A.03,
 Gaussian 16:  ES64L-G16RevA.03 25-Dec-2016

 ---------------------------------
 #p PBE1PBE/Def2SVP td=(nstates=5)
 ---------------------------------

 -----------------------------------------------------
 step_751_chromophore_26 TDDFT with PBE1PBE functional
 -----------------------------------------------------
 Symbolic Z-matrix:
 Charge =  0 Multiplicity = 1

                         Standard orientation:
 ---------------------------------------------------------------------
 Center     Atomic      Atomic             Coordinates (Angstroms)
 Number     Number       Type             X           Y           Z
 ---------------------------------------------------------------------
      1         12           0       -4.124689    1.163912    0.499576
      2          6           0       -5.249527   -2.104273    0.078055
      3          6           0       -2.466065    0.073873    3.390917
      4          6           0       -2.861039    4.334210    0.824440
      5          6           0       -5.208551    1.907745   -2.711344
      6          7           0       -3.890802   -0.849391    1.619357
      7          6           0       -4.311540   -2.025268    1.105533
      8          6           0       -3.769744   -3.210519    2.043766
      9          6           0       -3.025987   -2.426068    3.179621
     10          6           0       -3.095772   -0.979010    2.736951
     11          6           0       -3.659836   -2.667874    4.629172
     12          6           0       -2.780011   -4.138281    1.196322
     13          6           0       -2.155030   -3.579263   -0.067288
     14          6           0       -0.691490   -4.082782   -0.370781
     15          8           0       -0.257854   -5.206935   -0.122445
     16          8           0        0.050121   -3.085998   -0.920016
     17          7           0       -2.870169    2.063362    1.896687
     18          6           0       -2.313506    1.447585    2.992282
     19          6           0       -1.640357    2.484008    3.785197
     20          6           0       -1.692492    3.716070    3.132072
     21          6           0       -2.464121    3.404936    1.872915
     22          6           0       -0.805319    2.085098    5.069539
     23          6           0       -1.071473    5.020788    3.590718
     24          8           0       -0.410739    5.014181    4.628245
     25          6           0       -1.246354    6.281762    2.860343
     26          7           0       -4.033983    2.769956   -0.746527
     27          6           0       -3.518931    4.063897   -0.386607
     28          6           0       -3.805332    5.131773   -1.437297
     29          6           0       -4.393903    4.301284   -2.625160
     30          6           0       -4.466763    2.891685   -1.996340
     31          6           0       -4.703724    6.243936   -0.895490
     32          6           0       -3.659406    4.241992   -4.022046
     33          6           0       -4.250512    5.065784   -5.136864
     34          7           0       -5.041049    0.168725   -1.034723
     35          6           0       -5.488683    0.619888   -2.276392
     36          6           0       -6.286115   -0.371435   -2.862170
     37          6           0       -6.212899   -1.512343   -1.956309
     38          6           0       -5.433746   -1.082628   -0.908921
     39          6           0       -7.136235   -0.232190   -4.064200
     40          6           0       -6.712066   -2.868264   -1.731110
     41          8           0       -7.379670   -3.587805   -2.477030
     42          6           0       -6.022044   -3.321190   -0.426114
     43          6           0       -7.041483   -3.813621    0.453341
     44          8           0       -7.092233   -4.945477    0.964341
     45          8           0       -7.868992   -2.809086    0.706743
     46          6           0       -9.109028   -3.087005    1.508572
     47          6           0        1.296552   -3.683710   -1.443537
     48          6           0        1.916519   -2.682621   -2.404517
     49          6           0        3.209256   -2.185615   -2.378802
     50          6           0        4.458104   -2.848565   -1.732555
     51          6           0        3.524539   -0.876679   -3.139118
     52          6           0        4.066210    0.264317   -2.250773
     53          6           0        5.618441    0.552172   -2.304631
     54          6           0        6.325521    0.753032   -0.972763
     55          6           0        7.037897    2.190688   -0.761097
     56          6           0        7.429907   -0.371917   -0.860103
     57          6           0        7.693143   -0.724121    0.620730
     58          6           0        9.145449   -1.321567    0.781335
     59          6           0       10.128594   -0.639134    1.742244
     60          6           0        9.850847   -1.212654    3.176496
     61          6           0       11.633243   -0.799314    1.340458
     62          6           0       12.123706    0.186958    0.222385
     63          6           0       13.059578   -0.398291   -0.918898
     64          6           0       14.356707    0.450022   -1.002852
     65          6           0       14.973939    0.208552   -2.443886
     66          6           0       15.377263    0.056032    0.114729
     67          1           0       -1.945114   -0.180133    4.316442
     68          1           0       -2.549745    5.377595    0.747816
     69          1           0       -5.623007    2.235441   -3.668057
     70          1           0       -4.633070   -3.777852    2.390237
     71          1           0       -2.050543   -2.860867    3.399428
     72          1           0       -3.861090   -1.678040    5.039229
     73          1           0       -3.025270   -3.205852    5.333245
     74          1           0       -4.617624   -3.181662    4.548105
     75          1           0       -3.504562   -4.901035    0.909531
     76          1           0       -2.009235   -4.615968    1.801013
     77          1           0       -2.078662   -2.492590   -0.040678
     78          1           0       -2.832852   -3.831948   -0.882514
     79          1           0       -1.010291    2.793175    5.872869
     80          1           0        0.235814    2.230771    4.783582
     81          1           0       -0.862206    1.073365    5.469929
     82          1           0       -2.324380    6.436531    2.894106
     83          1           0       -0.847739    6.284274    1.846581
     84          1           0       -0.807448    7.087752    3.447329
     85          1           0       -2.863765    5.564706   -1.774780
     86          1           0       -5.400502    4.639081   -2.871964
     87          1           0       -4.381314    6.501875    0.112687
     88          1           0       -5.774899    6.100694   -1.039841
     89          1           0       -4.526352    7.116584   -1.522836
     90          1           0       -3.492198    3.255571   -4.453973
     91          1           0       -2.660550    4.651968   -3.871729
     92          1           0       -3.511447    5.540803   -5.782036
     93          1           0       -4.913598    5.838490   -4.748576
     94          1           0       -4.924816    4.454698   -5.737644
     95          1           0       -6.533249    0.170923   -4.877851
     96          1           0       -7.832856    0.601044   -3.970229
     97          1           0       -7.626545   -1.196198   -4.194549
     98          1           0       -5.413050   -4.152532   -0.779175
     99          1           0       -9.109456   -4.048125    2.023438
    100          1           0       -9.971730   -3.097425    0.841862
    101          1           0       -9.201491   -2.310304    2.267863
    102          1           0        1.062096   -4.584920   -2.010515
    103          1           0        1.964574   -3.895512   -0.608681
    104          1           0        1.257855   -1.932918   -2.840414
    105          1           0        4.195402   -3.810216   -1.291752
    106          1           0        4.600748   -2.098545   -0.955579
    107          1           0        5.229426   -2.848411   -2.502321
    108          1           0        2.681422   -0.492043   -3.713438
    109          1           0        4.312332   -1.162135   -3.836438
    110          1           0        3.672238    0.067118   -1.253176
    111          1           0        3.509438    1.118322   -2.635592
    112          1           0        5.675627    1.541454   -2.760382
    113          1           0        6.102667   -0.142780   -2.990920
    114          1           0        5.569498    0.610344   -0.200496
    115          1           0        6.626795    2.921208   -1.458430
    116          1           0        8.117076    2.114397   -0.891631
    117          1           0        6.799492    2.676595    0.184980
    118          1           0        8.298472    0.002105   -1.400727
    119          1           0        7.160778   -1.301589   -1.362368
    120          1           0        7.016981   -1.479060    1.024252
    121          1           0        7.662020    0.149168    1.272219
    122          1           0        9.515811   -1.373291   -0.242088
    123          1           0        9.148756   -2.369556    1.079848
    124          1           0        9.958662    0.436531    1.698926
    125          1           0        8.984981   -1.874275    3.129265
    126          1           0        9.539760   -0.436046    3.875600
    127          1           0       10.662828   -1.734859    3.682160
    128          1           0       11.764778   -1.814013    0.965001
    129          1           0       12.308239   -0.582694    2.168813
    130          1           0       12.649101    0.945342    0.802786
    131          1           0       11.240435    0.614017   -0.254780
    132          1           0       12.495881   -0.346634   -1.849789
    133          1           0       13.289212   -1.433598   -0.663958
    134          1           0       14.303275    1.536253   -0.923133
    135          1           0       14.322263    0.342361   -3.307809
    136          1           0       15.199558   -0.856303   -2.497821
    137          1           0       15.921640    0.720128   -2.611156
    138          1           0       15.944600    0.919250    0.460925
    139          1           0       16.029619   -0.735958   -0.255338
    140          1           0       14.855741   -0.291903    1.006928
 ---------------------------------------------------------------------

 SCF Done:  E(RPBE1PBE) =  -3005.36672391     A.U. after   15 cycles

 Excitation energies and oscillator strengths:

 Excited State   1:      Singlet-A      1.8153 eV  682.99 nm  f=0.3377  <S**2>=0.000
     245 -> 248       -0.16333
     246 -> 247        0.69453
     246 <- 247       -0.11570
 This state for optimization and/or second-order correction.
 Total Energy, E(TD-HF/TD-DFT) =  -3005.30001261
 Copying the excited state density for this state as the 1-particle RhoCI density.

 Excited State   2:      Singlet-A      2.2512 eV  550.76 nm  f=0.1008  <S**2>=0.000
     245 -> 247        0.64035
     246 -> 248        0.28078

 Excited State   3:      Singlet-A      2.8839 eV  429.91 nm  f=0.0034  <S**2>=0.000
     241 -> 247       -0.27328
     243 -> 247        0.63370

 Excited State   4:      Singlet-A      2.9780 eV  416.33 nm  f=0.0030  <S**2>=0.000
     241 -> 247        0.61836
     241 -> 249        0.10987
     243 -> 247        0.28280

 Excited State   5:      Singlet-A      3.0744 eV  403.28 nm  f=0.0024  <S**2>=0.000
     242 -> 247        0.68098

 The electronic state is 1-A.
 Alpha  occ. eigenvalues --  -46.91988 -19.26514 -19.26136 -19.19923 -19.19488
 Alpha  occ. eigenvalues --  -19.19323 -19.18967 -14.42421 -14.41944 -14.40281
 Alpha  occ. eigenvalues --  -14.38708 -10.36339 -10.35983 -10.32395 -10.32324
 Alpha  occ. eigenvalues --  -10.29719 -10.29719 -10.29475 -10.29366 -10.29307
 Alpha  occ. eigenvalues --  -10.29207 -10.28960 -10.28172 -10.27079 -10.26867
 Alpha  occ. eigenvalues --  -10.26735 -10.26529 -10.26376 -10.26348 -10.26293
 Alpha  occ. eigenvalues --  -10.25800 -10.25756 -10.25697 -10.25595 -10.25418
 Alpha  occ. eigenvalues --  -10.25239 -10.25123 -10.24746 -10.24720 -10.24713
 Alpha  occ. eigenvalues --  -10.24643 -10.24075 -10.23998 -10.23853 -10.23833
 Alpha  occ. eigenvalues --  -10.23766 -10.23554 -10.23512 -10.23458 -10.23386
 Alpha  occ. eigenvalues --  -10.23368 -10.23303 -10.23227 -10.22934 -10.22920
 Alpha  occ. eigenvalues --  -10.22809 -10.22769 -10.22715 -10.22683 -10.22608
 Alpha  occ. eigenvalues --  -10.22187 -10.22171 -10.21938 -10.21816 -10.21639
 Alpha  occ. eigenvalues --  -10.21580  -3.14229  -1.87066  -1.86607  -1.86459
 Alpha  occ. eigenvalues --   -1.11943  -1.11576  -1.04601  -1.04208  -1.02180
 Alpha  occ. eigenvalues --   -1.01535  -0.99583  -0.98318  -0.97880  -0.96635
 Alpha  occ. eigenvalues --   -0.87800  -0.84234  -0.84105  -0.83321  -0.83121
 Alpha  occ. eigenvalues --   -0.82628  -0.82107  -0.82025  -0.81385  -0.80958
 Alpha  occ. eigenvalues --   -0.80081  -0.79508  -0.79233  -0.78492  -0.77638
 Alpha  occ. eigenvalues --   -0.77178  -0.76264  -0.75822  -0.75311  -0.74599
 Alpha  occ. eigenvalues --   -0.73515  -0.72886  -0.72172  -0.71539  -0.71165
 Alpha  occ. eigenvalues --   -0.70025  -0.69673  -0.69281  -0.68337  -0.68197
 Alpha  occ. eigenvalues --   -0.67647  -0.66946  -0.66525  -0.64427  -0.63693
 Alpha  occ. eigenvalues --   -0.63193  -0.62454  -0.61799  -0.60580  -0.60486
 Alpha  occ. eigenvalues --   -0.59806  -0.59468  -0.59344  -0.59141  -0.58206
 Alpha  occ. eigenvalues --   -0.58123  -0.57482  -0.57247  -0.56652  -0.55019
 Alpha  occ. eigenvalues --   -0.54555  -0.54092  -0.53525  -0.53034  -0.52531
 Alpha  occ. eigenvalues --   -0.51997  -0.51252  -0.51061  -0.50723  -0.50514
 Alpha  occ. eigenvalues --   -0.50199  -0.49853  -0.49264  -0.48965  -0.48453
 Alpha  occ. eigenvalues --   -0.48245  -0.48125  -0.47887  -0.47617  -0.47505
 Alpha  occ. eigenvalues --   -0.47359  -0.47255  -0.46814  -0.46661  -0.46429
 Alpha  occ. eigenvalues --   -0.46182  -0.45929  -0.45897  -0.45788  -0.45457
 Alpha  occ. eigenvalues --   -0.45084  -0.44889  -0.44453  -0.44007  -0.43939
 Alpha  occ. eigenvalues --   -0.43836  -0.43812  -0.43735  -0.43589  -0.43155
 Alpha  occ. eigenvalues --   -0.43057  -0.42838  -0.42800  -0.42678  -0.42371
 Alpha  occ. eigenvalues --   -0.42019  -0.41790  -0.41715  -0.41232  -0.41127
 Alpha  occ. eigenvalues --   -0.40925  -0.40740  -0.40580  -0.40351  -0.40286
 Alpha  occ. eigenvalues --   -0.39997  -0.39929  -0.39877  -0.39743  -0.39570
 Alpha  occ. eigenvalues --   -0.39436  -0.39249  -0.39153  -0.39082  -0.38812
 Alpha  occ. eigenvalues --   -0.38693  -0.38243  -0.38108  -0.38001  -0.37783
 Alpha  occ. eigenvalues --   -0.37404  -0.37349  -0.37327  -0.37210  -0.37065
 Alpha  occ. eigenvalues --   -0.36996  -0.36842  -0.36721  -0.36488  -0.36257
 Alpha  occ. eigenvalues --   -0.35989  -0.35727  -0.35679  -0.35472  -0.35339
 Alpha  occ. eigenvalues --   -0.35143  -0.34775  -0.34540  -0.34003  -0.33654
 Alpha  occ. eigenvalues --   -0.33199  -0.32994  -0.32871  -0.32669  -0.32584
 Alpha  occ. eigenvalues --   -0.32303  -0.32152  -0.31983  -0.31892  -0.31702
 Alpha  occ. eigenvalues --   -0.31569  -0.31319  -0.29939  -0.29569  -0.29383
 Alpha  occ. eigenvalues --   -0.29156  -0.28802  -0.28655  -0.27247  -0.26230
 Alpha  occ. eigenvalues --   -0.25873  -0.25797  -0.25215  -0.24644  -0.21498
 Alpha  occ. eigenvalues --   -0.19044
 Alpha virt. eigenvalues --   -0.11659  -0.05812  -0.03871  -0.02441  -0.00394
 Alpha virt. eigenvalues --    0.00519   0.00716   0.00980   0.01029   0.02558
 Alpha virt. eigenvalues --    0.03379   0.03918   0.04779   0.05052   0.05680

 Mulliken charges:
               1
     1  Mg   0.996833
     2  C   -0.006265
     3  C   -0.043055
     4  C   -0.072567
     5  C   -0.111277
     6  N   -0.354615
     7  C   -0.009527
     8  C   -0.072516
     9  C   -0.121819
    10  C    0.096554
    11  C   -0.020968
    12  C   -0.011981
    13  C   -0.042909
    14  C    0.236881
    15  O   -0.276114
    16  O   -0.344161
    17  N   -0.499419
    18  C    0.160433
    19  C   -0.170359
    20  C   -0.075978
    21  C    0.192773
    22  C    0.048950
    23  C    0.028594
    24  O   -0.244682
    25  C   -0.003021
    26  N   -0.433826
    27  C    0.023906
    28  C   -0.070203
    29  C   -0.114163
    30  C    0.108241
    31  C    0.021650
    32  C   -0.028575
    33  C   -0.079739
    34  N   -0.490282
    35  C    0.185115
    36  C   -0.185773
    37  C   -0.081294
    38  C    0.180412
    39  C    0.082312
    40  C    0.131578
    41  O   -0.223042
    42  C   -0.101685
    43  C    0.269164
    44  O   -0.271849
    45  O   -0.353517
    46  C    0.116803
    47  C    0.216673
    48  C   -0.094616
    49  C   -0.275954
    50  C    0.029201
    51  C    0.000634
    52  C   -0.082959
    53  C    0.040522
    54  C   -0.210429
    55  C   -0.019845
    56  C   -0.058064
    57  C   -0.007193
    58  C   -0.039384
    59  C   -0.205103
    60  C   -0.008227
    61  C   -0.013459
    62  C   -0.069590
    63  C    0.002477
    64  C   -0.235400
    65  C   -0.042808
    66  C   -0.025435
    67  H    0.004469
    68  H   -0.000463
    69  H    0.001582
    70  H    0.064110
    71  H    0.052567
    72  H    0.039580
    73  H    0.049313
    74  H    0.043909
    75  H    0.051490
    76  H    0.057560
    77  H    0.079138
    78  H    0.071715
    79  H    0.061548
    80  H    0.059918
    81  H    0.035051
    82  H    0.060760
    83  H    0.078356
    84  H    0.053659
    85  H    0.046667
    86  H    0.048541
    87  H    0.046283
    88  H    0.049308
    89  H    0.035367
    90  H    0.054597
    91  H    0.030929
    92  H    0.050871
    93  H    0.030651
    94  H    0.039375
    95  H    0.037700
    96  H    0.042173
    97  H    0.077930
    98  H    0.076647
    99  H    0.074615
   100  H    0.070645
   101  H    0.064224
   102  H    0.066902
   103  H    0.056277
   104  H    0.028763
   105  H    0.051149
   106  H    0.060147
   107  H    0.064363
   108  H    0.029981
   109  H    0.033508
   110  H    0.042737
   111  H    0.034169
   112  H    0.015765
   113  H    0.028965
   114  H    0.037863
   115  H    0.027990
   116  H    0.045246
   117  H    0.040407
   118  H    0.036683
   119  H    0.034324
   120  H    0.036456
   121  H    0.030889
   122  H    0.014594
   123  H    0.020769
   124  H    0.028883
   125  H    0.028051
   126  H    0.029178
   127  H    0.037729
   128  H    0.023692
   129  H    0.032080
   130  H    0.034501
   131  H    0.032182
   132  H    0.031324
   133  H    0.035588
   134  H    0.043912
   135  H    0.035889
   136  H    0.020956
   137  H    0.034596
   138  H    0.036492
   139  H    0.038025
   140  H    0.032131
 Sum of Mulliken charges =  -0.00000

 Dipole moment (field-independent basis, Debye):
    X=             -0.1782    Y=              7.6507    Z=             -1.4356  Tot=              7.7863
 Quadrupole moment (field-independent basis, Debye-Ang):
   XX=           -392.0644   YY=           -421.6089   ZZ=           -403.2589
   XY=            -44.6186   XZ=            -14.8653   YZ=            -35.6504

 Normal termination of Gaussian 16 at Thu May  5 08:35:50 2022.
