 Gaussian 16, Revision A.03,
 Gaussian 16:  ES64L-G16RevA.03 25-Dec-2016

 --------------------------------
 #p wB97XD/Def2SVP td=(nstates=5)
 --------------------------------

 ----------------------------------------------------
 step_751_chromophore_26 TDDFT with wB97XD functional
 ----------------------------------------------------
 Symbolic Z-matrix:
 Charge =  0 Multiplicity = 1

                         Standard orientation:
 ---------------------------------------------------------------------
 Center     Atomic      Atomic             Coordinates (Angstroms)
 Number     Number       Type             X           Y           Z
 ---------------------------------------------------------------------
      1         12           0       -4.124689    1.163912    0.499576
      2          6           0       -5.249527   -2.104273    0.078055
      3          6           0       -2.466065    0.073873    3.390917
      4          6           0       -2.861039    4.334210    0.824440
      5          6           0       -5.208551    1.907745   -2.711344
      6          7           0       -3.890802   -0.849391    1.619357
      7          6           0       -4.311540   -2.025268    1.105533
      8          6           0       -3.769744   -3.210519    2.043766
      9          6           0       -3.025987   -2.426068    3.179621
     10          6           0       -3.095772   -0.979010    2.736951
     11          6           0       -3.659836   -2.667874    4.629172
     12          6           0       -2.780011   -4.138281    1.196322
     13          6           0       -2.155030   -3.579263   -0.067288
     14          6           0       -0.691490   -4.082782   -0.370781
     15          8           0       -0.257854   -5.206935   -0.122445
     16          8           0        0.050121   -3.085998   -0.920016
     17          7           0       -2.870169    2.063362    1.896687
     18          6           0       -2.313506    1.447585    2.992282
     19          6           0       -1.640357    2.484008    3.785197
     20          6           0       -1.692492    3.716070    3.132072
     21          6           0       -2.464121    3.404936    1.872915
     22          6           0       -0.805319    2.085098    5.069539
     23          6           0       -1.071473    5.020788    3.590718
     24          8           0       -0.410739    5.014181    4.628245
     25          6           0       -1.246354    6.281762    2.860343
     26          7           0       -4.033983    2.769956   -0.746527
     27          6           0       -3.518931    4.063897   -0.386607
     28          6           0       -3.805332    5.131773   -1.437297
     29          6           0       -4.393903    4.301284   -2.625160
     30          6           0       -4.466763    2.891685   -1.996340
     31          6           0       -4.703724    6.243936   -0.895490
     32          6           0       -3.659406    4.241992   -4.022046
     33          6           0       -4.250512    5.065784   -5.136864
     34          7           0       -5.041049    0.168725   -1.034723
     35          6           0       -5.488683    0.619888   -2.276392
     36          6           0       -6.286115   -0.371435   -2.862170
     37          6           0       -6.212899   -1.512343   -1.956309
     38          6           0       -5.433746   -1.082628   -0.908921
     39          6           0       -7.136235   -0.232190   -4.064200
     40          6           0       -6.712066   -2.868264   -1.731110
     41          8           0       -7.379670   -3.587805   -2.477030
     42          6           0       -6.022044   -3.321190   -0.426114
     43          6           0       -7.041483   -3.813621    0.453341
     44          8           0       -7.092233   -4.945477    0.964341
     45          8           0       -7.868992   -2.809086    0.706743
     46          6           0       -9.109028   -3.087005    1.508572
     47          6           0        1.296552   -3.683710   -1.443537
     48          6           0        1.916519   -2.682621   -2.404517
     49          6           0        3.209256   -2.185615   -2.378802
     50          6           0        4.458104   -2.848565   -1.732555
     51          6           0        3.524539   -0.876679   -3.139118
     52          6           0        4.066210    0.264317   -2.250773
     53          6           0        5.618441    0.552172   -2.304631
     54          6           0        6.325521    0.753032   -0.972763
     55          6           0        7.037897    2.190688   -0.761097
     56          6           0        7.429907   -0.371917   -0.860103
     57          6           0        7.693143   -0.724121    0.620730
     58          6           0        9.145449   -1.321567    0.781335
     59          6           0       10.128594   -0.639134    1.742244
     60          6           0        9.850847   -1.212654    3.176496
     61          6           0       11.633243   -0.799314    1.340458
     62          6           0       12.123706    0.186958    0.222385
     63          6           0       13.059578   -0.398291   -0.918898
     64          6           0       14.356707    0.450022   -1.002852
     65          6           0       14.973939    0.208552   -2.443886
     66          6           0       15.377263    0.056032    0.114729
     67          1           0       -1.945114   -0.180133    4.316442
     68          1           0       -2.549745    5.377595    0.747816
     69          1           0       -5.623007    2.235441   -3.668057
     70          1           0       -4.633070   -3.777852    2.390237
     71          1           0       -2.050543   -2.860867    3.399428
     72          1           0       -3.861090   -1.678040    5.039229
     73          1           0       -3.025270   -3.205852    5.333245
     74          1           0       -4.617624   -3.181662    4.548105
     75          1           0       -3.504562   -4.901035    0.909531
     76          1           0       -2.009235   -4.615968    1.801013
     77          1           0       -2.078662   -2.492590   -0.040678
     78          1           0       -2.832852   -3.831948   -0.882514
     79          1           0       -1.010291    2.793175    5.872869
     80          1           0        0.235814    2.230771    4.783582
     81          1           0       -0.862206    1.073365    5.469929
     82          1           0       -2.324380    6.436531    2.894106
     83          1           0       -0.847739    6.284274    1.846581
     84          1           0       -0.807448    7.087752    3.447329
     85          1           0       -2.863765    5.564706   -1.774780
     86          1           0       -5.400502    4.639081   -2.871964
     87          1           0       -4.381314    6.501875    0.112687
     88          1           0       -5.774899    6.100694   -1.039841
     89          1           0       -4.526352    7.116584   -1.522836
     90          1           0       -3.492198    3.255571   -4.453973
     91          1           0       -2.660550    4.651968   -3.871729
     92          1           0       -3.511447    5.540803   -5.782036
     93          1           0       -4.913598    5.838490   -4.748576
     94          1           0       -4.924816    4.454698   -5.737644
     95          1           0       -6.533249    0.170923   -4.877851
     96          1           0       -7.832856    0.601044   -3.970229
     97          1           0       -7.626545   -1.196198   -4.194549
     98          1           0       -5.413050   -4.152532   -0.779175
     99          1           0       -9.109456   -4.048125    2.023438
    100          1           0       -9.971730   -3.097425    0.841862
    101          1           0       -9.201491   -2.310304    2.267863
    102          1           0        1.062096   -4.584920   -2.010515
    103          1           0        1.964574   -3.895512   -0.608681
    104          1           0        1.257855   -1.932918   -2.840414
    105          1           0        4.195402   -3.810216   -1.291752
    106          1           0        4.600748   -2.098545   -0.955579
    107          1           0        5.229426   -2.848411   -2.502321
    108          1           0        2.681422   -0.492043   -3.713438
    109          1           0        4.312332   -1.162135   -3.836438
    110          1           0        3.672238    0.067118   -1.253176
    111          1           0        3.509438    1.118322   -2.635592
    112          1           0        5.675627    1.541454   -2.760382
    113          1           0        6.102667   -0.142780   -2.990920
    114          1           0        5.569498    0.610344   -0.200496
    115          1           0        6.626795    2.921208   -1.458430
    116          1           0        8.117076    2.114397   -0.891631
    117          1           0        6.799492    2.676595    0.184980
    118          1           0        8.298472    0.002105   -1.400727
    119          1           0        7.160778   -1.301589   -1.362368
    120          1           0        7.016981   -1.479060    1.024252
    121          1           0        7.662020    0.149168    1.272219
    122          1           0        9.515811   -1.373291   -0.242088
    123          1           0        9.148756   -2.369556    1.079848
    124          1           0        9.958662    0.436531    1.698926
    125          1           0        8.984981   -1.874275    3.129265
    126          1           0        9.539760   -0.436046    3.875600
    127          1           0       10.662828   -1.734859    3.682160
    128          1           0       11.764778   -1.814013    0.965001
    129          1           0       12.308239   -0.582694    2.168813
    130          1           0       12.649101    0.945342    0.802786
    131          1           0       11.240435    0.614017   -0.254780
    132          1           0       12.495881   -0.346634   -1.849789
    133          1           0       13.289212   -1.433598   -0.663958
    134          1           0       14.303275    1.536253   -0.923133
    135          1           0       14.322263    0.342361   -3.307809
    136          1           0       15.199558   -0.856303   -2.497821
    137          1           0       15.921640    0.720128   -2.611156
    138          1           0       15.944600    0.919250    0.460925
    139          1           0       16.029619   -0.735958   -0.255338
    140          1           0       14.855741   -0.291903    1.006928
 ---------------------------------------------------------------------

 SCF Done:  E(RwB97XD) =  -3007.87628610     A.U. after   19 cycles

 Excitation energies and oscillator strengths:

 Excited State   1:      Singlet-A      1.5954 eV  777.13 nm  f=0.3538  <S**2>=0.000
     245 -> 248       -0.17426
     246 -> 247        0.68487
     245 <- 248       -0.11674
 This state for optimization and/or second-order correction.
 Total Energy, E(TD-HF/TD-DFT) =  -3007.81765561
 Copying the excited state density for this state as the 1-particle RhoCI density.

 Excited State   2:      Singlet-A      2.1742 eV  570.24 nm  f=0.1011  <S**2>=0.000
     245 -> 247        0.62858
     246 -> 248        0.30793

 Excited State   3:      Singlet-A      3.2032 eV  387.06 nm  f=0.0011  <S**2>=0.000
     243 -> 247        0.68155
     246 -> 248       -0.10012

 Excited State   4:      Singlet-A      3.4843 eV  355.84 nm  f=0.2886  <S**2>=0.000
     241 -> 247        0.40813
     241 -> 249        0.19333
     241 -> 250        0.11667
     242 -> 247       -0.19977
     245 -> 247       -0.20049
     246 -> 248        0.40937

 Excited State   5:      Singlet-A      3.5114 eV  353.09 nm  f=0.2748  <S**2>=0.000
     239 -> 247       -0.11694
     241 -> 247        0.40568
     241 -> 249        0.20924
     241 -> 250        0.12722
     242 -> 247        0.21734
     245 -> 247        0.18123
     246 -> 248       -0.39643

 The electronic state is 1-A.
 Alpha  occ. eigenvalues --  -46.94944 -19.31153 -19.30684 -19.24555 -19.24405
 Alpha  occ. eigenvalues --  -19.24073 -19.23697 -14.47538 -14.47039 -14.45234
 Alpha  occ. eigenvalues --  -14.43667 -10.43090 -10.42883 -10.39349 -10.39073
 Alpha  occ. eigenvalues --  -10.36290 -10.35998 -10.35740 -10.35700 -10.35698
 Alpha  occ. eigenvalues --  -10.35634 -10.35231 -10.34417 -10.33500 -10.33098
 Alpha  occ. eigenvalues --  -10.32967 -10.32959 -10.32700 -10.32637 -10.32636
 Alpha  occ. eigenvalues --  -10.32248 -10.32152 -10.32079 -10.32015 -10.31755
 Alpha  occ. eigenvalues --  -10.31644 -10.31406 -10.31165 -10.31155 -10.31060
 Alpha  occ. eigenvalues --  -10.31023 -10.30355 -10.30345 -10.30324 -10.30289
 Alpha  occ. eigenvalues --  -10.30103 -10.30023 -10.29895 -10.29859 -10.29725
 Alpha  occ. eigenvalues --  -10.29674 -10.29646 -10.29633 -10.29327 -10.29300
 Alpha  occ. eigenvalues --  -10.29181 -10.29133 -10.29097 -10.29075 -10.28997
 Alpha  occ. eigenvalues --  -10.28553 -10.28538 -10.28364 -10.28178 -10.28061
 Alpha  occ. eigenvalues --  -10.28006  -3.21035  -1.94623  -1.94165  -1.94016
 Alpha  occ. eigenvalues --   -1.19416  -1.18930  -1.12010  -1.11795  -1.09503
 Alpha  occ. eigenvalues --   -1.08969  -1.07000  -1.05742  -1.05285  -1.03977
 Alpha  occ. eigenvalues --   -0.95496  -0.91811  -0.91791  -0.90943  -0.90804
 Alpha  occ. eigenvalues --   -0.90279  -0.89760  -0.89662  -0.89046  -0.88631
 Alpha  occ. eigenvalues --   -0.87683  -0.87151  -0.86882  -0.86151  -0.85293
 Alpha  occ. eigenvalues --   -0.84871  -0.83929  -0.83463  -0.82939  -0.82264
 Alpha  occ. eigenvalues --   -0.81192  -0.80513  -0.79827  -0.79214  -0.78791
 Alpha  occ. eigenvalues --   -0.77718  -0.77272  -0.76986  -0.76020  -0.75865
 Alpha  occ. eigenvalues --   -0.75206  -0.74555  -0.74065  -0.72034  -0.71265
 Alpha  occ. eigenvalues --   -0.70756  -0.70083  -0.69322  -0.68155  -0.68056
 Alpha  occ. eigenvalues --   -0.67266  -0.67009  -0.66818  -0.66753  -0.65795
 Alpha  occ. eigenvalues --   -0.65691  -0.64938  -0.64923  -0.64301  -0.62508
 Alpha  occ. eigenvalues --   -0.61953  -0.61504  -0.60998  -0.60437  -0.59941
 Alpha  occ. eigenvalues --   -0.59521  -0.58774  -0.58441  -0.58199  -0.57978
 Alpha  occ. eigenvalues --   -0.57608  -0.57294  -0.56712  -0.56308  -0.55772
 Alpha  occ. eigenvalues --   -0.55603  -0.55588  -0.55361  -0.54982  -0.54909
 Alpha  occ. eigenvalues --   -0.54739  -0.54699  -0.54211  -0.54024  -0.53816
 Alpha  occ. eigenvalues --   -0.53494  -0.53338  -0.53314  -0.53152  -0.52821
 Alpha  occ. eigenvalues --   -0.52421  -0.52229  -0.51765  -0.51357  -0.51302
 Alpha  occ. eigenvalues --   -0.51174  -0.51096  -0.51064  -0.50883  -0.50459
 Alpha  occ. eigenvalues --   -0.50321  -0.50142  -0.50088  -0.49964  -0.49633
 Alpha  occ. eigenvalues --   -0.49292  -0.48977  -0.48889  -0.48477  -0.48400
 Alpha  occ. eigenvalues --   -0.48160  -0.47942  -0.47813  -0.47583  -0.47501
 Alpha  occ. eigenvalues --   -0.47243  -0.47115  -0.47062  -0.46961  -0.46728
 Alpha  occ. eigenvalues --   -0.46541  -0.46377  -0.46313  -0.46212  -0.45974
 Alpha  occ. eigenvalues --   -0.45922  -0.45368  -0.45320  -0.45026  -0.44941
 Alpha  occ. eigenvalues --   -0.44697  -0.44572  -0.44470  -0.44344  -0.44183
 Alpha  occ. eigenvalues --   -0.44031  -0.43888  -0.43797  -0.43545  -0.43300
 Alpha  occ. eigenvalues --   -0.42991  -0.42762  -0.42680  -0.42560  -0.42390
 Alpha  occ. eigenvalues --   -0.42208  -0.41786  -0.41623  -0.41044  -0.40738
 Alpha  occ. eigenvalues --   -0.40237  -0.39950  -0.39866  -0.39683  -0.39494
 Alpha  occ. eigenvalues --   -0.39337  -0.39200  -0.39009  -0.38911  -0.38694
 Alpha  occ. eigenvalues --   -0.38626  -0.38369  -0.36757  -0.36411  -0.36326
 Alpha  occ. eigenvalues --   -0.36009  -0.35755  -0.35725  -0.33808  -0.33217
 Alpha  occ. eigenvalues --   -0.33030  -0.32516  -0.31815  -0.31362  -0.26492
 Alpha  occ. eigenvalues --   -0.23197
 Alpha virt. eigenvalues --   -0.07608  -0.00379   0.02423   0.04077   0.05570
 Alpha virt. eigenvalues --    0.07227   0.07445   0.07660   0.07881   0.09081
 Alpha virt. eigenvalues --    0.09880   0.10649   0.11484   0.11666   0.12440

 Mulliken charges:
               1
     1  Mg   0.984594
     2  C   -0.019266
     3  C   -0.057344
     4  C   -0.082620
     5  C   -0.133336
     6  N   -0.319605
     7  C   -0.038945
     8  C   -0.048282
     9  C   -0.103124
    10  C    0.085228
    11  C   -0.009167
    12  C   -0.005472
    13  C   -0.018421
    14  C    0.229130
    15  O   -0.274969
    16  O   -0.344777
    17  N   -0.467507
    18  C    0.149143
    19  C   -0.163955
    20  C   -0.069786
    21  C    0.185253
    22  C    0.061051
    23  C    0.026281
    24  O   -0.240324
    25  C    0.008204
    26  N   -0.403043
    27  C    0.015072
    28  C   -0.042906
    29  C   -0.091503
    30  C    0.099069
    31  C    0.031963
    32  C   -0.017573
    33  C   -0.062896
    34  N   -0.451066
    35  C    0.182561
    36  C   -0.181902
    37  C   -0.080991
    38  C    0.168736
    39  C    0.091775
    40  C    0.111788
    41  O   -0.211739
    42  C   -0.053786
    43  C    0.242482
    44  O   -0.264707
    45  O   -0.354832
    46  C    0.132585
    47  C    0.233347
    48  C   -0.102886
    49  C   -0.260765
    50  C    0.046922
    51  C    0.017367
    52  C   -0.066903
    53  C    0.054858
    54  C   -0.182744
    55  C   -0.006607
    56  C   -0.035038
    57  C    0.007118
    58  C   -0.021639
    59  C   -0.172571
    60  C    0.002127
    61  C    0.000768
    62  C   -0.053425
    63  C    0.017489
    64  C   -0.205169
    65  C   -0.028984
    66  C   -0.015123
    67  H   -0.003920
    68  H   -0.012581
    69  H   -0.004032
    70  H    0.053971
    71  H    0.043912
    72  H    0.031654
    73  H    0.044799
    74  H    0.037784
    75  H    0.043738
    76  H    0.051308
    77  H    0.067307
    78  H    0.062858
    79  H    0.056931
    80  H    0.054384
    81  H    0.031282
    82  H    0.053905
    83  H    0.074531
    84  H    0.052446
    85  H    0.037286
    86  H    0.035627
    87  H    0.039415
    88  H    0.044475
    89  H    0.029371
    90  H    0.047269
    91  H    0.022560
    92  H    0.046406
    93  H    0.022962
    94  H    0.032698
    95  H    0.032156
    96  H    0.037159
    97  H    0.075279
    98  H    0.069588
    99  H    0.071393
   100  H    0.066912
   101  H    0.060821
   102  H    0.061183
   103  H    0.050183
   104  H    0.024370
   105  H    0.046621
   106  H    0.047491
   107  H    0.058990
   108  H    0.024731
   109  H    0.022853
   110  H    0.032473
   111  H    0.027877
   112  H    0.006352
   113  H    0.019192
   114  H    0.024647
   115  H    0.021639
   116  H    0.038289
   117  H    0.035288
   118  H    0.025141
   119  H    0.021376
   120  H    0.029742
   121  H    0.019710
   122  H    0.001689
   123  H    0.011058
   124  H    0.015169
   125  H    0.020733
   126  H    0.023896
   127  H    0.033015
   128  H    0.012918
   129  H    0.023967
   130  H    0.024993
   131  H    0.021245
   132  H    0.024049
   133  H    0.026104
   134  H    0.033468
   135  H    0.030218
   136  H    0.011670
   137  H    0.029554
   138  H    0.031711
   139  H    0.031778
   140  H    0.023749
 Sum of Mulliken charges =  -0.00000

 Dipole moment (field-independent basis, Debye):
    X=             -0.3062    Y=              7.6169    Z=             -1.4944  Tot=              7.7681
 Quadrupole moment (field-independent basis, Debye-Ang):
   XX=           -389.8964   YY=           -421.5423   ZZ=           -403.1693
   XY=            -44.0818   XZ=            -14.7996   YZ=            -35.2382

 Normal termination of Gaussian 16 at Thu May  5 09:11:32 2022.
