 Gaussian 16, Revision A.03,
 Gaussian 16:  ES64L-G16RevA.03 25-Dec-2016

 --------------------
 #p ZINDO=(nstates=5)
 --------------------

 -----------------------------
 step_751_chromophore_26 ZINDO
 -----------------------------
 Symbolic Z-matrix:
 Charge =  0 Multiplicity = 1

                         Standard orientation:
 ---------------------------------------------------------------------
 Center     Atomic      Atomic             Coordinates (Angstroms)
 Number     Number       Type             X           Y           Z
 ---------------------------------------------------------------------
      1         12           0       -4.124689    1.163912    0.499576
      2          6           0       -5.249527   -2.104273    0.078055
      3          6           0       -2.466065    0.073873    3.390917
      4          6           0       -2.861039    4.334210    0.824440
      5          6           0       -5.208551    1.907745   -2.711344
      6          7           0       -3.890802   -0.849391    1.619357
      7          6           0       -4.311540   -2.025268    1.105533
      8          6           0       -3.769744   -3.210519    2.043766
      9          6           0       -3.025987   -2.426068    3.179621
     10          6           0       -3.095772   -0.979010    2.736951
     11          6           0       -3.659836   -2.667874    4.629172
     12          6           0       -2.780011   -4.138281    1.196322
     13          6           0       -2.155030   -3.579263   -0.067288
     14          6           0       -0.691490   -4.082782   -0.370781
     15          8           0       -0.257854   -5.206935   -0.122445
     16          8           0        0.050121   -3.085998   -0.920016
     17          7           0       -2.870169    2.063362    1.896687
     18          6           0       -2.313506    1.447585    2.992282
     19          6           0       -1.640357    2.484008    3.785197
     20          6           0       -1.692492    3.716070    3.132072
     21          6           0       -2.464121    3.404936    1.872915
     22          6           0       -0.805319    2.085098    5.069539
     23          6           0       -1.071473    5.020788    3.590718
     24          8           0       -0.410739    5.014181    4.628245
     25          6           0       -1.246354    6.281762    2.860343
     26          7           0       -4.033983    2.769956   -0.746527
     27          6           0       -3.518931    4.063897   -0.386607
     28          6           0       -3.805332    5.131773   -1.437297
     29          6           0       -4.393903    4.301284   -2.625160
     30          6           0       -4.466763    2.891685   -1.996340
     31          6           0       -4.703724    6.243936   -0.895490
     32          6           0       -3.659406    4.241992   -4.022046
     33          6           0       -4.250512    5.065784   -5.136864
     34          7           0       -5.041049    0.168725   -1.034723
     35          6           0       -5.488683    0.619888   -2.276392
     36          6           0       -6.286115   -0.371435   -2.862170
     37          6           0       -6.212899   -1.512343   -1.956309
     38          6           0       -5.433746   -1.082628   -0.908921
     39          6           0       -7.136235   -0.232190   -4.064200
     40          6           0       -6.712066   -2.868264   -1.731110
     41          8           0       -7.379670   -3.587805   -2.477030
     42          6           0       -6.022044   -3.321190   -0.426114
     43          6           0       -7.041483   -3.813621    0.453341
     44          8           0       -7.092233   -4.945477    0.964341
     45          8           0       -7.868992   -2.809086    0.706743
     46          6           0       -9.109028   -3.087005    1.508572
     47          6           0        1.296552   -3.683710   -1.443537
     48          6           0        1.916519   -2.682621   -2.404517
     49          6           0        3.209256   -2.185615   -2.378802
     50          6           0        4.458104   -2.848565   -1.732555
     51          6           0        3.524539   -0.876679   -3.139118
     52          6           0        4.066210    0.264317   -2.250773
     53          6           0        5.618441    0.552172   -2.304631
     54          6           0        6.325521    0.753032   -0.972763
     55          6           0        7.037897    2.190688   -0.761097
     56          6           0        7.429907   -0.371917   -0.860103
     57          6           0        7.693143   -0.724121    0.620730
     58          6           0        9.145449   -1.321567    0.781335
     59          6           0       10.128594   -0.639134    1.742244
     60          6           0        9.850847   -1.212654    3.176496
     61          6           0       11.633243   -0.799314    1.340458
     62          6           0       12.123706    0.186958    0.222385
     63          6           0       13.059578   -0.398291   -0.918898
     64          6           0       14.356707    0.450022   -1.002852
     65          6           0       14.973939    0.208552   -2.443886
     66          6           0       15.377263    0.056032    0.114729
     67          1           0       -1.945114   -0.180133    4.316442
     68          1           0       -2.549745    5.377595    0.747816
     69          1           0       -5.623007    2.235441   -3.668057
     70          1           0       -4.633070   -3.777852    2.390237
     71          1           0       -2.050543   -2.860867    3.399428
     72          1           0       -3.861090   -1.678040    5.039229
     73          1           0       -3.025270   -3.205852    5.333245
     74          1           0       -4.617624   -3.181662    4.548105
     75          1           0       -3.504562   -4.901035    0.909531
     76          1           0       -2.009235   -4.615968    1.801013
     77          1           0       -2.078662   -2.492590   -0.040678
     78          1           0       -2.832852   -3.831948   -0.882514
     79          1           0       -1.010291    2.793175    5.872869
     80          1           0        0.235814    2.230771    4.783582
     81          1           0       -0.862206    1.073365    5.469929
     82          1           0       -2.324380    6.436531    2.894106
     83          1           0       -0.847739    6.284274    1.846581
     84          1           0       -0.807448    7.087752    3.447329
     85          1           0       -2.863765    5.564706   -1.774780
     86          1           0       -5.400502    4.639081   -2.871964
     87          1           0       -4.381314    6.501875    0.112687
     88          1           0       -5.774899    6.100694   -1.039841
     89          1           0       -4.526352    7.116584   -1.522836
     90          1           0       -3.492198    3.255571   -4.453973
     91          1           0       -2.660550    4.651968   -3.871729
     92          1           0       -3.511447    5.540803   -5.782036
     93          1           0       -4.913598    5.838490   -4.748576
     94          1           0       -4.924816    4.454698   -5.737644
     95          1           0       -6.533249    0.170923   -4.877851
     96          1           0       -7.832856    0.601044   -3.970229
     97          1           0       -7.626545   -1.196198   -4.194549
     98          1           0       -5.413050   -4.152532   -0.779175
     99          1           0       -9.109456   -4.048125    2.023438
    100          1           0       -9.971730   -3.097425    0.841862
    101          1           0       -9.201491   -2.310304    2.267863
    102          1           0        1.062096   -4.584920   -2.010515
    103          1           0        1.964574   -3.895512   -0.608681
    104          1           0        1.257855   -1.932918   -2.840414
    105          1           0        4.195402   -3.810216   -1.291752
    106          1           0        4.600748   -2.098545   -0.955579
    107          1           0        5.229426   -2.848411   -2.502321
    108          1           0        2.681422   -0.492043   -3.713438
    109          1           0        4.312332   -1.162135   -3.836438
    110          1           0        3.672238    0.067118   -1.253176
    111          1           0        3.509438    1.118322   -2.635592
    112          1           0        5.675627    1.541454   -2.760382
    113          1           0        6.102667   -0.142780   -2.990920
    114          1           0        5.569498    0.610344   -0.200496
    115          1           0        6.626795    2.921208   -1.458430
    116          1           0        8.117076    2.114397   -0.891631
    117          1           0        6.799492    2.676595    0.184980
    118          1           0        8.298472    0.002105   -1.400727
    119          1           0        7.160778   -1.301589   -1.362368
    120          1           0        7.016981   -1.479060    1.024252
    121          1           0        7.662020    0.149168    1.272219
    122          1           0        9.515811   -1.373291   -0.242088
    123          1           0        9.148756   -2.369556    1.079848
    124          1           0        9.958662    0.436531    1.698926
    125          1           0        8.984981   -1.874275    3.129265
    126          1           0        9.539760   -0.436046    3.875600
    127          1           0       10.662828   -1.734859    3.682160
    128          1           0       11.764778   -1.814013    0.965001
    129          1           0       12.308239   -0.582694    2.168813
    130          1           0       12.649101    0.945342    0.802786
    131          1           0       11.240435    0.614017   -0.254780
    132          1           0       12.495881   -0.346634   -1.849789
    133          1           0       13.289212   -1.433598   -0.663958
    134          1           0       14.303275    1.536253   -0.923133
    135          1           0       14.322263    0.342361   -3.307809
    136          1           0       15.199558   -0.856303   -2.497821
    137          1           0       15.921640    0.720128   -2.611156
    138          1           0       15.944600    0.919250    0.460925
    139          1           0       16.029619   -0.735958   -0.255338
    140          1           0       14.855741   -0.291903    1.006928
 ---------------------------------------------------------------------

 SCF Done:  E(RZINDO/S) =  -474.001717545     A.U. after   20 cycles

 Excitation energies and oscillator strengths:

 Excited State   1:      Singlet-A      1.2159 eV 1019.66 nm  f=0.6028  <S**2>=0.000
     175 ->178         0.18316
     176 ->177         0.66289
 This state for optimization and/or second-order correction.
 Total Energy, E(CIS/TDA) =  -473.957032545
 Copying the excited state density for this state as the 1-particle RhoCI density.

 Excited State   2:      Singlet-A      1.9063 eV  650.41 nm  f=0.0404  <S**2>=0.000
     175 ->177         0.54030
     176 ->178        -0.43213

 Excited State   3:      Singlet-A      2.9534 eV  419.80 nm  f=0.9512  <S**2>=0.000
     170 ->179         0.10400
     175 ->177         0.36880
     176 ->178         0.48399
     176 ->179         0.16440
     176 ->180         0.10674

 Excited State   4:      Singlet-A      2.9713 eV  417.27 nm  f=0.1029  <S**2>=0.000
     170 ->177         0.31054
     170 ->179        -0.33591
     170 ->180         0.24684
     170 ->186        -0.17531
     170 ->187         0.12586
     173 ->177         0.20520
     175 ->177         0.11418
     176 ->178         0.13251

 Excited State   5:      Singlet-A      2.9976 eV  413.61 nm  f=0.0525  <S**2>=0.000
     168 ->177         0.23236
     168 ->178         0.20643
     168 ->179         0.32948
     168 ->180         0.35766
     168 ->186         0.22514
     168 ->187         0.11235
     168 ->195        -0.11041
     176 ->178        -0.10047

 The electronic state is 1-A.
 Alpha  occ. eigenvalues --   -1.86625  -1.80018  -1.78304  -1.74594  -1.73905
 Alpha  occ. eigenvalues --   -1.69821  -1.63493  -1.60067  -1.59401  -1.57817
 Alpha  occ. eigenvalues --   -1.54212  -1.49913  -1.48298  -1.47605  -1.47073
 Alpha  occ. eigenvalues --   -1.45110  -1.42396  -1.41573  -1.38236  -1.37128
 Alpha  occ. eigenvalues --   -1.35835  -1.34924  -1.31616  -1.30254  -1.28132
 Alpha  occ. eigenvalues --   -1.27235  -1.26365  -1.23779  -1.19942  -1.18622
 Alpha  occ. eigenvalues --   -1.17158  -1.15764  -1.15210  -1.14108  -1.13513
 Alpha  occ. eigenvalues --   -1.11871  -1.10324  -1.09529  -1.06347  -1.04502
 Alpha  occ. eigenvalues --   -1.02361  -1.01749  -0.99354  -0.98219  -0.96195
 Alpha  occ. eigenvalues --   -0.95663  -0.93736  -0.93218  -0.92774  -0.91955
 Alpha  occ. eigenvalues --   -0.91317  -0.89567  -0.89138  -0.88614  -0.87280
 Alpha  occ. eigenvalues --   -0.85961  -0.84320  -0.83805  -0.83085  -0.80575
 Alpha  occ. eigenvalues --   -0.79636  -0.78470  -0.77938  -0.77428  -0.76336
 Alpha  occ. eigenvalues --   -0.75927  -0.75499  -0.74791  -0.73869  -0.73499
 Alpha  occ. eigenvalues --   -0.72953  -0.72581  -0.71877  -0.71594  -0.71462
 Alpha  occ. eigenvalues --   -0.70777  -0.69836  -0.69566  -0.69133  -0.68029
 Alpha  occ. eigenvalues --   -0.67609  -0.66876  -0.66234  -0.65876  -0.65846
 Alpha  occ. eigenvalues --   -0.65608  -0.64989  -0.64342  -0.64064  -0.63578
 Alpha  occ. eigenvalues --   -0.62762  -0.62718  -0.62505  -0.62033  -0.61639
 Alpha  occ. eigenvalues --   -0.61492  -0.61004  -0.60603  -0.60089  -0.59990
 Alpha  occ. eigenvalues --   -0.59777  -0.59638  -0.59445  -0.58331  -0.57626
 Alpha  occ. eigenvalues --   -0.57435  -0.57051  -0.56799  -0.56611  -0.56424
 Alpha  occ. eigenvalues --   -0.56257  -0.55803  -0.55488  -0.55158  -0.54773
 Alpha  occ. eigenvalues --   -0.53873  -0.53768  -0.53590  -0.53398  -0.53177
 Alpha  occ. eigenvalues --   -0.52861  -0.52524  -0.51995  -0.51830  -0.51438
 Alpha  occ. eigenvalues --   -0.51185  -0.51134  -0.51065  -0.50887  -0.50615
 Alpha  occ. eigenvalues --   -0.50522  -0.50183  -0.49975  -0.49817  -0.49677
 Alpha  occ. eigenvalues --   -0.49496  -0.49058  -0.49049  -0.48617  -0.48162
 Alpha  occ. eigenvalues --   -0.47933  -0.47545  -0.47446  -0.47268  -0.46883
 Alpha  occ. eigenvalues --   -0.46855  -0.46423  -0.46253  -0.46139  -0.45990
 Alpha  occ. eigenvalues --   -0.45628  -0.45326  -0.44986  -0.44658  -0.44639
 Alpha  occ. eigenvalues --   -0.44308  -0.44201  -0.43397  -0.43316  -0.42647
 Alpha  occ. eigenvalues --   -0.42408  -0.41595  -0.41492  -0.39363  -0.38698
 Alpha  occ. eigenvalues --   -0.38309  -0.37599  -0.35857  -0.35432  -0.35084
 Alpha  occ. eigenvalues --   -0.33877  -0.33227  -0.32503  -0.31656  -0.27229
 Alpha  occ. eigenvalues --   -0.22243
 Alpha virt. eigenvalues --   -0.09255  -0.02785  -0.00731   0.00954   0.01682
 Alpha virt. eigenvalues --    0.01907   0.02345   0.02563   0.04025   0.04220
 Alpha virt. eigenvalues --    0.05640   0.06463   0.06967   0.07582   0.07691

 Mulliken charges:
               1
     1  Mg   0.429432
     2  C   -0.057682
     3  C   -0.070982
     4  C   -0.082298
     5  C   -0.066029
     6  N   -0.295418
     7  C    0.129978
     8  C   -0.003842
     9  C   -0.000639
    10  C    0.140952
    11  C   -0.059626
    12  C   -0.026238
    13  C    0.009211
    14  C    0.461047
    15  O   -0.519478
    16  O   -0.257829
    17  N   -0.310273
    18  C    0.108584
    19  C    0.033762
    20  C   -0.044037
    21  C    0.105671
    22  C   -0.046202
    23  C    0.338718
    24  O   -0.525781
    25  C   -0.024031
    26  N   -0.261117
    27  C    0.103537
    28  C    0.016066
    29  C   -0.002047
    30  C    0.129682
    31  C   -0.048003
    32  C   -0.027437
    33  C   -0.054867
    34  N   -0.335735
    35  C    0.093443
    36  C    0.033216
    37  C   -0.077070
    38  C    0.139113
    39  C   -0.040286
    40  C    0.332261
    41  O   -0.526383
    42  C    0.061941
    43  C    0.505547
    44  O   -0.547638
    45  O   -0.257973
    46  C    0.072222
    47  C    0.113063
    48  C   -0.129815
    49  C   -0.001798
    50  C   -0.050182
    51  C   -0.023730
    52  C   -0.035789
    53  C   -0.033786
    54  C   -0.014855
    55  C   -0.062795
    56  C   -0.032841
    57  C   -0.037162
    58  C   -0.042074
    59  C   -0.004895
    60  C   -0.061150
    61  C   -0.039801
    62  C   -0.052372
    63  C   -0.027274
    64  C   -0.010925
    65  C   -0.068884
    66  C   -0.058620
    67  H    0.031669
    68  H    0.031417
    69  H    0.026981
    70  H    0.047282
    71  H    0.038103
    72  H    0.018353
    73  H    0.026358
    74  H    0.023980
    75  H    0.021623
    76  H    0.037396
    77  H    0.037127
    78  H    0.047226
    79  H    0.037306
    80  H    0.031686
    81  H    0.027079
    82  H    0.036702
    83  H    0.044235
    84  H    0.035681
    85  H    0.031515
    86  H    0.031648
    87  H    0.028557
    88  H    0.031869
    89  H    0.008822
    90  H    0.029462
    91  H    0.011591
    92  H    0.023571
    93  H    0.012992
    94  H    0.015156
    95  H    0.030182
    96  H    0.029752
    97  H    0.045494
    98  H    0.057633
    99  H    0.052640
   100  H    0.043309
   101  H    0.034550
   102  H    0.053412
   103  H    0.050609
   104  H    0.025296
   105  H    0.032435
   106  H    0.037802
   107  H    0.038983
   108  H    0.023928
   109  H    0.018025
   110  H    0.024424
   111  H    0.014918
   112  H    0.010744
   113  H    0.027760
   114  H    0.024591
   115  H    0.015433
   116  H    0.027031
   117  H    0.020559
   118  H    0.024869
   119  H    0.016724
   120  H    0.023531
   121  H    0.021972
   122  H    0.007734
   123  H    0.013926
   124  H    0.020113
   125  H    0.016514
   126  H    0.011732
   127  H    0.024062
   128  H    0.018927
   129  H    0.020422
   130  H    0.019602
   131  H    0.017238
   132  H    0.020921
   133  H    0.028693
   134  H    0.027157
   135  H    0.020226
   136  H    0.008097
   137  H    0.016277
   138  H    0.017508
   139  H    0.023130
   140  H    0.015968
 Sum of Mulliken charges =  -0.00000

 Dipole moment (field-independent basis, Debye):
    X=              0.6188    Y=              9.6768    Z=             -2.3447  Tot=              9.9760
 N-N= 4.422335206096D+03 E-N= 0.000000000000D+00  KE=-9.518004195557D+03
 Leave Link  601 at Thu May  5 09:29:24 2022, MaxMem=  6710886400 cpu:               1.5 elap:               0.1
 (Enter /sw/apps/gaussian-16.0/g16/l9999.exe)
 1\1\GINC-BP1-COMPUTE176\SP\RZINDO CIS\STO-3G\C55H74Mg1N4O6\OF15641\05-
 May-2022\0\\#p ZINDO=(nstates=5)\\step_751_chromophore_26 ZINDO\\0,1\M
 g,0,-9.515,18.275,42.767\C,0,-6.05,18.13,43.078\C,0,-9.173,21.699,42.0
 9\C,0,-12.906,18.394,42.277\C,0,-9.617,14.807,42.742\N,0,-7.751,19.766
 ,42.602\C,0,-6.459,19.373,42.599\C,0,-5.545,20.641,42.231\C,0,-6.604,2
 1.789,42.092\C,0,-7.936,21.085,42.25\C,0,-6.392,22.971,43.15\C,0,-4.77
 7,20.352,40.858\C,0,-5.315,19.28,39.93\C,0,-5.128,19.57,38.391\O,0,-4.

 Normal termination of Gaussian 16 at Thu May  5 09:29:25 2022.
