 Gaussian 16, Revision A.03,
 Gaussian 16:  ES64L-G16RevA.03 25-Dec-2016

 ------------------------------
 #p blyp/Def2SVP td=(nstates=5)
 ------------------------------

 -------------------------------------------------
 step_101_chromophore_5 TDDFT with blyp functional
 -------------------------------------------------
 Symbolic Z-matrix:
 Charge =  0 Multiplicity = 1

                         Standard orientation:
 ---------------------------------------------------------------------
 Center     Atomic      Atomic             Coordinates (Angstroms)
 Number     Number       Type             X           Y           Z
 ---------------------------------------------------------------------
      1         12           0        5.514198    0.246298   -0.490980
      2          6           0        3.661615   -2.665392   -0.232876
      3          6           0        2.949667    1.403375   -2.746158
      4          6           0        6.327890    3.470345    0.237947
      5          6           0        7.471297   -0.695315    2.286849
      6          7           0        3.506715   -0.630482   -1.399817
      7          6           0        3.089094   -1.959298   -1.241500
      8          6           0        1.819168   -2.300956   -2.077612
      9          6           0        1.896063   -1.023819   -3.148961
     10          6           0        2.782004    0.016001   -2.388987
     11          6           0        2.435062   -1.458138   -4.546304
     12          6           0        0.475925   -2.348914   -1.231606
     13          6           0       -0.523828   -3.522348   -1.543753
     14          6           0       -2.000956   -3.216624   -1.820010
     15          8           0       -2.422418   -2.799227   -2.894992
     16          8           0       -2.745793   -3.261416   -0.643712
     17          7           0        4.883092    2.146490   -1.326880
     18          6           0        3.854373    2.429879   -2.299490
     19          6           0        3.843985    3.839464   -2.567922
     20          6           0        4.803937    4.439564   -1.693307
     21          6           0        5.375185    3.361890   -0.835820
     22          6           0        2.975477    4.485635   -3.588659
     23          6           0        5.067255    5.937018   -1.802822
     24          8           0        4.486167    6.621078   -2.645328
     25          6           0        6.210147    6.661389   -1.045163
     26          7           0        6.561063    1.333648    1.216947
     27          6           0        6.960551    2.581053    1.089896
     28          6           0        7.891239    2.996139    2.232385
     29          6           0        8.387526    1.596985    2.905931
     30          6           0        7.347285    0.714585    2.155733
     31          6           0        9.057220    4.016367    1.936610
     32          6           0        8.228900    1.517617    4.435565
     33          6           0        9.537579    1.405792    5.287139
     34          7           0        5.721261   -1.377534    0.659038
     35          6           0        6.543427   -1.668568    1.711261
     36          6           0        6.323103   -3.029875    2.071798
     37          6           0        5.166542   -3.449014    1.444092
     38          6           0        4.770033   -2.349453    0.606003
     39          6           0        7.167959   -3.899149    3.001132
     40          6           0        4.263346   -4.571295    1.245210
     41          8           0        4.352811   -5.669609    1.757248
     42          6           0        3.080198   -4.004074    0.283551
     43          6           0        2.865171   -4.950263   -0.785337
     44          8           0        1.792145   -5.568170   -0.957848
     45          8           0        3.912905   -4.955447   -1.695626
     46          6           0        3.768211   -5.971209   -2.768851
     47          6           0       -3.998933   -2.543893   -0.620333
     48          6           0       -3.798682   -1.074748   -0.211589
     49          6           0       -4.377547   -0.330561    0.760738
     50          6           0       -5.400149   -0.774237    1.791700
     51          6           0       -3.917344    1.125701    0.992771
     52          6           0       -4.497555    2.196776    0.117476
     53          6           0       -5.654220    2.891130    0.922770
     54          6           0       -6.895094    3.215070    0.057915
     55          6           0       -7.039303    4.774657   -0.207346
     56          6           0       -8.284733    2.686175    0.552147
     57          6           0       -8.761096    1.344527   -0.077549
     58          6           0       -9.076293    0.303547    1.003534
     59          6           0      -10.487383   -0.293141    0.760376
     60          6           0      -10.530588   -1.779240    1.211889
     61          6           0      -11.735601    0.522721    1.363495
     62          6           0      -12.928762    0.677980    0.314986
     63          6           0      -14.199967   -0.151906    0.662759
     64          6           0      -15.500605    0.691500    1.071472
     65          6           0      -16.205524    0.060752    2.307358
     66          6           0      -16.540343    0.766008   -0.078519
     67          1           0        2.208469    1.546272   -3.535973
     68          1           0        6.573896    4.495587    0.519858
     69          1           0        8.176938   -1.115385    3.006798
     70          1           0        2.088580   -3.206561   -2.620478
     71          1           0        0.877544   -0.691505   -3.351085
     72          1           0        1.683184   -1.288397   -5.317162
     73          1           0        2.829306   -2.471353   -4.623739
     74          1           0        3.303644   -0.926373   -4.933611
     75          1           0        0.000024   -1.399258   -1.476539
     76          1           0        0.642179   -2.414051   -0.156024
     77          1           0       -0.490571   -4.225507   -0.711126
     78          1           0       -0.038942   -4.097885   -2.331705
     79          1           0        2.262399    5.227142   -3.227603
     80          1           0        2.377570    3.716750   -4.079681
     81          1           0        3.486255    5.020256   -4.389603
     82          1           0        7.090478    6.083909   -1.327238
     83          1           0        5.930200    6.744299    0.005325
     84          1           0        6.366720    7.674376   -1.416760
     85          1           0        7.246651    3.582131    2.888281
     86          1           0        9.350030    1.416862    2.426933
     87          1           0        9.011645    4.244220    0.870944
     88          1           0       10.011846    3.497080    2.025667
     89          1           0        9.071141    4.918612    2.547802
     90          1           0        7.686948    0.603284    4.674691
     91          1           0        7.584527    2.359573    4.689552
     92          1           0       10.403449    1.542948    4.638961
     93          1           0        9.521513    0.515586    5.916735
     94          1           0        9.684800    2.270152    5.934344
     95          1           0        8.221495   -3.661674    2.854810
     96          1           0        7.128180   -4.951144    2.719626
     97          1           0        6.896669   -3.771543    4.050073
     98          1           0        2.134773   -3.809069    0.789712
     99          1           0        3.656816   -6.967591   -2.339554
    100          1           0        4.702187   -5.985638   -3.332069
    101          1           0        2.875625   -5.804301   -3.372153
    102          1           0       -4.736905   -3.135761   -0.079553
    103          1           0       -4.445981   -2.454144   -1.610489
    104          1           0       -3.076684   -0.521976   -0.813568
    105          1           0       -5.843174   -1.757912    1.637289
    106          1           0       -6.301316   -0.171955    1.904528
    107          1           0       -5.026256   -0.712369    2.813701
    108          1           0       -2.830236    1.181276    0.936046
    109          1           0       -4.143665    1.345885    2.036602
    110          1           0       -4.882657    1.795293   -0.819972
    111          1           0       -3.693823    2.899150   -0.102415
    112          1           0       -5.139616    3.788017    1.269580
    113          1           0       -6.029121    2.290177    1.750608
    114          1           0       -6.722159    2.762494   -0.918019
    115          1           0       -6.350737    5.208179   -0.931709
    116          1           0       -6.614549    5.204408    0.700175
    117          1           0       -8.058262    5.148771   -0.305747
    118          1           0       -9.171881    3.288955    0.357025
    119          1           0       -8.197854    2.712617    1.638064
    120          1           0       -8.063100    0.876661   -0.772879
    121          1           0       -9.704373    1.526211   -0.591913
    122          1           0       -8.921302    0.680506    2.014504
    123          1           0       -8.300229   -0.444501    0.838944
    124          1           0      -10.662032   -0.397797   -0.310445
    125          1           0      -10.954732   -1.863811    2.211986
    126          1           0       -9.532429   -2.211750    1.145407
    127          1           0      -11.112397   -2.329649    0.472097
    128          1           0      -11.288294    1.492480    1.583913
    129          1           0      -12.112966    0.141639    2.312744
    130          1           0      -12.585148    0.358344   -0.668475
    131          1           0      -13.211062    1.729374    0.255724
    132          1           0      -13.901258   -0.881945    1.415658
    133          1           0      -14.442616   -0.735152   -0.226017
    134          1           0      -15.151476    1.713836    1.216248
    135          1           0      -17.128533   -0.441923    2.017258
    136          1           0      -16.582768    0.814634    2.997728
    137          1           0      -15.526482   -0.566795    2.883472
    138          1           0      -16.075516    0.295603   -0.945146
    139          1           0      -16.734206    1.745180   -0.518064
    140          1           0      -17.433760    0.168573    0.103820
 ---------------------------------------------------------------------

 SCF Done:  E(RB-LYP) =  -3007.34205338     A.U. after   21 cycles

 Excitation energies and oscillator strengths:

 Excited State   1:      Singlet-A      1.6760 eV  739.77 nm  f=0.0007  <S**2>=0.000
     244 -> 247        0.69217
     245 -> 247       -0.14253
 This state for optimization and/or second-order correction.
 Total Energy, E(TD-HF/TD-DFT) =  -3007.28046252
 Copying the excited state density for this state as the 1-particle RhoCI density.

 Excited State   2:      Singlet-A      1.8371 eV  674.90 nm  f=0.2608  <S**2>=0.000
     245 -> 248       -0.21989
     246 -> 247        0.67796
     246 <- 247       -0.13252

 Excited State   3:      Singlet-A      1.9715 eV  628.88 nm  f=0.0941  <S**2>=0.000
     241 -> 247       -0.10345
     244 -> 247        0.13550
     245 -> 247        0.63324
     246 -> 248        0.23737

 Excited State   4:      Singlet-A      2.1012 eV  590.05 nm  f=0.0005  <S**2>=0.000
     243 -> 247        0.70228

 Excited State   5:      Singlet-A      2.2178 eV  559.05 nm  f=0.0001  <S**2>=0.000
     242 -> 247        0.70664

 The electronic state is 1-A.
 Alpha  occ. eigenvalues --  -46.29582 -18.82938 -18.81545 -18.77092 -18.76888
 Alpha  occ. eigenvalues --  -18.76550 -18.75216 -14.03508 -14.03400 -14.01896
 Alpha  occ. eigenvalues --  -14.01877 -10.04270 -10.03893 -10.00747  -9.99849
 Alpha  occ. eigenvalues --   -9.98323  -9.97591  -9.97435  -9.97356  -9.97000
 Alpha  occ. eigenvalues --   -9.96756  -9.96686  -9.96462  -9.96159  -9.95404
 Alpha  occ. eigenvalues --   -9.95344  -9.95327  -9.94883  -9.94671  -9.94539
 Alpha  occ. eigenvalues --   -9.94174  -9.94112  -9.94090  -9.94039  -9.93655
 Alpha  occ. eigenvalues --   -9.93475  -9.93463  -9.93272  -9.93203  -9.93024
 Alpha  occ. eigenvalues --   -9.92967  -9.92687  -9.92600  -9.92503  -9.92405
 Alpha  occ. eigenvalues --   -9.92364  -9.92030  -9.92009  -9.91939  -9.91755
 Alpha  occ. eigenvalues --   -9.91751  -9.91637  -9.91511  -9.91420  -9.91380
 Alpha  occ. eigenvalues --   -9.91360  -9.91333  -9.91316  -9.90936  -9.90887
 Alpha  occ. eigenvalues --   -9.90744  -9.90693  -9.90611  -9.90521  -9.90349
 Alpha  occ. eigenvalues --   -9.90220  -2.93956  -1.74324  -1.73923  -1.73630
 Alpha  occ. eigenvalues --   -0.97373  -0.96779  -0.92519  -0.90955  -0.89357
 Alpha  occ. eigenvalues --   -0.89135  -0.87406  -0.86650  -0.84262  -0.83210
 Alpha  occ. eigenvalues --   -0.75764  -0.73247  -0.72557  -0.72165  -0.71502
 Alpha  occ. eigenvalues --   -0.71415  -0.70964  -0.70620  -0.70160  -0.69902
 Alpha  occ. eigenvalues --   -0.69178  -0.68415  -0.67779  -0.67609  -0.67006
 Alpha  occ. eigenvalues --   -0.66186  -0.65753  -0.64812  -0.64781  -0.64308
 Alpha  occ. eigenvalues --   -0.63853  -0.62331  -0.62133  -0.61623  -0.61192
 Alpha  occ. eigenvalues --   -0.60292  -0.59983  -0.59712  -0.58838  -0.58641
 Alpha  occ. eigenvalues --   -0.58402  -0.57879  -0.56941  -0.55514  -0.55359
 Alpha  occ. eigenvalues --   -0.54401  -0.53158  -0.52835  -0.52233  -0.52218
 Alpha  occ. eigenvalues --   -0.51391  -0.51016  -0.50764  -0.50606  -0.49693
 Alpha  occ. eigenvalues --   -0.49536  -0.49348  -0.49197  -0.48967  -0.46435
 Alpha  occ. eigenvalues --   -0.46206  -0.45936  -0.45579  -0.44929  -0.44477
 Alpha  occ. eigenvalues --   -0.43650  -0.43555  -0.43166  -0.42791  -0.42162
 Alpha  occ. eigenvalues --   -0.41888  -0.41677  -0.41230  -0.41182  -0.40766
 Alpha  occ. eigenvalues --   -0.40586  -0.40293  -0.40189  -0.39979  -0.39861
 Alpha  occ. eigenvalues --   -0.39580  -0.39524  -0.39226  -0.39119  -0.38989
 Alpha  occ. eigenvalues --   -0.38784  -0.38595  -0.38365  -0.38040  -0.37868
 Alpha  occ. eigenvalues --   -0.37665  -0.37559  -0.37286  -0.37023  -0.36887
 Alpha  occ. eigenvalues --   -0.36832  -0.36722  -0.36554  -0.36447  -0.36349
 Alpha  occ. eigenvalues --   -0.36279  -0.35916  -0.35660  -0.35596  -0.35299
 Alpha  occ. eigenvalues --   -0.35263  -0.35089  -0.34953  -0.34827  -0.34544
 Alpha  occ. eigenvalues --   -0.34353  -0.34332  -0.33804  -0.33709  -0.33660
 Alpha  occ. eigenvalues --   -0.33498  -0.33359  -0.33270  -0.33176  -0.32870
 Alpha  occ. eigenvalues --   -0.32727  -0.32524  -0.32502  -0.32330  -0.32282
 Alpha  occ. eigenvalues --   -0.31886  -0.31773  -0.31673  -0.31503  -0.31479
 Alpha  occ. eigenvalues --   -0.31310  -0.31072  -0.30998  -0.30815  -0.30765
 Alpha  occ. eigenvalues --   -0.30489  -0.30442  -0.30171  -0.30143  -0.30049
 Alpha  occ. eigenvalues --   -0.29940  -0.29563  -0.29422  -0.29263  -0.29056
 Alpha  occ. eigenvalues --   -0.28690  -0.28669  -0.28075  -0.27983  -0.27733
 Alpha  occ. eigenvalues --   -0.27392  -0.27269  -0.26945  -0.26501  -0.26439
 Alpha  occ. eigenvalues --   -0.26357  -0.25937  -0.25715  -0.25659  -0.25567
 Alpha  occ. eigenvalues --   -0.25498  -0.24767  -0.24229  -0.24183  -0.23664
 Alpha  occ. eigenvalues --   -0.22879  -0.22785  -0.21988  -0.21304  -0.21185
 Alpha  occ. eigenvalues --   -0.20281  -0.20117  -0.19588  -0.18074  -0.17395
 Alpha  occ. eigenvalues --   -0.16512
 Alpha virt. eigenvalues --   -0.11969  -0.07444  -0.06676  -0.05095  -0.04815
 Alpha virt. eigenvalues --   -0.04099  -0.03590  -0.02497  -0.01723  -0.00453
 Alpha virt. eigenvalues --    0.00692   0.02115   0.02374   0.02440   0.02796

 Mulliken charges:
               1
     1  Mg   0.710405
     2  C    0.008113
     3  C   -0.006279
     4  C   -0.044235
     5  C   -0.052695
     6  N   -0.220356
     7  C   -0.104135
     8  C    0.018964
     9  C    0.001529
    10  C   -0.034379
    11  C    0.109032
    12  C    0.127673
    13  C    0.129791
    14  C    0.093655
    15  O   -0.195985
    16  O   -0.270229
    17  N   -0.326391
    18  C    0.157321
    19  C   -0.107879
    20  C    0.034089
    21  C    0.136992
    22  C    0.204050
    23  C   -0.097189
    24  O   -0.178161
    25  C    0.134337
    26  N   -0.170085
    27  C   -0.008767
    28  C   -0.034494
    29  C    0.042635
    30  C   -0.017580
    31  C    0.129698
    32  C    0.120518
    33  C    0.064837
    34  N   -0.316359
    35  C    0.107694
    36  C   -0.195664
    37  C    0.099454
    38  C    0.115903
    39  C    0.162330
    40  C   -0.030274
    41  O   -0.114086
    42  C    0.068475
    43  C    0.107102
    44  O   -0.205357
    45  O   -0.289786
    46  C    0.225953
    47  C    0.332989
    48  C   -0.096548
    49  C   -0.109329
    50  C    0.119554
    51  C    0.103737
    52  C    0.099134
    53  C    0.096760
    54  C   -0.058967
    55  C    0.086626
    56  C    0.076802
    57  C    0.067702
    58  C    0.074876
    59  C   -0.087840
    60  C    0.106539
    61  C    0.103656
    62  C    0.060165
    63  C    0.083312
    64  C   -0.074355
    65  C    0.102330
    66  C    0.103569
    67  H   -0.055130
    68  H   -0.072462
    69  H   -0.051248
    70  H   -0.000743
    71  H   -0.015302
    72  H    0.001146
    73  H   -0.010449
    74  H   -0.019563
    75  H   -0.007510
    76  H   -0.001823
    77  H   -0.002521
    78  H   -0.011478
    79  H   -0.000952
    80  H   -0.039439
    81  H    0.003362
    82  H    0.011086
    83  H    0.018298
    84  H   -0.013409
    85  H   -0.007468
    86  H   -0.016330
    87  H   -0.013764
    88  H   -0.024167
    89  H    0.000660
    90  H   -0.013470
    91  H   -0.022521
    92  H   -0.011757
    93  H    0.008405
    94  H   -0.015628
    95  H   -0.017422
    96  H    0.003626
    97  H    0.010166
    98  H    0.012319
    99  H    0.015634
   100  H    0.016145
   101  H    0.019767
   102  H   -0.014136
   103  H   -0.006761
   104  H   -0.033443
   105  H   -0.020259
   106  H   -0.009471
   107  H   -0.006461
   108  H   -0.033624
   109  H   -0.039190
   110  H   -0.021204
   111  H   -0.028400
   112  H   -0.023379
   113  H   -0.024291
   114  H   -0.031314
   115  H   -0.022360
   116  H   -0.035819
   117  H   -0.009927
   118  H   -0.034298
   119  H   -0.032159
   120  H   -0.020038
   121  H   -0.023943
   122  H   -0.020635
   123  H   -0.033253
   124  H   -0.036160
   125  H   -0.013461
   126  H   -0.029488
   127  H   -0.023552
   128  H   -0.041302
   129  H   -0.022086
   130  H   -0.026846
   131  H   -0.029102
   132  H   -0.031083
   133  H   -0.036708
   134  H   -0.027551
   135  H   -0.014970
   136  H   -0.022239
   137  H   -0.013104
   138  H   -0.039367
   139  H   -0.014567
   140  H   -0.011010
 Sum of Mulliken charges =  -0.00000

 Dipole moment (field-independent basis, Debye):
    X=              4.4187    Y=              1.9854    Z=              1.3124  Tot=              5.0189
 Quadrupole moment (field-independent basis, Debye-Ang):
   XX=           -347.0553   YY=           -449.7342   ZZ=           -398.3120
   XY=              0.1154   XZ=              2.6257   YZ=             29.6826

 Normal termination of Gaussian 16 at Tue May  3 21:52:37 2022.
