 Gaussian 16, Revision A.03,
 Gaussian 16:  ES64L-G16RevA.03 25-Dec-2016

 -----------------------------------
 #p cam-b3lyp/Def2SVP td=(nstates=5)
 -----------------------------------

 ------------------------------------------------------
 step_101_chromophore_5 TDDFT with cam-b3lyp functional
 ------------------------------------------------------
 Symbolic Z-matrix:
 Charge =  0 Multiplicity = 1

                         Standard orientation:
 ---------------------------------------------------------------------
 Center     Atomic      Atomic             Coordinates (Angstroms)
 Number     Number       Type             X           Y           Z
 ---------------------------------------------------------------------
      1         12           0        5.514198    0.246298   -0.490980
      2          6           0        3.661615   -2.665392   -0.232876
      3          6           0        2.949667    1.403375   -2.746158
      4          6           0        6.327890    3.470345    0.237947
      5          6           0        7.471297   -0.695315    2.286849
      6          7           0        3.506715   -0.630482   -1.399817
      7          6           0        3.089094   -1.959298   -1.241500
      8          6           0        1.819168   -2.300956   -2.077612
      9          6           0        1.896063   -1.023819   -3.148961
     10          6           0        2.782004    0.016001   -2.388987
     11          6           0        2.435062   -1.458138   -4.546304
     12          6           0        0.475925   -2.348914   -1.231606
     13          6           0       -0.523828   -3.522348   -1.543753
     14          6           0       -2.000956   -3.216624   -1.820010
     15          8           0       -2.422418   -2.799227   -2.894992
     16          8           0       -2.745793   -3.261416   -0.643712
     17          7           0        4.883092    2.146490   -1.326880
     18          6           0        3.854373    2.429879   -2.299490
     19          6           0        3.843985    3.839464   -2.567922
     20          6           0        4.803937    4.439564   -1.693307
     21          6           0        5.375185    3.361890   -0.835820
     22          6           0        2.975477    4.485635   -3.588659
     23          6           0        5.067255    5.937018   -1.802822
     24          8           0        4.486167    6.621078   -2.645328
     25          6           0        6.210147    6.661389   -1.045163
     26          7           0        6.561063    1.333648    1.216947
     27          6           0        6.960551    2.581053    1.089896
     28          6           0        7.891239    2.996139    2.232385
     29          6           0        8.387526    1.596985    2.905931
     30          6           0        7.347285    0.714585    2.155733
     31          6           0        9.057220    4.016367    1.936610
     32          6           0        8.228900    1.517617    4.435565
     33          6           0        9.537579    1.405792    5.287139
     34          7           0        5.721261   -1.377534    0.659038
     35          6           0        6.543427   -1.668568    1.711261
     36          6           0        6.323103   -3.029875    2.071798
     37          6           0        5.166542   -3.449014    1.444092
     38          6           0        4.770033   -2.349453    0.606003
     39          6           0        7.167959   -3.899149    3.001132
     40          6           0        4.263346   -4.571295    1.245210
     41          8           0        4.352811   -5.669609    1.757248
     42          6           0        3.080198   -4.004074    0.283551
     43          6           0        2.865171   -4.950263   -0.785337
     44          8           0        1.792145   -5.568170   -0.957848
     45          8           0        3.912905   -4.955447   -1.695626
     46          6           0        3.768211   -5.971209   -2.768851
     47          6           0       -3.998933   -2.543893   -0.620333
     48          6           0       -3.798682   -1.074748   -0.211589
     49          6           0       -4.377547   -0.330561    0.760738
     50          6           0       -5.400149   -0.774237    1.791700
     51          6           0       -3.917344    1.125701    0.992771
     52          6           0       -4.497555    2.196776    0.117476
     53          6           0       -5.654220    2.891130    0.922770
     54          6           0       -6.895094    3.215070    0.057915
     55          6           0       -7.039303    4.774657   -0.207346
     56          6           0       -8.284733    2.686175    0.552147
     57          6           0       -8.761096    1.344527   -0.077549
     58          6           0       -9.076293    0.303547    1.003534
     59          6           0      -10.487383   -0.293141    0.760376
     60          6           0      -10.530588   -1.779240    1.211889
     61          6           0      -11.735601    0.522721    1.363495
     62          6           0      -12.928762    0.677980    0.314986
     63          6           0      -14.199967   -0.151906    0.662759
     64          6           0      -15.500605    0.691500    1.071472
     65          6           0      -16.205524    0.060752    2.307358
     66          6           0      -16.540343    0.766008   -0.078519
     67          1           0        2.208469    1.546272   -3.535973
     68          1           0        6.573896    4.495587    0.519858
     69          1           0        8.176938   -1.115385    3.006798
     70          1           0        2.088580   -3.206561   -2.620478
     71          1           0        0.877544   -0.691505   -3.351085
     72          1           0        1.683184   -1.288397   -5.317162
     73          1           0        2.829306   -2.471353   -4.623739
     74          1           0        3.303644   -0.926373   -4.933611
     75          1           0        0.000024   -1.399258   -1.476539
     76          1           0        0.642179   -2.414051   -0.156024
     77          1           0       -0.490571   -4.225507   -0.711126
     78          1           0       -0.038942   -4.097885   -2.331705
     79          1           0        2.262399    5.227142   -3.227603
     80          1           0        2.377570    3.716750   -4.079681
     81          1           0        3.486255    5.020256   -4.389603
     82          1           0        7.090478    6.083909   -1.327238
     83          1           0        5.930200    6.744299    0.005325
     84          1           0        6.366720    7.674376   -1.416760
     85          1           0        7.246651    3.582131    2.888281
     86          1           0        9.350030    1.416862    2.426933
     87          1           0        9.011645    4.244220    0.870944
     88          1           0       10.011846    3.497080    2.025667
     89          1           0        9.071141    4.918612    2.547802
     90          1           0        7.686948    0.603284    4.674691
     91          1           0        7.584527    2.359573    4.689552
     92          1           0       10.403449    1.542948    4.638961
     93          1           0        9.521513    0.515586    5.916735
     94          1           0        9.684800    2.270152    5.934344
     95          1           0        8.221495   -3.661674    2.854810
     96          1           0        7.128180   -4.951144    2.719626
     97          1           0        6.896669   -3.771543    4.050073
     98          1           0        2.134773   -3.809069    0.789712
     99          1           0        3.656816   -6.967591   -2.339554
    100          1           0        4.702187   -5.985638   -3.332069
    101          1           0        2.875625   -5.804301   -3.372153
    102          1           0       -4.736905   -3.135761   -0.079553
    103          1           0       -4.445981   -2.454144   -1.610489
    104          1           0       -3.076684   -0.521976   -0.813568
    105          1           0       -5.843174   -1.757912    1.637289
    106          1           0       -6.301316   -0.171955    1.904528
    107          1           0       -5.026256   -0.712369    2.813701
    108          1           0       -2.830236    1.181276    0.936046
    109          1           0       -4.143665    1.345885    2.036602
    110          1           0       -4.882657    1.795293   -0.819972
    111          1           0       -3.693823    2.899150   -0.102415
    112          1           0       -5.139616    3.788017    1.269580
    113          1           0       -6.029121    2.290177    1.750608
    114          1           0       -6.722159    2.762494   -0.918019
    115          1           0       -6.350737    5.208179   -0.931709
    116          1           0       -6.614549    5.204408    0.700175
    117          1           0       -8.058262    5.148771   -0.305747
    118          1           0       -9.171881    3.288955    0.357025
    119          1           0       -8.197854    2.712617    1.638064
    120          1           0       -8.063100    0.876661   -0.772879
    121          1           0       -9.704373    1.526211   -0.591913
    122          1           0       -8.921302    0.680506    2.014504
    123          1           0       -8.300229   -0.444501    0.838944
    124          1           0      -10.662032   -0.397797   -0.310445
    125          1           0      -10.954732   -1.863811    2.211986
    126          1           0       -9.532429   -2.211750    1.145407
    127          1           0      -11.112397   -2.329649    0.472097
    128          1           0      -11.288294    1.492480    1.583913
    129          1           0      -12.112966    0.141639    2.312744
    130          1           0      -12.585148    0.358344   -0.668475
    131          1           0      -13.211062    1.729374    0.255724
    132          1           0      -13.901258   -0.881945    1.415658
    133          1           0      -14.442616   -0.735152   -0.226017
    134          1           0      -15.151476    1.713836    1.216248
    135          1           0      -17.128533   -0.441923    2.017258
    136          1           0      -16.582768    0.814634    2.997728
    137          1           0      -15.526482   -0.566795    2.883472
    138          1           0      -16.075516    0.295603   -0.945146
    139          1           0      -16.734206    1.745180   -0.518064
    140          1           0      -17.433760    0.168573    0.103820
 ---------------------------------------------------------------------

 SCF Done:  E(RCAM-B3LYP) =  -3007.11080422     A.U. after   16 cycles

 Excitation energies and oscillator strengths:

 Excited State   1:      Singlet-A      1.7505 eV  708.30 nm  f=0.3409  <S**2>=0.000
     245 -> 248        0.19838
     246 -> 247        0.67990
     245 <- 248        0.10905
 This state for optimization and/or second-order correction.
 Total Energy, E(TD-HF/TD-DFT) =  -3007.04647618
 Copying the excited state density for this state as the 1-particle RhoCI density.

 Excited State   2:      Singlet-A      2.1765 eV  569.65 nm  f=0.1320  <S**2>=0.000
     245 -> 247        0.64603
     246 -> 248       -0.27055

 Excited State   3:      Singlet-A      3.2048 eV  386.88 nm  f=0.0021  <S**2>=0.000
     243 -> 247        0.67394
     246 -> 248       -0.15090

 Excited State   4:      Singlet-A      3.4061 eV  364.01 nm  f=0.0005  <S**2>=0.000
     241 -> 247        0.55763
     241 -> 248        0.10865
     241 -> 249        0.17130
     241 -> 250       -0.16164
     241 -> 251       -0.26304
     242 -> 247        0.13936

 Excited State   5:      Singlet-A      3.5462 eV  349.62 nm  f=0.4003  <S**2>=0.000
     242 -> 247       -0.34867
     245 -> 247        0.20215
     246 -> 248        0.50544
     246 -> 249        0.20791
     246 -> 250        0.12204

 The electronic state is 1-A.
 Alpha  occ. eigenvalues --  -46.91259 -19.25954 -19.24373 -19.20319 -19.19863
 Alpha  occ. eigenvalues --  -19.19584 -19.18620 -14.42645 -14.42041 -14.40459
 Alpha  occ. eigenvalues --  -14.40156 -10.39881 -10.39268 -10.35959 -10.35249
 Alpha  occ. eigenvalues --  -10.32366 -10.32290 -10.32233 -10.31634 -10.31423
 Alpha  occ. eigenvalues --  -10.31391 -10.31215 -10.30696 -10.29998 -10.29562
 Alpha  occ. eigenvalues --  -10.29535 -10.29381 -10.29028 -10.28915 -10.28818
 Alpha  occ. eigenvalues --  -10.28703 -10.28602 -10.28501 -10.28042 -10.27932
 Alpha  occ. eigenvalues --  -10.27500 -10.27355 -10.27319 -10.27120 -10.26989
 Alpha  occ. eigenvalues --  -10.26760 -10.26481 -10.26476 -10.26239 -10.26173
 Alpha  occ. eigenvalues --  -10.26142 -10.25909 -10.25789 -10.25690 -10.25537
 Alpha  occ. eigenvalues --  -10.25515 -10.25515 -10.25376 -10.25121 -10.25075
 Alpha  occ. eigenvalues --  -10.25041 -10.25015 -10.25005 -10.24644 -10.24580
 Alpha  occ. eigenvalues --  -10.24403 -10.24283 -10.24280 -10.24108 -10.23972
 Alpha  occ. eigenvalues --  -10.23828  -3.19519  -1.94366  -1.94023  -1.93782
 Alpha  occ. eigenvalues --   -1.15921  -1.15200  -1.10736  -1.09525  -1.07238
 Alpha  occ. eigenvalues --   -1.07126  -1.05001  -1.04011  -1.01953  -1.00876
 Alpha  occ. eigenvalues --   -0.92816  -0.90095  -0.89168  -0.88925  -0.88150
 Alpha  occ. eigenvalues --   -0.88112  -0.87601  -0.87107  -0.86702  -0.86393
 Alpha  occ. eigenvalues --   -0.85750  -0.84796  -0.83971  -0.83768  -0.83150
 Alpha  occ. eigenvalues --   -0.82220  -0.81866  -0.80810  -0.80533  -0.80242
 Alpha  occ. eigenvalues --   -0.79628  -0.77788  -0.77681  -0.77329  -0.76680
 Alpha  occ. eigenvalues --   -0.75597  -0.75301  -0.75036  -0.74108  -0.73877
 Alpha  occ. eigenvalues --   -0.73422  -0.72852  -0.71850  -0.70275  -0.69978
 Alpha  occ. eigenvalues --   -0.68956  -0.67657  -0.67341  -0.66616  -0.66260
 Alpha  occ. eigenvalues --   -0.65611  -0.65261  -0.64900  -0.64531  -0.63667
 Alpha  occ. eigenvalues --   -0.63319  -0.63214  -0.63061  -0.62868  -0.59964
 Alpha  occ. eigenvalues --   -0.59625  -0.59581  -0.59037  -0.58170  -0.57834
 Alpha  occ. eigenvalues --   -0.57151  -0.56986  -0.56324  -0.56024  -0.55184
 Alpha  occ. eigenvalues --   -0.55078  -0.54729  -0.54241  -0.53889  -0.53844
 Alpha  occ. eigenvalues --   -0.53409  -0.53004  -0.52738  -0.52636  -0.52472
 Alpha  occ. eigenvalues --   -0.52375  -0.52192  -0.51823  -0.51571  -0.51548
 Alpha  occ. eigenvalues --   -0.51365  -0.50984  -0.50893  -0.50663  -0.50286
 Alpha  occ. eigenvalues --   -0.50043  -0.49965  -0.49856  -0.49336  -0.49240
 Alpha  occ. eigenvalues --   -0.49174  -0.48933  -0.48832  -0.48710  -0.48660
 Alpha  occ. eigenvalues --   -0.48584  -0.48271  -0.47913  -0.47576  -0.47459
 Alpha  occ. eigenvalues --   -0.47312  -0.47043  -0.46817  -0.46726  -0.46509
 Alpha  occ. eigenvalues --   -0.46235  -0.46157  -0.45700  -0.45610  -0.45573
 Alpha  occ. eigenvalues --   -0.45389  -0.45106  -0.44944  -0.44891  -0.44679
 Alpha  occ. eigenvalues --   -0.44450  -0.44206  -0.44057  -0.43867  -0.43796
 Alpha  occ. eigenvalues --   -0.43473  -0.43307  -0.43264  -0.43231  -0.43127
 Alpha  occ. eigenvalues --   -0.43034  -0.42807  -0.42564  -0.42309  -0.42088
 Alpha  occ. eigenvalues --   -0.41793  -0.41720  -0.41522  -0.41346  -0.41305
 Alpha  occ. eigenvalues --   -0.41199  -0.41012  -0.40668  -0.40485  -0.40113
 Alpha  occ. eigenvalues --   -0.39950  -0.39669  -0.39088  -0.39017  -0.38774
 Alpha  occ. eigenvalues --   -0.38277  -0.38157  -0.38094  -0.37435  -0.37370
 Alpha  occ. eigenvalues --   -0.37090  -0.36863  -0.36681  -0.36500  -0.36360
 Alpha  occ. eigenvalues --   -0.36158  -0.35361  -0.35205  -0.35145  -0.34660
 Alpha  occ. eigenvalues --   -0.33450  -0.33278  -0.32872  -0.31853  -0.31170
 Alpha  occ. eigenvalues --   -0.30489  -0.30316  -0.29792  -0.29760  -0.24079
 Alpha  occ. eigenvalues --   -0.21909
 Alpha virt. eigenvalues --   -0.09036  -0.02327  -0.00508   0.00663   0.02026
 Alpha virt. eigenvalues --    0.03448   0.04014   0.04853   0.05746   0.06650
 Alpha virt. eigenvalues --    0.07869   0.08320   0.08571   0.08711   0.08981

 Mulliken charges:
               1
     1  Mg   0.834914
     2  C   -0.013288
     3  C   -0.026880
     4  C   -0.075326
     5  C   -0.057819
     6  N   -0.278657
     7  C   -0.063181
     8  C   -0.026267
     9  C   -0.050892
    10  C   -0.011903
    11  C    0.051589
    12  C    0.076571
    13  C    0.060499
    14  C    0.176403
    15  O   -0.236678
    16  O   -0.335739
    17  N   -0.411020
    18  C    0.165513
    19  C   -0.110425
    20  C   -0.038329
    21  C    0.176236
    22  C    0.146282
    23  C   -0.019653
    24  O   -0.217747
    25  C    0.056825
    26  N   -0.240611
    27  C    0.021692
    28  C   -0.084783
    29  C   -0.019774
    30  C    0.003969
    31  C    0.070714
    32  C    0.065080
    33  C    0.003127
    34  N   -0.401907
    35  C    0.105595
    36  C   -0.196791
    37  C    0.021272
    38  C    0.149530
    39  C    0.112099
    40  C    0.068445
    41  O   -0.154787
    42  C   -0.015748
    43  C    0.195244
    44  O   -0.243454
    45  O   -0.349548
    46  C    0.184887
    47  C    0.292346
    48  C   -0.112381
    49  C   -0.133610
    50  C    0.063214
    51  C    0.041948
    52  C    0.045459
    53  C    0.043711
    54  C   -0.118586
    55  C    0.032693
    56  C    0.027161
    57  C    0.016185
    58  C    0.022129
    59  C   -0.142771
    60  C    0.052522
    61  C    0.049868
    62  C    0.007487
    63  C    0.033137
    64  C   -0.136600
    65  C    0.044700
    66  C    0.043527
    67  H   -0.019508
    68  H   -0.040034
    69  H   -0.018259
    70  H    0.028763
    71  H    0.019611
    72  H    0.025666
    73  H    0.014055
    74  H    0.007234
    75  H    0.019924
    76  H    0.027613
    77  H    0.032409
    78  H    0.020992
    79  H    0.029566
    80  H   -0.012082
    81  H    0.033886
    82  H    0.036990
    83  H    0.044449
    84  H    0.022918
    85  H    0.026401
    86  H    0.017472
    87  H    0.010782
    88  H    0.001183
    89  H    0.025877
    90  H    0.017445
    91  H    0.006233
    92  H    0.010493
    93  H    0.031310
    94  H    0.008292
    95  H    0.005494
    96  H    0.029886
    97  H    0.033853
    98  H    0.052637
    99  H    0.040005
   100  H    0.041250
   101  H    0.040698
   102  H    0.016335
   103  H    0.027659
   104  H   -0.003642
   105  H    0.003434
   106  H    0.008465
   107  H    0.019854
   108  H   -0.001297
   109  H   -0.008103
   110  H    0.006196
   111  H    0.001416
   112  H    0.006032
   113  H    0.000108
   114  H   -0.000705
   115  H    0.002730
   116  H   -0.012963
   117  H    0.014347
   118  H   -0.004717
   119  H   -0.005522
   120  H    0.006800
   121  H    0.003303
   122  H    0.005620
   123  H   -0.006434
   124  H   -0.004353
   125  H    0.008721
   126  H   -0.004953
   127  H    0.000385
   128  H   -0.012592
   129  H    0.004533
   130  H    0.000623
   131  H   -0.001391
   132  H   -0.005056
   133  H   -0.007881
   134  H    0.003424
   135  H    0.007664
   136  H    0.002851
   137  H    0.010007
   138  H   -0.014571
   139  H    0.010336
   140  H    0.012409
 Sum of Mulliken charges =  -0.00000

 Dipole moment (field-independent basis, Debye):
    X=              4.4256    Y=              2.7294    Z=              0.8103  Tot=              5.2623
 Quadrupole moment (field-independent basis, Debye-Ang):
   XX=           -346.1071   YY=           -446.4431   ZZ=           -397.0366
   XY=              5.0674   XZ=              1.0302   YZ=             30.6502

 Normal termination of Gaussian 16 at Tue May  3 20:55:47 2022.
