 Gaussian 16, Revision A.03,
 Gaussian 16:  ES64L-G16RevA.03 25-Dec-2016

 ---------------------------------
 #p PBE1PBE/Def2SVP td=(nstates=5)
 ---------------------------------

 ----------------------------------------------------
 step_101_chromophore_5 TDDFT with PBE1PBE functional
 ----------------------------------------------------
 Symbolic Z-matrix:
 Charge =  0 Multiplicity = 1

                         Standard orientation:
 ---------------------------------------------------------------------
 Center     Atomic      Atomic             Coordinates (Angstroms)
 Number     Number       Type             X           Y           Z
 ---------------------------------------------------------------------
      1         12           0        5.514198    0.246298   -0.490980
      2          6           0        3.661615   -2.665392   -0.232876
      3          6           0        2.949667    1.403375   -2.746158
      4          6           0        6.327890    3.470345    0.237947
      5          6           0        7.471297   -0.695315    2.286849
      6          7           0        3.506715   -0.630482   -1.399817
      7          6           0        3.089094   -1.959298   -1.241500
      8          6           0        1.819168   -2.300956   -2.077612
      9          6           0        1.896063   -1.023819   -3.148961
     10          6           0        2.782004    0.016001   -2.388987
     11          6           0        2.435062   -1.458138   -4.546304
     12          6           0        0.475925   -2.348914   -1.231606
     13          6           0       -0.523828   -3.522348   -1.543753
     14          6           0       -2.000956   -3.216624   -1.820010
     15          8           0       -2.422418   -2.799227   -2.894992
     16          8           0       -2.745793   -3.261416   -0.643712
     17          7           0        4.883092    2.146490   -1.326880
     18          6           0        3.854373    2.429879   -2.299490
     19          6           0        3.843985    3.839464   -2.567922
     20          6           0        4.803937    4.439564   -1.693307
     21          6           0        5.375185    3.361890   -0.835820
     22          6           0        2.975477    4.485635   -3.588659
     23          6           0        5.067255    5.937018   -1.802822
     24          8           0        4.486167    6.621078   -2.645328
     25          6           0        6.210147    6.661389   -1.045163
     26          7           0        6.561063    1.333648    1.216947
     27          6           0        6.960551    2.581053    1.089896
     28          6           0        7.891239    2.996139    2.232385
     29          6           0        8.387526    1.596985    2.905931
     30          6           0        7.347285    0.714585    2.155733
     31          6           0        9.057220    4.016367    1.936610
     32          6           0        8.228900    1.517617    4.435565
     33          6           0        9.537579    1.405792    5.287139
     34          7           0        5.721261   -1.377534    0.659038
     35          6           0        6.543427   -1.668568    1.711261
     36          6           0        6.323103   -3.029875    2.071798
     37          6           0        5.166542   -3.449014    1.444092
     38          6           0        4.770033   -2.349453    0.606003
     39          6           0        7.167959   -3.899149    3.001132
     40          6           0        4.263346   -4.571295    1.245210
     41          8           0        4.352811   -5.669609    1.757248
     42          6           0        3.080198   -4.004074    0.283551
     43          6           0        2.865171   -4.950263   -0.785337
     44          8           0        1.792145   -5.568170   -0.957848
     45          8           0        3.912905   -4.955447   -1.695626
     46          6           0        3.768211   -5.971209   -2.768851
     47          6           0       -3.998933   -2.543893   -0.620333
     48          6           0       -3.798682   -1.074748   -0.211589
     49          6           0       -4.377547   -0.330561    0.760738
     50          6           0       -5.400149   -0.774237    1.791700
     51          6           0       -3.917344    1.125701    0.992771
     52          6           0       -4.497555    2.196776    0.117476
     53          6           0       -5.654220    2.891130    0.922770
     54          6           0       -6.895094    3.215070    0.057915
     55          6           0       -7.039303    4.774657   -0.207346
     56          6           0       -8.284733    2.686175    0.552147
     57          6           0       -8.761096    1.344527   -0.077549
     58          6           0       -9.076293    0.303547    1.003534
     59          6           0      -10.487383   -0.293141    0.760376
     60          6           0      -10.530588   -1.779240    1.211889
     61          6           0      -11.735601    0.522721    1.363495
     62          6           0      -12.928762    0.677980    0.314986
     63          6           0      -14.199967   -0.151906    0.662759
     64          6           0      -15.500605    0.691500    1.071472
     65          6           0      -16.205524    0.060752    2.307358
     66          6           0      -16.540343    0.766008   -0.078519
     67          1           0        2.208469    1.546272   -3.535973
     68          1           0        6.573896    4.495587    0.519858
     69          1           0        8.176938   -1.115385    3.006798
     70          1           0        2.088580   -3.206561   -2.620478
     71          1           0        0.877544   -0.691505   -3.351085
     72          1           0        1.683184   -1.288397   -5.317162
     73          1           0        2.829306   -2.471353   -4.623739
     74          1           0        3.303644   -0.926373   -4.933611
     75          1           0        0.000024   -1.399258   -1.476539
     76          1           0        0.642179   -2.414051   -0.156024
     77          1           0       -0.490571   -4.225507   -0.711126
     78          1           0       -0.038942   -4.097885   -2.331705
     79          1           0        2.262399    5.227142   -3.227603
     80          1           0        2.377570    3.716750   -4.079681
     81          1           0        3.486255    5.020256   -4.389603
     82          1           0        7.090478    6.083909   -1.327238
     83          1           0        5.930200    6.744299    0.005325
     84          1           0        6.366720    7.674376   -1.416760
     85          1           0        7.246651    3.582131    2.888281
     86          1           0        9.350030    1.416862    2.426933
     87          1           0        9.011645    4.244220    0.870944
     88          1           0       10.011846    3.497080    2.025667
     89          1           0        9.071141    4.918612    2.547802
     90          1           0        7.686948    0.603284    4.674691
     91          1           0        7.584527    2.359573    4.689552
     92          1           0       10.403449    1.542948    4.638961
     93          1           0        9.521513    0.515586    5.916735
     94          1           0        9.684800    2.270152    5.934344
     95          1           0        8.221495   -3.661674    2.854810
     96          1           0        7.128180   -4.951144    2.719626
     97          1           0        6.896669   -3.771543    4.050073
     98          1           0        2.134773   -3.809069    0.789712
     99          1           0        3.656816   -6.967591   -2.339554
    100          1           0        4.702187   -5.985638   -3.332069
    101          1           0        2.875625   -5.804301   -3.372153
    102          1           0       -4.736905   -3.135761   -0.079553
    103          1           0       -4.445981   -2.454144   -1.610489
    104          1           0       -3.076684   -0.521976   -0.813568
    105          1           0       -5.843174   -1.757912    1.637289
    106          1           0       -6.301316   -0.171955    1.904528
    107          1           0       -5.026256   -0.712369    2.813701
    108          1           0       -2.830236    1.181276    0.936046
    109          1           0       -4.143665    1.345885    2.036602
    110          1           0       -4.882657    1.795293   -0.819972
    111          1           0       -3.693823    2.899150   -0.102415
    112          1           0       -5.139616    3.788017    1.269580
    113          1           0       -6.029121    2.290177    1.750608
    114          1           0       -6.722159    2.762494   -0.918019
    115          1           0       -6.350737    5.208179   -0.931709
    116          1           0       -6.614549    5.204408    0.700175
    117          1           0       -8.058262    5.148771   -0.305747
    118          1           0       -9.171881    3.288955    0.357025
    119          1           0       -8.197854    2.712617    1.638064
    120          1           0       -8.063100    0.876661   -0.772879
    121          1           0       -9.704373    1.526211   -0.591913
    122          1           0       -8.921302    0.680506    2.014504
    123          1           0       -8.300229   -0.444501    0.838944
    124          1           0      -10.662032   -0.397797   -0.310445
    125          1           0      -10.954732   -1.863811    2.211986
    126          1           0       -9.532429   -2.211750    1.145407
    127          1           0      -11.112397   -2.329649    0.472097
    128          1           0      -11.288294    1.492480    1.583913
    129          1           0      -12.112966    0.141639    2.312744
    130          1           0      -12.585148    0.358344   -0.668475
    131          1           0      -13.211062    1.729374    0.255724
    132          1           0      -13.901258   -0.881945    1.415658
    133          1           0      -14.442616   -0.735152   -0.226017
    134          1           0      -15.151476    1.713836    1.216248
    135          1           0      -17.128533   -0.441923    2.017258
    136          1           0      -16.582768    0.814634    2.997728
    137          1           0      -15.526482   -0.566795    2.883472
    138          1           0      -16.075516    0.295603   -0.945146
    139          1           0      -16.734206    1.745180   -0.518064
    140          1           0      -17.433760    0.168573    0.103820
 ---------------------------------------------------------------------

 SCF Done:  E(RPBE1PBE) =  -3005.29843838     A.U. after   16 cycles

 Excitation energies and oscillator strengths:

 Excited State   1:      Singlet-A      1.8922 eV  655.26 nm  f=0.3286  <S**2>=0.000
     245 -> 248        0.19611
     246 -> 247        0.68510
 This state for optimization and/or second-order correction.
 Total Energy, E(TD-HF/TD-DFT) =  -3005.22890314
 Copying the excited state density for this state as the 1-particle RhoCI density.

 Excited State   2:      Singlet-A      2.1832 eV  567.89 nm  f=0.1269  <S**2>=0.000
     245 -> 247        0.65512
     246 -> 248       -0.25092

 Excited State   3:      Singlet-A      2.8090 eV  441.37 nm  f=0.0019  <S**2>=0.000
     244 -> 247        0.67611
     244 -> 249        0.10163

 Excited State   4:      Singlet-A      2.9372 eV  422.12 nm  f=0.0058  <S**2>=0.000
     242 -> 247        0.68686

 Excited State   5:      Singlet-A      3.1392 eV  394.95 nm  f=0.0030  <S**2>=0.000
     240 -> 247        0.29806
     240 -> 249       -0.12764
     241 -> 247        0.60960

 The electronic state is 1-A.
 Alpha  occ. eigenvalues --  -46.94673 -19.26571 -19.25100 -19.20553 -19.20255
 Alpha  occ. eigenvalues --  -19.19871 -19.18701 -14.42034 -14.41632 -14.40086
 Alpha  occ. eigenvalues --  -14.39931 -10.36882 -10.36326 -10.33274 -10.32277
 Alpha  occ. eigenvalues --  -10.29798 -10.29715 -10.29582 -10.29149 -10.29031
 Alpha  occ. eigenvalues --  -10.28902 -10.28892 -10.28621 -10.28014 -10.27415
 Alpha  occ. eigenvalues --  -10.27371 -10.27339 -10.26742 -10.26593 -10.26543
 Alpha  occ. eigenvalues --  -10.26384 -10.26293 -10.26068 -10.25694 -10.25473
 Alpha  occ. eigenvalues --  -10.25364 -10.25345 -10.25011 -10.24816 -10.24710
 Alpha  occ. eigenvalues --  -10.24233 -10.24000 -10.23892 -10.23832 -10.23662
 Alpha  occ. eigenvalues --  -10.23448 -10.23430 -10.23416 -10.23267 -10.23226
 Alpha  occ. eigenvalues --  -10.23069 -10.23057 -10.22963 -10.22778 -10.22680
 Alpha  occ. eigenvalues --  -10.22585 -10.22575 -10.22551 -10.22225 -10.22158
 Alpha  occ. eigenvalues --  -10.21930 -10.21845 -10.21676 -10.21510 -10.21370
 Alpha  occ. eigenvalues --  -10.21216  -3.16519  -1.89301  -1.88941  -1.88703
 Alpha  occ. eigenvalues --   -1.10638  -1.10026  -1.05651  -1.04112  -1.02122
 Alpha  occ. eigenvalues --   -1.01919  -0.99716  -0.98872  -0.96453  -0.95335
 Alpha  occ. eigenvalues --   -0.87220  -0.84187  -0.83496  -0.83008  -0.82424
 Alpha  occ. eigenvalues --   -0.82296  -0.81694  -0.81508  -0.80810  -0.80717
 Alpha  occ. eigenvalues --   -0.80017  -0.78995  -0.78221  -0.78023  -0.77387
 Alpha  occ. eigenvalues --   -0.76428  -0.76045  -0.74941  -0.74892  -0.74471
 Alpha  occ. eigenvalues --   -0.73799  -0.72111  -0.71972  -0.71511  -0.70969
 Alpha  occ. eigenvalues --   -0.69861  -0.69548  -0.69123  -0.68231  -0.68028
 Alpha  occ. eigenvalues --   -0.67854  -0.67210  -0.66273  -0.64573  -0.64390
 Alpha  occ. eigenvalues --   -0.63512  -0.61923  -0.61733  -0.60836  -0.60687
 Alpha  occ. eigenvalues --   -0.60081  -0.59473  -0.59406  -0.59105  -0.57893
 Alpha  occ. eigenvalues --   -0.57780  -0.57518  -0.57390  -0.57081  -0.54565
 Alpha  occ. eigenvalues --   -0.54077  -0.53975  -0.53656  -0.52828  -0.52486
 Alpha  occ. eigenvalues --   -0.51564  -0.51389  -0.50897  -0.50620  -0.49711
 Alpha  occ. eigenvalues --   -0.49576  -0.49194  -0.48931  -0.48432  -0.48289
 Alpha  occ. eigenvalues --   -0.47998  -0.47574  -0.47361  -0.47205  -0.46966
 Alpha  occ. eigenvalues --   -0.46769  -0.46607  -0.46323  -0.46203  -0.46049
 Alpha  occ. eigenvalues --   -0.45991  -0.45583  -0.45490  -0.45181  -0.44839
 Alpha  occ. eigenvalues --   -0.44743  -0.44662  -0.44399  -0.43963  -0.43731
 Alpha  occ. eigenvalues --   -0.43661  -0.43528  -0.43505  -0.43354  -0.43237
 Alpha  occ. eigenvalues --   -0.43125  -0.42824  -0.42469  -0.42283  -0.42064
 Alpha  occ. eigenvalues --   -0.41926  -0.41628  -0.41609  -0.41434  -0.41165
 Alpha  occ. eigenvalues --   -0.40891  -0.40875  -0.40438  -0.40312  -0.40239
 Alpha  occ. eigenvalues --   -0.40124  -0.39836  -0.39580  -0.39552  -0.39327
 Alpha  occ. eigenvalues --   -0.39162  -0.38955  -0.38687  -0.38631  -0.38532
 Alpha  occ. eigenvalues --   -0.38336  -0.38087  -0.38016  -0.37952  -0.37827
 Alpha  occ. eigenvalues --   -0.37777  -0.37585  -0.37342  -0.37065  -0.36971
 Alpha  occ. eigenvalues --   -0.36668  -0.36473  -0.36381  -0.36265  -0.36143
 Alpha  occ. eigenvalues --   -0.35935  -0.35925  -0.35592  -0.35288  -0.34933
 Alpha  occ. eigenvalues --   -0.34816  -0.34474  -0.34074  -0.33831  -0.33747
 Alpha  occ. eigenvalues --   -0.33137  -0.33034  -0.32930  -0.32314  -0.32241
 Alpha  occ. eigenvalues --   -0.31931  -0.31910  -0.31572  -0.31511  -0.31190
 Alpha  occ. eigenvalues --   -0.30971  -0.30358  -0.30276  -0.30151  -0.29533
 Alpha  occ. eigenvalues --   -0.28549  -0.28288  -0.28218  -0.27419  -0.26383
 Alpha  occ. eigenvalues --   -0.26048  -0.25351  -0.25038  -0.24984  -0.21041
 Alpha  occ. eigenvalues --   -0.19490
 Alpha virt. eigenvalues --   -0.11537  -0.05816  -0.04338  -0.02656  -0.02311
 Alpha virt. eigenvalues --   -0.01134  -0.00576   0.00370   0.01342   0.02567
 Alpha virt. eigenvalues --    0.03770   0.04857   0.05166   0.05339   0.05655

 Mulliken charges:
               1
     1  Mg   0.969791
     2  C   -0.037456
     3  C   -0.036332
     4  C   -0.072366
     5  C   -0.046993
     6  N   -0.368673
     7  C    0.022362
     8  C   -0.098716
     9  C   -0.131587
    10  C    0.033520
    11  C    0.000901
    12  C    0.026888
    13  C   -0.014375
    14  C    0.241429
    15  O   -0.268535
    16  O   -0.364470
    17  N   -0.510670
    18  C    0.185464
    19  C   -0.141106
    20  C   -0.086867
    21  C    0.198278
    22  C    0.089589
    23  C    0.031098
    24  O   -0.250957
    25  C   -0.021279
    26  N   -0.335645
    27  C    0.057094
    28  C   -0.148881
    29  C   -0.106988
    30  C    0.042836
    31  C    0.011854
    32  C    0.009772
    33  C   -0.068592
    34  N   -0.522129
    35  C    0.123854
    36  C   -0.214973
    37  C   -0.032638
    38  C    0.202986
    39  C    0.059333
    40  C    0.168804
    41  O   -0.198874
    42  C   -0.133277
    43  C    0.286690
    44  O   -0.279280
    45  O   -0.377505
    46  C    0.128383
    47  C    0.246425
    48  C   -0.124140
    49  C   -0.172826
    50  C   -0.002218
    51  C   -0.026378
    52  C   -0.015253
    53  C   -0.009489
    54  C   -0.205041
    55  C   -0.027555
    56  C   -0.022408
    57  C   -0.046145
    58  C   -0.037550
    59  C   -0.227351
    60  C   -0.005921
    61  C   -0.004683
    62  C   -0.054143
    63  C   -0.018788
    64  C   -0.230583
    65  C   -0.015593
    66  C   -0.013939
    67  H    0.012103
    68  H   -0.002601
    69  H    0.013351
    70  H    0.068908
    71  H    0.054081
    72  H    0.051892
    73  H    0.039632
    74  H    0.034666
    75  H    0.053399
    76  H    0.059494
    77  H    0.064114
    78  H    0.053530
    79  H    0.056082
    80  H    0.016398
    81  H    0.060365
    82  H    0.063575
    83  H    0.069013
    84  H    0.050615
    85  H    0.063132
    86  H    0.054095
    87  H    0.038917
    88  H    0.028768
    89  H    0.052407
    90  H    0.050031
    91  H    0.038688
    92  H    0.038174
    93  H    0.057469
    94  H    0.036864
    95  H    0.033670
    96  H    0.058083
    97  H    0.062581
    98  H    0.089376
    99  H    0.062020
   100  H    0.062991
   101  H    0.061473
   102  H    0.042763
   103  H    0.055970
   104  H    0.025666
   105  H    0.030436
   106  H    0.041379
   107  H    0.047710
   108  H    0.031623
   109  H    0.025233
   110  H    0.037879
   111  H    0.034084
   112  H    0.038388
   113  H    0.031139
   114  H    0.038517
   115  H    0.030871
   116  H    0.015597
   117  H    0.041113
   118  H    0.026348
   119  H    0.025431
   120  H    0.037941
   121  H    0.037243
   122  H    0.036117
   123  H    0.029435
   124  H    0.033854
   125  H    0.035663
   126  H    0.022594
   127  H    0.028504
   128  H    0.022604
   129  H    0.035119
   130  H    0.031963
   131  H    0.030340
   132  H    0.026707
   133  H    0.024228
   134  H    0.040465
   135  H    0.034308
   136  H    0.031235
   137  H    0.036687
   138  H    0.013045
   139  H    0.037671
   140  H    0.038593
 Sum of Mulliken charges =  -0.00000

 Dipole moment (field-independent basis, Debye):
    X=              4.6534    Y=              2.3963    Z=              1.1154  Tot=              5.3517
 Quadrupole moment (field-independent basis, Debye-Ang):
   XX=           -339.8851   YY=           -444.2501   ZZ=           -393.4132
   XY=              3.3909   XZ=              3.7407   YZ=             30.8199

 Normal termination of Gaussian 16 at Tue May  3 21:13:08 2022.
