 Gaussian 16, Revision A.03,
 Gaussian 16:  ES64L-G16RevA.03 25-Dec-2016

 --------------------------------
 #p wB97XD/Def2SVP td=(nstates=5)
 --------------------------------

 ---------------------------------------------------
 step_101_chromophore_5 TDDFT with wB97XD functional
 ---------------------------------------------------
 Symbolic Z-matrix:
 Charge =  0 Multiplicity = 1

                         Standard orientation:
 ---------------------------------------------------------------------
 Center     Atomic      Atomic             Coordinates (Angstroms)
 Number     Number       Type             X           Y           Z
 ---------------------------------------------------------------------
      1         12           0        5.514198    0.246298   -0.490980
      2          6           0        3.661615   -2.665392   -0.232876
      3          6           0        2.949667    1.403375   -2.746158
      4          6           0        6.327890    3.470345    0.237947
      5          6           0        7.471297   -0.695315    2.286849
      6          7           0        3.506715   -0.630482   -1.399817
      7          6           0        3.089094   -1.959298   -1.241500
      8          6           0        1.819168   -2.300956   -2.077612
      9          6           0        1.896063   -1.023819   -3.148961
     10          6           0        2.782004    0.016001   -2.388987
     11          6           0        2.435062   -1.458138   -4.546304
     12          6           0        0.475925   -2.348914   -1.231606
     13          6           0       -0.523828   -3.522348   -1.543753
     14          6           0       -2.000956   -3.216624   -1.820010
     15          8           0       -2.422418   -2.799227   -2.894992
     16          8           0       -2.745793   -3.261416   -0.643712
     17          7           0        4.883092    2.146490   -1.326880
     18          6           0        3.854373    2.429879   -2.299490
     19          6           0        3.843985    3.839464   -2.567922
     20          6           0        4.803937    4.439564   -1.693307
     21          6           0        5.375185    3.361890   -0.835820
     22          6           0        2.975477    4.485635   -3.588659
     23          6           0        5.067255    5.937018   -1.802822
     24          8           0        4.486167    6.621078   -2.645328
     25          6           0        6.210147    6.661389   -1.045163
     26          7           0        6.561063    1.333648    1.216947
     27          6           0        6.960551    2.581053    1.089896
     28          6           0        7.891239    2.996139    2.232385
     29          6           0        8.387526    1.596985    2.905931
     30          6           0        7.347285    0.714585    2.155733
     31          6           0        9.057220    4.016367    1.936610
     32          6           0        8.228900    1.517617    4.435565
     33          6           0        9.537579    1.405792    5.287139
     34          7           0        5.721261   -1.377534    0.659038
     35          6           0        6.543427   -1.668568    1.711261
     36          6           0        6.323103   -3.029875    2.071798
     37          6           0        5.166542   -3.449014    1.444092
     38          6           0        4.770033   -2.349453    0.606003
     39          6           0        7.167959   -3.899149    3.001132
     40          6           0        4.263346   -4.571295    1.245210
     41          8           0        4.352811   -5.669609    1.757248
     42          6           0        3.080198   -4.004074    0.283551
     43          6           0        2.865171   -4.950263   -0.785337
     44          8           0        1.792145   -5.568170   -0.957848
     45          8           0        3.912905   -4.955447   -1.695626
     46          6           0        3.768211   -5.971209   -2.768851
     47          6           0       -3.998933   -2.543893   -0.620333
     48          6           0       -3.798682   -1.074748   -0.211589
     49          6           0       -4.377547   -0.330561    0.760738
     50          6           0       -5.400149   -0.774237    1.791700
     51          6           0       -3.917344    1.125701    0.992771
     52          6           0       -4.497555    2.196776    0.117476
     53          6           0       -5.654220    2.891130    0.922770
     54          6           0       -6.895094    3.215070    0.057915
     55          6           0       -7.039303    4.774657   -0.207346
     56          6           0       -8.284733    2.686175    0.552147
     57          6           0       -8.761096    1.344527   -0.077549
     58          6           0       -9.076293    0.303547    1.003534
     59          6           0      -10.487383   -0.293141    0.760376
     60          6           0      -10.530588   -1.779240    1.211889
     61          6           0      -11.735601    0.522721    1.363495
     62          6           0      -12.928762    0.677980    0.314986
     63          6           0      -14.199967   -0.151906    0.662759
     64          6           0      -15.500605    0.691500    1.071472
     65          6           0      -16.205524    0.060752    2.307358
     66          6           0      -16.540343    0.766008   -0.078519
     67          1           0        2.208469    1.546272   -3.535973
     68          1           0        6.573896    4.495587    0.519858
     69          1           0        8.176938   -1.115385    3.006798
     70          1           0        2.088580   -3.206561   -2.620478
     71          1           0        0.877544   -0.691505   -3.351085
     72          1           0        1.683184   -1.288397   -5.317162
     73          1           0        2.829306   -2.471353   -4.623739
     74          1           0        3.303644   -0.926373   -4.933611
     75          1           0        0.000024   -1.399258   -1.476539
     76          1           0        0.642179   -2.414051   -0.156024
     77          1           0       -0.490571   -4.225507   -0.711126
     78          1           0       -0.038942   -4.097885   -2.331705
     79          1           0        2.262399    5.227142   -3.227603
     80          1           0        2.377570    3.716750   -4.079681
     81          1           0        3.486255    5.020256   -4.389603
     82          1           0        7.090478    6.083909   -1.327238
     83          1           0        5.930200    6.744299    0.005325
     84          1           0        6.366720    7.674376   -1.416760
     85          1           0        7.246651    3.582131    2.888281
     86          1           0        9.350030    1.416862    2.426933
     87          1           0        9.011645    4.244220    0.870944
     88          1           0       10.011846    3.497080    2.025667
     89          1           0        9.071141    4.918612    2.547802
     90          1           0        7.686948    0.603284    4.674691
     91          1           0        7.584527    2.359573    4.689552
     92          1           0       10.403449    1.542948    4.638961
     93          1           0        9.521513    0.515586    5.916735
     94          1           0        9.684800    2.270152    5.934344
     95          1           0        8.221495   -3.661674    2.854810
     96          1           0        7.128180   -4.951144    2.719626
     97          1           0        6.896669   -3.771543    4.050073
     98          1           0        2.134773   -3.809069    0.789712
     99          1           0        3.656816   -6.967591   -2.339554
    100          1           0        4.702187   -5.985638   -3.332069
    101          1           0        2.875625   -5.804301   -3.372153
    102          1           0       -4.736905   -3.135761   -0.079553
    103          1           0       -4.445981   -2.454144   -1.610489
    104          1           0       -3.076684   -0.521976   -0.813568
    105          1           0       -5.843174   -1.757912    1.637289
    106          1           0       -6.301316   -0.171955    1.904528
    107          1           0       -5.026256   -0.712369    2.813701
    108          1           0       -2.830236    1.181276    0.936046
    109          1           0       -4.143665    1.345885    2.036602
    110          1           0       -4.882657    1.795293   -0.819972
    111          1           0       -3.693823    2.899150   -0.102415
    112          1           0       -5.139616    3.788017    1.269580
    113          1           0       -6.029121    2.290177    1.750608
    114          1           0       -6.722159    2.762494   -0.918019
    115          1           0       -6.350737    5.208179   -0.931709
    116          1           0       -6.614549    5.204408    0.700175
    117          1           0       -8.058262    5.148771   -0.305747
    118          1           0       -9.171881    3.288955    0.357025
    119          1           0       -8.197854    2.712617    1.638064
    120          1           0       -8.063100    0.876661   -0.772879
    121          1           0       -9.704373    1.526211   -0.591913
    122          1           0       -8.921302    0.680506    2.014504
    123          1           0       -8.300229   -0.444501    0.838944
    124          1           0      -10.662032   -0.397797   -0.310445
    125          1           0      -10.954732   -1.863811    2.211986
    126          1           0       -9.532429   -2.211750    1.145407
    127          1           0      -11.112397   -2.329649    0.472097
    128          1           0      -11.288294    1.492480    1.583913
    129          1           0      -12.112966    0.141639    2.312744
    130          1           0      -12.585148    0.358344   -0.668475
    131          1           0      -13.211062    1.729374    0.255724
    132          1           0      -13.901258   -0.881945    1.415658
    133          1           0      -14.442616   -0.735152   -0.226017
    134          1           0      -15.151476    1.713836    1.216248
    135          1           0      -17.128533   -0.441923    2.017258
    136          1           0      -16.582768    0.814634    2.997728
    137          1           0      -15.526482   -0.566795    2.883472
    138          1           0      -16.075516    0.295603   -0.945146
    139          1           0      -16.734206    1.745180   -0.518064
    140          1           0      -17.433760    0.168573    0.103820
 ---------------------------------------------------------------------

 SCF Done:  E(RwB97XD) =  -3007.81026973     A.U. after   17 cycles

 Excitation energies and oscillator strengths:

 Excited State   1:      Singlet-A      1.7062 eV  726.67 nm  f=0.3408  <S**2>=0.000
     245 -> 248        0.20313
     246 -> 247        0.67801
     245 <- 248        0.11775
 This state for optimization and/or second-order correction.
 Total Energy, E(TD-HF/TD-DFT) =  -3007.74756857
 Copying the excited state density for this state as the 1-particle RhoCI density.

 Excited State   2:      Singlet-A      2.1258 eV  583.24 nm  f=0.1285  <S**2>=0.000
     245 -> 247        0.64340
     246 -> 248       -0.27260

 Excited State   3:      Singlet-A      3.2044 eV  386.92 nm  f=0.0022  <S**2>=0.000
     243 -> 247        0.65827
     246 -> 248       -0.16354

 Excited State   4:      Singlet-A      3.4121 eV  363.37 nm  f=0.0008  <S**2>=0.000
     241 -> 247        0.50147
     241 -> 249        0.22942
     241 -> 251       -0.25047
     242 -> 247        0.24573
     243 -> 251       -0.10826

 Excited State   5:      Singlet-A      3.5796 eV  346.36 nm  f=0.5039  <S**2>=0.000
     241 -> 247        0.11899
     242 -> 247       -0.35010
     243 -> 247        0.10737
     245 -> 247        0.22559
     246 -> 248        0.53471
     245 <- 247       -0.10018

 The electronic state is 1-A.
 Alpha  occ. eigenvalues --  -46.97590 -19.31129 -19.29648 -19.25247 -19.24854
 Alpha  occ. eigenvalues --  -19.24560 -19.23683 -14.47300 -14.46578 -14.45114
 Alpha  occ. eigenvalues --  -14.44706 -10.43707 -10.43124 -10.39939 -10.39269
 Alpha  occ. eigenvalues --  -10.36450 -10.36348 -10.36084 -10.35588 -10.35526
 Alpha  occ. eigenvalues --  -10.35434 -10.35200 -10.34682 -10.33943 -10.33663
 Alpha  occ. eigenvalues --  -10.33646 -10.33327 -10.33252 -10.32917 -10.32874
 Alpha  occ. eigenvalues --  -10.32768 -10.32748 -10.32614 -10.32110 -10.32033
 Alpha  occ. eigenvalues --  -10.31489 -10.31370 -10.31331 -10.31047 -10.31041
 Alpha  occ. eigenvalues --  -10.30645 -10.30418 -10.30358 -10.30138 -10.30104
 Alpha  occ. eigenvalues --  -10.29984 -10.29850 -10.29607 -10.29545 -10.29535
 Alpha  occ. eigenvalues --  -10.29513 -10.29503 -10.29315 -10.29054 -10.29041
 Alpha  occ. eigenvalues --  -10.28960 -10.28949 -10.28927 -10.28575 -10.28522
 Alpha  occ. eigenvalues --  -10.28303 -10.28217 -10.28098 -10.27923 -10.27813
 Alpha  occ. eigenvalues --  -10.27647  -3.23362  -1.96884  -1.96523  -1.96274
 Alpha  occ. eigenvalues --   -1.18041  -1.17406  -1.12928  -1.11777  -1.09469
 Alpha  occ. eigenvalues --   -1.09289  -1.06984  -1.06000  -1.03976  -1.02967
 Alpha  occ. eigenvalues --   -0.94751  -0.91874  -0.91033  -0.90686  -0.90078
 Alpha  occ. eigenvalues --   -0.89962  -0.89373  -0.89039  -0.88484  -0.88365
 Alpha  occ. eigenvalues --   -0.87712  -0.86695  -0.85831  -0.85637  -0.85048
 Alpha  occ. eigenvalues --   -0.84083  -0.83750  -0.82712  -0.82487  -0.82141
 Alpha  occ. eigenvalues --   -0.81464  -0.79687  -0.79572  -0.79307  -0.78588
 Alpha  occ. eigenvalues --   -0.77486  -0.77219  -0.76822  -0.75921  -0.75705
 Alpha  occ. eigenvalues --   -0.75376  -0.74790  -0.73837  -0.72210  -0.71892
 Alpha  occ. eigenvalues --   -0.70947  -0.69548  -0.69343  -0.68480  -0.68158
 Alpha  occ. eigenvalues --   -0.67590  -0.67117  -0.66934  -0.66535  -0.65506
 Alpha  occ. eigenvalues --   -0.65177  -0.65148  -0.64965  -0.64724  -0.61943
 Alpha  occ. eigenvalues --   -0.61636  -0.61513  -0.61006  -0.60166  -0.59829
 Alpha  occ. eigenvalues --   -0.59052  -0.58860  -0.58306  -0.57973  -0.57116
 Alpha  occ. eigenvalues --   -0.57035  -0.56598  -0.56197  -0.55811  -0.55750
 Alpha  occ. eigenvalues --   -0.55338  -0.54912  -0.54628  -0.54543  -0.54362
 Alpha  occ. eigenvalues --   -0.54304  -0.54105  -0.53710  -0.53471  -0.53431
 Alpha  occ. eigenvalues --   -0.53308  -0.52861  -0.52792  -0.52626  -0.52175
 Alpha  occ. eigenvalues --   -0.51944  -0.51888  -0.51727  -0.51276  -0.51224
 Alpha  occ. eigenvalues --   -0.51049  -0.50859  -0.50746  -0.50607  -0.50559
 Alpha  occ. eigenvalues --   -0.50477  -0.50225  -0.49790  -0.49486  -0.49422
 Alpha  occ. eigenvalues --   -0.49198  -0.48913  -0.48748  -0.48655  -0.48427
 Alpha  occ. eigenvalues --   -0.48138  -0.48089  -0.47619  -0.47567  -0.47469
 Alpha  occ. eigenvalues --   -0.47269  -0.46994  -0.46817  -0.46774  -0.46662
 Alpha  occ. eigenvalues --   -0.46393  -0.46130  -0.45902  -0.45734  -0.45702
 Alpha  occ. eigenvalues --   -0.45380  -0.45242  -0.45153  -0.45141  -0.44978
 Alpha  occ. eigenvalues --   -0.44923  -0.44713  -0.44501  -0.44323  -0.44044
 Alpha  occ. eigenvalues --   -0.43739  -0.43585  -0.43409  -0.43293  -0.43220
 Alpha  occ. eigenvalues --   -0.43066  -0.42914  -0.42547  -0.42361  -0.41991
 Alpha  occ. eigenvalues --   -0.41862  -0.41519  -0.40995  -0.40894  -0.40717
 Alpha  occ. eigenvalues --   -0.40112  -0.40040  -0.40002  -0.39383  -0.39316
 Alpha  occ. eigenvalues --   -0.39001  -0.38935  -0.38534  -0.38448  -0.38208
 Alpha  occ. eigenvalues --   -0.37999  -0.37319  -0.37118  -0.37055  -0.36579
 Alpha  occ. eigenvalues --   -0.35387  -0.35134  -0.35115  -0.34037  -0.33154
 Alpha  occ. eigenvalues --   -0.32480  -0.32402  -0.31997  -0.31772  -0.26006
 Alpha  occ. eigenvalues --   -0.23735
 Alpha virt. eigenvalues --   -0.07369  -0.00399   0.01975   0.03550   0.04134
 Alpha virt. eigenvalues --    0.05651   0.06187   0.07132   0.08076   0.09255
 Alpha virt. eigenvalues --    0.10519   0.11362   0.11769   0.11985   0.12399

 Mulliken charges:
               1
     1  Mg   0.964903
     2  C   -0.024087
     3  C   -0.045505
     4  C   -0.088937
     5  C   -0.065377
     6  N   -0.336822
     7  C   -0.021978
     8  C   -0.063294
     9  C   -0.102941
    10  C    0.014601
    11  C    0.006883
    12  C    0.036149
    13  C    0.002315
    14  C    0.231150
    15  O   -0.265922
    16  O   -0.365116
    17  N   -0.487583
    18  C    0.182254
    19  C   -0.127912
    20  C   -0.082819
    21  C    0.201920
    22  C    0.098894
    23  C    0.026967
    24  O   -0.246300
    25  C   -0.006906
    26  N   -0.306539
    27  C    0.049943
    28  C   -0.131185
    29  C   -0.076209
    30  C    0.030506
    31  C    0.024362
    32  C    0.021361
    33  C   -0.052159
    34  N   -0.489385
    35  C    0.114692
    36  C   -0.212691
    37  C   -0.023804
    38  C    0.179081
    39  C    0.069628
    40  C    0.145197
    41  O   -0.191218
    42  C   -0.091943
    43  C    0.262315
    44  O   -0.272198
    45  O   -0.377655
    46  C    0.143539
    47  C    0.263375
    48  C   -0.134421
    49  C   -0.162788
    50  C    0.018975
    51  C   -0.002141
    52  C   -0.000885
    53  C    0.006621
    54  C   -0.175303
    55  C   -0.011700
    56  C   -0.008302
    57  C   -0.027698
    58  C   -0.017827
    59  C   -0.194826
    60  C    0.006868
    61  C    0.007973
    62  C   -0.037346
    63  C   -0.002865
    64  C   -0.203118
    65  C   -0.001282
    66  C   -0.001375
    67  H    0.006794
    68  H   -0.017686
    69  H    0.007401
    70  H    0.047633
    71  H    0.046258
    72  H    0.047677
    73  H    0.035121
    74  H    0.028448
    75  H    0.043498
    76  H    0.051972
    77  H    0.058639
    78  H    0.047046
    79  H    0.053985
    80  H    0.010894
    81  H    0.058005
    82  H    0.057500
    83  H    0.066064
    84  H    0.049889
    85  H    0.052333
    86  H    0.042406
    87  H    0.030767
    88  H    0.022663
    89  H    0.048617
    90  H    0.041274
    91  H    0.031035
    92  H    0.030785
    93  H    0.053031
    94  H    0.030271
    95  H    0.026374
    96  H    0.053268
    97  H    0.056706
    98  H    0.081642
    99  H    0.057809
   100  H    0.060341
   101  H    0.057103
   102  H    0.039782
   103  H    0.050484
   104  H    0.021978
   105  H    0.024741
   106  H    0.024466
   107  H    0.043125
   108  H    0.025166
   109  H    0.014876
   110  H    0.027175
   111  H    0.028193
   112  H    0.030053
   113  H    0.016667
   114  H    0.023244
   115  H    0.025485
   116  H    0.006182
   117  H    0.035747
   118  H    0.018793
   119  H    0.015001
   120  H    0.030335
   121  H    0.025641
   122  H    0.027097
   123  H    0.014197
   124  H    0.018752
   125  H    0.029245
   126  H    0.016333
   127  H    0.022554
   128  H    0.012464
   129  H    0.026338
   130  H    0.023478
   131  H    0.022030
   132  H    0.015072
   133  H    0.015263
   134  H    0.029310
   135  H    0.027082
   136  H    0.025415
   137  H    0.030615
   138  H    0.004852
   139  H    0.032880
   140  H    0.032217
 Sum of Mulliken charges =  -0.00000

 Dipole moment (field-independent basis, Debye):
    X=              4.4876    Y=              2.9242    Z=              0.6743  Tot=              5.3986
 Quadrupole moment (field-independent basis, Debye-Ang):
   XX=           -341.2079   YY=           -442.4467   ZZ=           -393.2230
   XY=              6.1269   XZ=              1.0097   YZ=             30.5138

 Normal termination of Gaussian 16 at Tue May  3 21:40:37 2022.
