 Gaussian 16, Revision A.03,
 Gaussian 16:  ES64L-G16RevA.03 25-Dec-2016

 --------------------
 #p ZINDO=(nstates=5)
 --------------------

 ----------------------------
 step_101_chromophore_5 ZINDO
 ----------------------------
 Symbolic Z-matrix:
 Charge =  0 Multiplicity = 1

                         Standard orientation:
 ---------------------------------------------------------------------
 Center     Atomic      Atomic             Coordinates (Angstroms)
 Number     Number       Type             X           Y           Z
 ---------------------------------------------------------------------
      1         12           0        5.514198    0.246298   -0.490980
      2          6           0        3.661615   -2.665392   -0.232876
      3          6           0        2.949667    1.403375   -2.746158
      4          6           0        6.327890    3.470345    0.237947
      5          6           0        7.471297   -0.695315    2.286849
      6          7           0        3.506715   -0.630482   -1.399817
      7          6           0        3.089094   -1.959298   -1.241500
      8          6           0        1.819168   -2.300956   -2.077612
      9          6           0        1.896063   -1.023819   -3.148961
     10          6           0        2.782004    0.016001   -2.388987
     11          6           0        2.435062   -1.458138   -4.546304
     12          6           0        0.475925   -2.348914   -1.231606
     13          6           0       -0.523828   -3.522348   -1.543753
     14          6           0       -2.000956   -3.216624   -1.820010
     15          8           0       -2.422418   -2.799227   -2.894992
     16          8           0       -2.745793   -3.261416   -0.643712
     17          7           0        4.883092    2.146490   -1.326880
     18          6           0        3.854373    2.429879   -2.299490
     19          6           0        3.843985    3.839464   -2.567922
     20          6           0        4.803937    4.439564   -1.693307
     21          6           0        5.375185    3.361890   -0.835820
     22          6           0        2.975477    4.485635   -3.588659
     23          6           0        5.067255    5.937018   -1.802822
     24          8           0        4.486167    6.621078   -2.645328
     25          6           0        6.210147    6.661389   -1.045163
     26          7           0        6.561063    1.333648    1.216947
     27          6           0        6.960551    2.581053    1.089896
     28          6           0        7.891239    2.996139    2.232385
     29          6           0        8.387526    1.596985    2.905931
     30          6           0        7.347285    0.714585    2.155733
     31          6           0        9.057220    4.016367    1.936610
     32          6           0        8.228900    1.517617    4.435565
     33          6           0        9.537579    1.405792    5.287139
     34          7           0        5.721261   -1.377534    0.659038
     35          6           0        6.543427   -1.668568    1.711261
     36          6           0        6.323103   -3.029875    2.071798
     37          6           0        5.166542   -3.449014    1.444092
     38          6           0        4.770033   -2.349453    0.606003
     39          6           0        7.167959   -3.899149    3.001132
     40          6           0        4.263346   -4.571295    1.245210
     41          8           0        4.352811   -5.669609    1.757248
     42          6           0        3.080198   -4.004074    0.283551
     43          6           0        2.865171   -4.950263   -0.785337
     44          8           0        1.792145   -5.568170   -0.957848
     45          8           0        3.912905   -4.955447   -1.695626
     46          6           0        3.768211   -5.971209   -2.768851
     47          6           0       -3.998933   -2.543893   -0.620333
     48          6           0       -3.798682   -1.074748   -0.211589
     49          6           0       -4.377547   -0.330561    0.760738
     50          6           0       -5.400149   -0.774237    1.791700
     51          6           0       -3.917344    1.125701    0.992771
     52          6           0       -4.497555    2.196776    0.117476
     53          6           0       -5.654220    2.891130    0.922770
     54          6           0       -6.895094    3.215070    0.057915
     55          6           0       -7.039303    4.774657   -0.207346
     56          6           0       -8.284733    2.686175    0.552147
     57          6           0       -8.761096    1.344527   -0.077549
     58          6           0       -9.076293    0.303547    1.003534
     59          6           0      -10.487383   -0.293141    0.760376
     60          6           0      -10.530588   -1.779240    1.211889
     61          6           0      -11.735601    0.522721    1.363495
     62          6           0      -12.928762    0.677980    0.314986
     63          6           0      -14.199967   -0.151906    0.662759
     64          6           0      -15.500605    0.691500    1.071472
     65          6           0      -16.205524    0.060752    2.307358
     66          6           0      -16.540343    0.766008   -0.078519
     67          1           0        2.208469    1.546272   -3.535973
     68          1           0        6.573896    4.495587    0.519858
     69          1           0        8.176938   -1.115385    3.006798
     70          1           0        2.088580   -3.206561   -2.620478
     71          1           0        0.877544   -0.691505   -3.351085
     72          1           0        1.683184   -1.288397   -5.317162
     73          1           0        2.829306   -2.471353   -4.623739
     74          1           0        3.303644   -0.926373   -4.933611
     75          1           0        0.000024   -1.399258   -1.476539
     76          1           0        0.642179   -2.414051   -0.156024
     77          1           0       -0.490571   -4.225507   -0.711126
     78          1           0       -0.038942   -4.097885   -2.331705
     79          1           0        2.262399    5.227142   -3.227603
     80          1           0        2.377570    3.716750   -4.079681
     81          1           0        3.486255    5.020256   -4.389603
     82          1           0        7.090478    6.083909   -1.327238
     83          1           0        5.930200    6.744299    0.005325
     84          1           0        6.366720    7.674376   -1.416760
     85          1           0        7.246651    3.582131    2.888281
     86          1           0        9.350030    1.416862    2.426933
     87          1           0        9.011645    4.244220    0.870944
     88          1           0       10.011846    3.497080    2.025667
     89          1           0        9.071141    4.918612    2.547802
     90          1           0        7.686948    0.603284    4.674691
     91          1           0        7.584527    2.359573    4.689552
     92          1           0       10.403449    1.542948    4.638961
     93          1           0        9.521513    0.515586    5.916735
     94          1           0        9.684800    2.270152    5.934344
     95          1           0        8.221495   -3.661674    2.854810
     96          1           0        7.128180   -4.951144    2.719626
     97          1           0        6.896669   -3.771543    4.050073
     98          1           0        2.134773   -3.809069    0.789712
     99          1           0        3.656816   -6.967591   -2.339554
    100          1           0        4.702187   -5.985638   -3.332069
    101          1           0        2.875625   -5.804301   -3.372153
    102          1           0       -4.736905   -3.135761   -0.079553
    103          1           0       -4.445981   -2.454144   -1.610489
    104          1           0       -3.076684   -0.521976   -0.813568
    105          1           0       -5.843174   -1.757912    1.637289
    106          1           0       -6.301316   -0.171955    1.904528
    107          1           0       -5.026256   -0.712369    2.813701
    108          1           0       -2.830236    1.181276    0.936046
    109          1           0       -4.143665    1.345885    2.036602
    110          1           0       -4.882657    1.795293   -0.819972
    111          1           0       -3.693823    2.899150   -0.102415
    112          1           0       -5.139616    3.788017    1.269580
    113          1           0       -6.029121    2.290177    1.750608
    114          1           0       -6.722159    2.762494   -0.918019
    115          1           0       -6.350737    5.208179   -0.931709
    116          1           0       -6.614549    5.204408    0.700175
    117          1           0       -8.058262    5.148771   -0.305747
    118          1           0       -9.171881    3.288955    0.357025
    119          1           0       -8.197854    2.712617    1.638064
    120          1           0       -8.063100    0.876661   -0.772879
    121          1           0       -9.704373    1.526211   -0.591913
    122          1           0       -8.921302    0.680506    2.014504
    123          1           0       -8.300229   -0.444501    0.838944
    124          1           0      -10.662032   -0.397797   -0.310445
    125          1           0      -10.954732   -1.863811    2.211986
    126          1           0       -9.532429   -2.211750    1.145407
    127          1           0      -11.112397   -2.329649    0.472097
    128          1           0      -11.288294    1.492480    1.583913
    129          1           0      -12.112966    0.141639    2.312744
    130          1           0      -12.585148    0.358344   -0.668475
    131          1           0      -13.211062    1.729374    0.255724
    132          1           0      -13.901258   -0.881945    1.415658
    133          1           0      -14.442616   -0.735152   -0.226017
    134          1           0      -15.151476    1.713836    1.216248
    135          1           0      -17.128533   -0.441923    2.017258
    136          1           0      -16.582768    0.814634    2.997728
    137          1           0      -15.526482   -0.566795    2.883472
    138          1           0      -16.075516    0.295603   -0.945146
    139          1           0      -16.734206    1.745180   -0.518064
    140          1           0      -17.433760    0.168573    0.103820
 ---------------------------------------------------------------------

 SCF Done:  E(RZINDO/S) =  -473.546804803     A.U. after   19 cycles

 Excitation energies and oscillator strengths:

 Excited State   1:      Singlet-A      1.3114 eV  945.46 nm  f=0.5124  <S**2>=0.000
     175 ->178        -0.18560
     176 ->177         0.66587
 This state for optimization and/or second-order correction.
 Total Energy, E(CIS/TDA) =  -473.498612938
 Copying the excited state density for this state as the 1-particle RhoCI density.

 Excited State   2:      Singlet-A      1.8673 eV  663.99 nm  f=0.0479  <S**2>=0.000
     175 ->177         0.55240
     176 ->178         0.40951

 Excited State   3:      Singlet-A      2.8163 eV  440.24 nm  f=0.0035  <S**2>=0.000
     176 ->179         0.51745
     176 ->180         0.46945

 Excited State   4:      Singlet-A      2.8668 eV  432.48 nm  f=0.0132  <S**2>=0.000
     168 ->177         0.32051
     168 ->178         0.13094
     168 ->179         0.32899
     168 ->180        -0.20706
     168 ->181        -0.31896
     168 ->185        -0.23507

 Excited State   5:      Singlet-A      2.9535 eV  419.79 nm  f=1.0123  <S**2>=0.000
     171 ->177        -0.15380
     175 ->177        -0.36046
     176 ->178         0.50736
     176 ->180         0.10589
     176 ->181        -0.10249

 The electronic state is 1-A.
 Alpha  occ. eigenvalues --   -1.83987  -1.79134  -1.75668  -1.71508  -1.71087
 Alpha  occ. eigenvalues --   -1.67918  -1.63806  -1.59045  -1.58986  -1.56804
 Alpha  occ. eigenvalues --   -1.53773  -1.49237  -1.47248  -1.46798  -1.46622
 Alpha  occ. eigenvalues --   -1.45212  -1.41206  -1.39579  -1.37928  -1.36768
 Alpha  occ. eigenvalues --   -1.34558  -1.32113  -1.31801  -1.30140  -1.28449
 Alpha  occ. eigenvalues --   -1.27528  -1.25396  -1.22557  -1.20160  -1.17600
 Alpha  occ. eigenvalues --   -1.16467  -1.14893  -1.14354  -1.13198  -1.12324
 Alpha  occ. eigenvalues --   -1.11701  -1.10354  -1.09955  -1.05287  -1.04623
 Alpha  occ. eigenvalues --   -1.02291  -1.01594  -0.98031  -0.97787  -0.96714
 Alpha  occ. eigenvalues --   -0.96062  -0.94565  -0.93961  -0.92827  -0.91448
 Alpha  occ. eigenvalues --   -0.91050  -0.90881  -0.90039  -0.89044  -0.88638
 Alpha  occ. eigenvalues --   -0.86454  -0.83899  -0.83331  -0.82802  -0.80872
 Alpha  occ. eigenvalues --   -0.80275  -0.79349  -0.77412  -0.76623  -0.76494
 Alpha  occ. eigenvalues --   -0.75432  -0.74804  -0.74449  -0.73836  -0.73669
 Alpha  occ. eigenvalues --   -0.72737  -0.72327  -0.71431  -0.70939  -0.70605
 Alpha  occ. eigenvalues --   -0.70321  -0.69373  -0.69049  -0.68403  -0.67824
 Alpha  occ. eigenvalues --   -0.67348  -0.67138  -0.66639  -0.66437  -0.65489
 Alpha  occ. eigenvalues --   -0.64912  -0.64577  -0.64497  -0.63388  -0.63247
 Alpha  occ. eigenvalues --   -0.62953  -0.62580  -0.62347  -0.61805  -0.61606
 Alpha  occ. eigenvalues --   -0.61592  -0.61315  -0.61159  -0.60396  -0.60203
 Alpha  occ. eigenvalues --   -0.59800  -0.58660  -0.58163  -0.57854  -0.57671
 Alpha  occ. eigenvalues --   -0.57244  -0.57045  -0.56840  -0.55859  -0.55798
 Alpha  occ. eigenvalues --   -0.55717  -0.55276  -0.54947  -0.54848  -0.54494
 Alpha  occ. eigenvalues --   -0.54162  -0.54023  -0.53826  -0.53522  -0.53242
 Alpha  occ. eigenvalues --   -0.52880  -0.52312  -0.52187  -0.51881  -0.51696
 Alpha  occ. eigenvalues --   -0.51307  -0.51199  -0.51039  -0.50934  -0.50630
 Alpha  occ. eigenvalues --   -0.50395  -0.50052  -0.49889  -0.49554  -0.49066
 Alpha  occ. eigenvalues --   -0.48923  -0.48875  -0.48309  -0.48292  -0.48007
 Alpha  occ. eigenvalues --   -0.47864  -0.47813  -0.47314  -0.46931  -0.46640
 Alpha  occ. eigenvalues --   -0.46549  -0.46227  -0.45804  -0.45712  -0.45456
 Alpha  occ. eigenvalues --   -0.45098  -0.44979  -0.44827  -0.44794  -0.44141
 Alpha  occ. eigenvalues --   -0.44052  -0.43819  -0.43334  -0.42872  -0.42411
 Alpha  occ. eigenvalues --   -0.41882  -0.41284  -0.40713  -0.39150  -0.39075
 Alpha  occ. eigenvalues --   -0.38617  -0.38056  -0.35878  -0.34963  -0.34600
 Alpha  occ. eigenvalues --   -0.33903  -0.33209  -0.32275  -0.32192  -0.27023
 Alpha  occ. eigenvalues --   -0.22583
 Alpha virt. eigenvalues --   -0.08909  -0.02869  -0.01038  -0.00393   0.00824
 Alpha virt. eigenvalues --    0.01405   0.01858   0.02146   0.04037   0.04848
 Alpha virt. eigenvalues --    0.05676   0.06037   0.06780   0.07064   0.07290

 Mulliken charges:
               1
     1  Mg   0.454220
     2  C   -0.012955
     3  C   -0.064842
     4  C   -0.103463
     5  C   -0.079459
     6  N   -0.295915
     7  C    0.080258
     8  C   -0.004265
     9  C    0.008497
    10  C    0.157696
    11  C   -0.050683
    12  C   -0.011671
    13  C    0.001299
    14  C    0.473607
    15  O   -0.512241
    16  O   -0.266669
    17  N   -0.361503
    18  C    0.127091
    19  C    0.076032
    20  C   -0.043640
    21  C    0.158070
    22  C   -0.029374
    23  C    0.317745
    24  O   -0.521814
    25  C   -0.029292
    26  N   -0.273502
    27  C    0.183918
    28  C   -0.007406
    29  C   -0.004348
    30  C    0.088452
    31  C   -0.060363
    32  C   -0.024206
    33  C   -0.061513
    34  N   -0.298764
    35  C    0.077781
    36  C    0.012043
    37  C   -0.059047
    38  C    0.075904
    39  C   -0.044626
    40  C    0.331641
    41  O   -0.505900
    42  C    0.050175
    43  C    0.490959
    44  O   -0.545498
    45  O   -0.272161
    46  C    0.074570
    47  C    0.110116
    48  C   -0.076070
    49  C   -0.008272
    50  C   -0.046355
    51  C   -0.019717
    52  C   -0.027572
    53  C   -0.034097
    54  C   -0.014443
    55  C   -0.071677
    56  C   -0.039271
    57  C   -0.040106
    58  C   -0.034725
    59  C   -0.019265
    60  C   -0.064948
    61  C   -0.039981
    62  C   -0.039518
    63  C   -0.040880
    64  C   -0.009226
    65  C   -0.057958
    66  C   -0.066162
    67  H    0.030493
    68  H    0.012243
    69  H    0.030527
    70  H    0.047088
    71  H    0.035136
    72  H    0.022655
    73  H    0.025975
    74  H    0.016981
    75  H    0.027442
    76  H    0.032326
    77  H    0.036972
    78  H    0.043944
    79  H    0.043285
    80  H    0.009763
    81  H    0.045690
    82  H    0.039093
    83  H    0.041720
    84  H    0.037030
    85  H    0.034380
    86  H    0.044939
    87  H    0.017952
    88  H    0.017900
    89  H    0.030436
    90  H    0.023642
    91  H    0.026713
    92  H    0.022090
    93  H    0.032246
    94  H    0.013930
    95  H    0.014381
    96  H    0.031746
    97  H    0.032959
    98  H    0.063873
    99  H    0.044037
   100  H    0.033129
   101  H    0.047031
   102  H    0.041387
   103  H    0.047021
   104  H    0.033070
   105  H    0.015735
   106  H    0.025131
   107  H    0.026644
   108  H    0.012757
   109  H    0.014740
   110  H    0.026366
   111  H    0.019551
   112  H    0.023187
   113  H    0.027210
   114  H    0.016772
   115  H    0.020380
   116  H    0.006979
   117  H    0.026932
   118  H    0.018968
   119  H    0.018107
   120  H    0.024156
   121  H    0.019178
   122  H    0.024703
   123  H    0.013902
   124  H    0.021580
   125  H    0.022853
   126  H    0.015730
   127  H    0.014061
   128  H    0.011994
   129  H    0.028522
   130  H    0.022153
   131  H    0.019444
   132  H    0.020829
   133  H    0.015926
   134  H    0.026783
   135  H    0.023980
   136  H    0.011197
   137  H    0.021371
   138  H    0.006455
   139  H    0.023123
   140  H    0.026661
 Sum of Mulliken charges =  -0.00000

 Dipole moment (field-independent basis, Debye):
    X=              4.7026    Y=              6.3162    Z=              0.6486  Tot=              7.9013
 N-N= 4.332735340371D+03 E-N= 0.000000000000D+00  KE=-9.338934301093D+03
 Leave Link  601 at Tue May  3 21:52:45 2022, MaxMem=  6710886400 cpu:               1.0 elap:               0.1
 (Enter /sw/apps/gaussian-16.0/g16/l9999.exe)
 1\1\GINC-BP1-COMPUTE062\SP\RZINDO CIS\STO-3G\C55H74Mg1N4O6\OF15641\03-
 May-2022\0\\#p ZINDO=(nstates=5)\\step_101_chromophore_5 ZINDO\\0,1\Mg
 ,0,24.029,-6.865,45.475\C,0,26.159,-4.664,43.864\C,0,21.414,-5.478,43.
 416\C,0,22.232,-9.735,45.824\C,0,26.778,-8.627,46.806\N,0,23.866,-5.18
 ,43.814\C,0,24.907,-4.301,43.484\C,0,24.472,-3.195,42.476\C,0,22.822,-
 3.32,42.692\C,0,22.656,-4.756,43.287\C,0,22.254,-2.167,43.575\C,0,24.9
 45,-3.453,40.982\C,0,25.499,-2.216,40.184\C,0,24.945,-1.893,38.791\O,0

 Normal termination of Gaussian 16 at Tue May  3 21:52:45 2022.
