 Gaussian 16, Revision A.03,
 Gaussian 16:  ES64L-G16RevA.03 25-Dec-2016

 ------------------------------
 #p blyp/Def2SVP td=(nstates=5)
 ------------------------------

 ---------------------------------------------------
 step_1751_chromophore_22 TDDFT with blyp functional
 ---------------------------------------------------
 Symbolic Z-matrix:
 Charge =  0 Multiplicity = 1

                         Standard orientation:
 ---------------------------------------------------------------------
 Center     Atomic      Atomic             Coordinates (Angstroms)
 Number     Number       Type             X           Y           Z
 ---------------------------------------------------------------------
      1         12           0        6.295031    0.574059   -0.033966
      2          6           0        4.045677   -2.141817   -0.291682
      3          6           0        3.588241    2.660469   -1.072897
      4          6           0        8.347291    3.062066    0.167557
      5          6           0        8.969806   -1.659384    0.149565
      6          7           0        4.046484    0.272508   -0.613007
      7          6           0        3.357787   -0.920707   -0.470952
      8          6           0        1.880550   -0.769764   -0.809537
      9          6           0        1.835675    0.668454   -1.227212
     10          6           0        3.251848    1.274124   -1.016169
     11          6           0        1.293096    0.887115   -2.620064
     12          6           0        0.870416   -1.212058    0.333998
     13          6           0       -0.476271   -0.540616    0.425458
     14          6           0       -1.694526   -1.409330    0.825825
     15          8           0       -1.769305   -2.202646    1.802037
     16          8           0       -2.748452   -1.176542   -0.073329
     17          7           0        6.054561    2.552832   -0.437418
     18          6           0        4.867949    3.218624   -0.855172
     19          6           0        5.184208    4.660697   -0.982170
     20          6           0        6.513898    4.828898   -0.384300
     21          6           0        7.033178    3.475742   -0.195652
     22          6           0        4.267547    5.769911   -1.466261
     23          6           0        7.345996    6.110327   -0.087920
     24          8           0        8.408032    6.006965    0.500299
     25          6           0        6.886422    7.409019   -0.499823
     26          7           0        8.357710    0.605905    0.116428
     27          6           0        8.998362    1.810956    0.185969
     28          6           0       10.500523    1.688193    0.245171
     29          6           0       10.735637    0.157871    0.422931
     30          6           0        9.314257   -0.350454    0.109210
     31          6           0       11.187737    2.226551   -1.059669
     32          6           0       11.212357   -0.442649    1.792407
     33          6           0       12.148654   -1.691973    1.720782
     34          7           0        6.553715   -1.462616   -0.073267
     35          6           0        7.695918   -2.225750    0.114423
     36          6           0        7.333604   -3.595077    0.281471
     37          6           0        5.914873   -3.647040    0.053052
     38          6           0        5.495143   -2.309249   -0.168192
     39          6           0        8.363270   -4.698814    0.546382
     40          6           0        4.755974   -4.503028    0.048415
     41          8           0        4.648358   -5.732659    0.222794
     42          6           0        3.483973   -3.564279   -0.153135
     43          6           0        2.648009   -3.764118    1.114935
     44          8           0        2.685096   -2.973348    2.099729
     45          8           0        1.686307   -4.794487    0.897345
     46          6           0        0.686886   -4.782458    1.959882
     47          6           0       -3.919714   -1.926571    0.241000
     48          6           0       -4.994474   -1.556361   -0.697590
     49          6           0       -6.264182   -1.966476   -0.889916
     50          6           0       -6.966175   -3.017470   -0.073704
     51          6           0       -7.058964   -1.219636   -1.956678
     52          6           0       -8.282281   -0.470579   -1.400776
     53          6           0       -9.544683   -0.616444   -2.363095
     54          6           0      -10.527997   -1.727720   -1.947157
     55          6           0      -10.189311   -2.994151   -2.619923
     56          6           0      -11.965327   -1.180152   -2.089812
     57          6           0      -12.439502   -0.519700   -0.823735
     58          6           0      -13.937708   -0.513580   -0.452031
     59          6           0      -14.574475    0.902958   -0.501393
     60          6           0      -15.416444    1.064730   -1.808699
     61          6           0      -15.409112    1.354122    0.753497
     62          6           0      -14.939958    2.686438    1.361987
     63          6           0      -14.004350    2.379582    2.526365
     64          6           0      -13.104342    3.559472    3.154763
     65          6           0      -11.938006    3.876848    2.278603
     66          6           0      -12.780984    3.337889    4.629352
     67          1           0        2.828488    3.427206   -1.234206
     68          1           0        9.089027    3.863555    0.170581
     69          1           0        9.761981   -2.403569    0.250565
     70          1           0        1.716501   -1.449267   -1.645750
     71          1           0        1.273691    1.282454   -0.523060
     72          1           0        0.237458    1.152918   -2.691355
     73          1           0        1.442529   -0.004407   -3.228613
     74          1           0        1.783040    1.770911   -3.028275
     75          1           0        1.381260   -0.831142    1.217569
     76          1           0        0.734665   -2.293843    0.352945
     77          1           0       -0.545134   -0.085576   -0.562293
     78          1           0       -0.457423    0.263521    1.160377
     79          1           0        4.709556    6.266022   -2.329560
     80          1           0        4.172282    6.478979   -0.643889
     81          1           0        3.256216    5.481215   -1.753229
     82          1           0        6.433382    7.251818   -1.478433
     83          1           0        7.812112    7.951571   -0.691318
     84          1           0        6.151507    7.810512    0.198307
     85          1           0       10.926972    2.255958    1.071878
     86          1           0       11.411188   -0.258755   -0.324013
     87          1           0       10.502768    2.352864   -1.897802
     88          1           0       12.013627    1.600330   -1.397896
     89          1           0       11.579635    3.203691   -0.776908
     90          1           0       10.335920   -0.827889    2.314156
     91          1           0       11.704065    0.257735    2.468849
     92          1           0       13.172189   -1.505529    2.045914
     93          1           0       12.277912   -1.952196    0.669810
     94          1           0       11.726611   -2.540854    2.258887
     95          1           0        8.992519   -4.369979    1.373767
     96          1           0        9.130600   -4.777312   -0.223379
     97          1           0        7.912244   -5.643388    0.851213
     98          1           0        2.794582   -3.769057   -0.971819
     99          1           0        1.083432   -5.225780    2.873272
    100          1           0       -0.162663   -5.368119    1.608966
    101          1           0        0.329044   -3.829998    2.352466
    102          1           0       -4.238549   -1.689823    1.255165
    103          1           0       -3.764209   -2.988154    0.047638
    104          1           0       -4.621441   -0.717589   -1.285753
    105          1           0       -7.852616   -2.617239    0.418387
    106          1           0       -6.246727   -3.376543    0.661590
    107          1           0       -7.414114   -3.761932   -0.731938
    108          1           0       -7.377196   -1.968962   -2.681292
    109          1           0       -6.407602   -0.432811   -2.336840
    110          1           0       -7.953200    0.567516   -1.452656
    111          1           0       -8.542492   -0.763790   -0.383855
    112          1           0       -9.261452   -0.807756   -3.397582
    113          1           0       -9.972087    0.385053   -2.313781
    114          1           0      -10.410787   -1.842321   -0.870467
    115          1           0       -9.775415   -3.695528   -1.895010
    116          1           0       -9.432104   -2.982798   -3.402731
    117          1           0      -11.038916   -3.507684   -3.069832
    118          1           0      -12.608124   -2.002819   -2.404194
    119          1           0      -12.070539   -0.472275   -2.912342
    120          1           0      -11.974210    0.459913   -0.711257
    121          1           0      -12.017528   -1.042203    0.034403
    122          1           0      -14.011032   -0.933544    0.551124
    123          1           0      -14.351209   -1.248626   -1.143347
    124          1           0      -13.770684    1.635171   -0.579357
    125          1           0      -14.906464    1.715546   -2.519756
    126          1           0      -16.385974    1.534356   -1.642775
    127          1           0      -15.669541    0.100112   -2.249103
    128          1           0      -15.331875    0.616465    1.552456
    129          1           0      -16.478748    1.397613    0.549287
    130          1           0      -15.788277    3.168892    1.848394
    131          1           0      -14.461048    3.404613    0.696673
    132          1           0      -13.453725    1.521060    2.140295
    133          1           0      -14.575858    2.057004    3.396409
    134          1           0      -13.625999    4.510535    3.054213
    135          1           0      -12.163452    3.734116    1.222067
    136          1           0      -11.044133    3.303023    2.521291
    137          1           0      -11.674113    4.930749    2.369519
    138          1           0      -11.795291    3.696833    4.924858
    139          1           0      -12.916771    2.269151    4.794049
    140          1           0      -13.552099    3.820795    5.229659
 ---------------------------------------------------------------------

 SCF Done:  E(RB-LYP) =  -3007.37868309     A.U. after   21 cycles

 Excitation energies and oscillator strengths:

 Excited State   1:      Singlet-A      1.7980 eV  689.56 nm  f=0.2371  <S**2>=0.000
     244 -> 247        0.25691
     245 -> 248       -0.18538
     246 -> 247        0.63516
     246 <- 247       -0.13470
 This state for optimization and/or second-order correction.
 Total Energy, E(TD-HF/TD-DFT) =  -3007.31260753
 Copying the excited state density for this state as the 1-particle RhoCI density.

 Excited State   2:      Singlet-A      1.8322 eV  676.70 nm  f=0.0576  <S**2>=0.000
     244 -> 247        0.63376
     245 -> 247        0.15388
     246 -> 247       -0.26129

 Excited State   3:      Singlet-A      1.9704 eV  629.22 nm  f=0.0654  <S**2>=0.000
     243 -> 247        0.35948
     244 -> 247       -0.16117
     245 -> 247        0.54869
     246 -> 248        0.18790

 Excited State   4:      Singlet-A      2.0701 eV  598.92 nm  f=0.0277  <S**2>=0.000
     243 -> 247        0.60441
     245 -> 247       -0.31561
     246 -> 248       -0.15042

 Excited State   5:      Singlet-A      2.2219 eV  558.00 nm  f=0.0000  <S**2>=0.000
     242 -> 247        0.70708

 The electronic state is 1-A.
 Alpha  occ. eigenvalues --  -46.26566 -18.83020 -18.82030 -18.78167 -18.76901
 Alpha  occ. eigenvalues --  -18.75649 -18.75143 -14.03255 -14.02855 -14.01284
 Alpha  occ. eigenvalues --  -14.00488 -10.05477 -10.04048  -9.99910  -9.99539
 Alpha  occ. eigenvalues --   -9.97529  -9.96945  -9.96598  -9.96515  -9.96416
 Alpha  occ. eigenvalues --   -9.96179  -9.95819  -9.95654  -9.94961  -9.94756
 Alpha  occ. eigenvalues --   -9.94735  -9.94238  -9.94075  -9.94072  -9.94070
 Alpha  occ. eigenvalues --   -9.94030  -9.93977  -9.93966  -9.93806  -9.93790
 Alpha  occ. eigenvalues --   -9.93602  -9.93188  -9.92894  -9.92748  -9.92448
 Alpha  occ. eigenvalues --   -9.92432  -9.92402  -9.92399  -9.92294  -9.92292
 Alpha  occ. eigenvalues --   -9.92113  -9.92102  -9.91867  -9.91768  -9.91679
 Alpha  occ. eigenvalues --   -9.91569  -9.91517  -9.91449  -9.91256  -9.91183
 Alpha  occ. eigenvalues --   -9.91135  -9.91108  -9.91083  -9.91039  -9.91029
 Alpha  occ. eigenvalues --   -9.90985  -9.90922  -9.90910  -9.90759  -9.90685
 Alpha  occ. eigenvalues --   -9.90355  -2.91322  -1.71738  -1.71241  -1.71006
 Alpha  occ. eigenvalues --   -0.97900  -0.95375  -0.92246  -0.89731  -0.89485
 Alpha  occ. eigenvalues --   -0.88183  -0.86693  -0.86084  -0.84906  -0.83999
 Alpha  occ. eigenvalues --   -0.74531  -0.73971  -0.73565  -0.72975  -0.72399
 Alpha  occ. eigenvalues --   -0.72085  -0.71706  -0.70926  -0.70855  -0.70219
 Alpha  occ. eigenvalues --   -0.69729  -0.69168  -0.68380  -0.67615  -0.67264
 Alpha  occ. eigenvalues --   -0.66987  -0.66393  -0.65542  -0.65076  -0.64644
 Alpha  occ. eigenvalues --   -0.64027  -0.62595  -0.62428  -0.61570  -0.60833
 Alpha  occ. eigenvalues --   -0.60606  -0.60209  -0.59973  -0.59639  -0.58580
 Alpha  occ. eigenvalues --   -0.58054  -0.57630  -0.56579  -0.55564  -0.54520
 Alpha  occ. eigenvalues --   -0.53824  -0.53332  -0.52478  -0.51813  -0.51594
 Alpha  occ. eigenvalues --   -0.51129  -0.50879  -0.50441  -0.50299  -0.49999
 Alpha  occ. eigenvalues --   -0.49749  -0.49702  -0.48758  -0.47826  -0.46661
 Alpha  occ. eigenvalues --   -0.46571  -0.45680  -0.45533  -0.44993  -0.44499
 Alpha  occ. eigenvalues --   -0.44333  -0.43455  -0.43030  -0.42957  -0.42469
 Alpha  occ. eigenvalues --   -0.42283  -0.42126  -0.41590  -0.41205  -0.41181
 Alpha  occ. eigenvalues --   -0.40852  -0.40766  -0.40633  -0.40516  -0.40067
 Alpha  occ. eigenvalues --   -0.39993  -0.39744  -0.39575  -0.39450  -0.39250
 Alpha  occ. eigenvalues --   -0.39199  -0.38972  -0.38865  -0.38517  -0.38394
 Alpha  occ. eigenvalues --   -0.38169  -0.37827  -0.37560  -0.37500  -0.37408
 Alpha  occ. eigenvalues --   -0.37269  -0.36991  -0.36580  -0.36480  -0.36228
 Alpha  occ. eigenvalues --   -0.36117  -0.35921  -0.35763  -0.35630  -0.35606
 Alpha  occ. eigenvalues --   -0.35389  -0.35275  -0.35230  -0.35031  -0.34821
 Alpha  occ. eigenvalues --   -0.34487  -0.34381  -0.34119  -0.33883  -0.33497
 Alpha  occ. eigenvalues --   -0.33470  -0.33241  -0.33093  -0.32987  -0.32804
 Alpha  occ. eigenvalues --   -0.32761  -0.32531  -0.32479  -0.32284  -0.32151
 Alpha  occ. eigenvalues --   -0.31983  -0.31914  -0.31658  -0.31604  -0.31379
 Alpha  occ. eigenvalues --   -0.31323  -0.31228  -0.30934  -0.30845  -0.30748
 Alpha  occ. eigenvalues --   -0.30443  -0.30305  -0.30260  -0.30070  -0.29949
 Alpha  occ. eigenvalues --   -0.29844  -0.29535  -0.29351  -0.29214  -0.29172
 Alpha  occ. eigenvalues --   -0.29160  -0.28657  -0.28446  -0.27920  -0.27619
 Alpha  occ. eigenvalues --   -0.27191  -0.27103  -0.27068  -0.26750  -0.26362
 Alpha  occ. eigenvalues --   -0.26217  -0.26010  -0.25909  -0.25597  -0.25449
 Alpha  occ. eigenvalues --   -0.25199  -0.24710  -0.24121  -0.24023  -0.23740
 Alpha  occ. eigenvalues --   -0.23360  -0.22644  -0.21810  -0.21461  -0.20463
 Alpha  occ. eigenvalues --   -0.20084  -0.19787  -0.19025  -0.18262  -0.17172
 Alpha  occ. eigenvalues --   -0.15917
 Alpha virt. eigenvalues --   -0.11621  -0.06802  -0.06460  -0.04814  -0.04495
 Alpha virt. eigenvalues --   -0.03521  -0.02209  -0.01112  -0.01045  -0.00197
 Alpha virt. eigenvalues --    0.00994   0.01666   0.02128   0.02380   0.02629

 Mulliken charges:
               1
     1  Mg   0.710110
     2  C    0.036382
     3  C   -0.076963
     4  C   -0.019247
     5  C   -0.095821
     6  N   -0.177003
     7  C   -0.079622
     8  C    0.012365
     9  C    0.005483
    10  C    0.030040
    11  C    0.140695
    12  C    0.115049
    13  C    0.139784
    14  C    0.112766
    15  O   -0.213635
    16  O   -0.267528
    17  N   -0.334102
    18  C    0.142130
    19  C   -0.155308
    20  C    0.018836
    21  C    0.096783
    22  C    0.153506
    23  C   -0.098476
    24  O   -0.166256
    25  C    0.174913
    26  N   -0.231856
    27  C    0.032254
    28  C    0.027669
    29  C    0.058518
    30  C    0.029658
    31  C    0.107814
    32  C    0.083133
    33  C    0.041188
    34  N   -0.280445
    35  C    0.126513
    36  C   -0.169505
    37  C    0.106836
    38  C    0.056401
    39  C    0.185529
    40  C   -0.035485
    41  O   -0.152667
    42  C    0.036413
    43  C    0.152696
    44  O   -0.215359
    45  O   -0.283262
    46  C    0.224454
    47  C    0.339297
    48  C   -0.175537
    49  C   -0.155274
    50  C    0.161518
    51  C    0.161588
    52  C    0.053524
    53  C    0.072336
    54  C   -0.051643
    55  C    0.135661
    56  C    0.143923
    57  C    0.017340
    58  C    0.146033
    59  C   -0.054783
    60  C    0.097727
    61  C    0.115823
    62  C    0.078177
    63  C    0.036317
    64  C   -0.065381
    65  C    0.095231
    66  C    0.127443
    67  H   -0.058639
    68  H   -0.043084
    69  H   -0.085483
    70  H   -0.026742
    71  H   -0.027554
    72  H   -0.009352
    73  H   -0.005905
    74  H   -0.021703
    75  H   -0.017109
    76  H    0.015370
    77  H   -0.016374
    78  H    0.008399
    79  H    0.017618
    80  H    0.007499
    81  H   -0.014667
    82  H   -0.020857
    83  H    0.000728
    84  H    0.031732
    85  H   -0.016934
    86  H   -0.031383
    87  H    0.003113
    88  H   -0.007466
    89  H    0.001721
    90  H   -0.009462
    91  H   -0.016323
    92  H   -0.006623
    93  H   -0.012446
    94  H    0.004769
    95  H   -0.021511
    96  H   -0.001859
    97  H    0.013107
    98  H   -0.002113
    99  H   -0.004231
   100  H    0.006144
   101  H    0.023274
   102  H    0.007463
   103  H    0.004980
   104  H   -0.035583
   105  H   -0.009982
   106  H   -0.006943
   107  H   -0.005471
   108  H   -0.021521
   109  H   -0.034620
   110  H   -0.033830
   111  H   -0.016962
   112  H   -0.031057
   113  H   -0.036866
   114  H   -0.043750
   115  H   -0.024302
   116  H   -0.017423
   117  H   -0.028802
   118  H   -0.054812
   119  H   -0.034540
   120  H   -0.035513
   121  H   -0.046203
   122  H   -0.037956
   123  H   -0.035332
   124  H   -0.027137
   125  H   -0.014264
   126  H   -0.025787
   127  H   -0.016888
   128  H   -0.043995
   129  H   -0.039573
   130  H   -0.043237
   131  H   -0.021844
   132  H   -0.027176
   133  H   -0.034132
   134  H   -0.044521
   135  H   -0.025102
   136  H   -0.025154
   137  H   -0.024997
   138  H   -0.014148
   139  H   -0.017413
   140  H   -0.015963
 Sum of Mulliken charges =  -0.00000

 Dipole moment (field-independent basis, Debye):
    X=             -1.8230    Y=              5.0668    Z=             -2.5397  Tot=              5.9537
 Quadrupole moment (field-independent basis, Debye-Ang):
   XX=           -358.3007   YY=           -424.4931   ZZ=           -409.5502
   XY=              9.7624   XZ=             -5.8021   YZ=             -4.1121

 Normal termination of Gaussian 16 at Thu Apr 28 22:41:46 2022.
