 Gaussian 16, Revision A.03,
 Gaussian 16:  ES64L-G16RevA.03 25-Dec-2016

 -----------------------------------
 #p cam-b3lyp/Def2SVP td=(nstates=5)
 -----------------------------------

 --------------------------------------------------------
 step_1751_chromophore_22 TDDFT with cam-b3lyp functional
 --------------------------------------------------------
 Symbolic Z-matrix:
 Charge =  0 Multiplicity = 1

                         Standard orientation:
 ---------------------------------------------------------------------
 Center     Atomic      Atomic             Coordinates (Angstroms)
 Number     Number       Type             X           Y           Z
 ---------------------------------------------------------------------
      1         12           0        6.295031    0.574059   -0.033966
      2          6           0        4.045677   -2.141817   -0.291682
      3          6           0        3.588241    2.660469   -1.072897
      4          6           0        8.347291    3.062066    0.167557
      5          6           0        8.969806   -1.659384    0.149565
      6          7           0        4.046484    0.272508   -0.613007
      7          6           0        3.357787   -0.920707   -0.470952
      8          6           0        1.880550   -0.769764   -0.809537
      9          6           0        1.835675    0.668454   -1.227212
     10          6           0        3.251848    1.274124   -1.016169
     11          6           0        1.293096    0.887115   -2.620064
     12          6           0        0.870416   -1.212058    0.333998
     13          6           0       -0.476271   -0.540616    0.425458
     14          6           0       -1.694526   -1.409330    0.825825
     15          8           0       -1.769305   -2.202646    1.802037
     16          8           0       -2.748452   -1.176542   -0.073329
     17          7           0        6.054561    2.552832   -0.437418
     18          6           0        4.867949    3.218624   -0.855172
     19          6           0        5.184208    4.660697   -0.982170
     20          6           0        6.513898    4.828898   -0.384300
     21          6           0        7.033178    3.475742   -0.195652
     22          6           0        4.267547    5.769911   -1.466261
     23          6           0        7.345996    6.110327   -0.087920
     24          8           0        8.408032    6.006965    0.500299
     25          6           0        6.886422    7.409019   -0.499823
     26          7           0        8.357710    0.605905    0.116428
     27          6           0        8.998362    1.810956    0.185969
     28          6           0       10.500523    1.688193    0.245171
     29          6           0       10.735637    0.157871    0.422931
     30          6           0        9.314257   -0.350454    0.109210
     31          6           0       11.187737    2.226551   -1.059669
     32          6           0       11.212357   -0.442649    1.792407
     33          6           0       12.148654   -1.691973    1.720782
     34          7           0        6.553715   -1.462616   -0.073267
     35          6           0        7.695918   -2.225750    0.114423
     36          6           0        7.333604   -3.595077    0.281471
     37          6           0        5.914873   -3.647040    0.053052
     38          6           0        5.495143   -2.309249   -0.168192
     39          6           0        8.363270   -4.698814    0.546382
     40          6           0        4.755974   -4.503028    0.048415
     41          8           0        4.648358   -5.732659    0.222794
     42          6           0        3.483973   -3.564279   -0.153135
     43          6           0        2.648009   -3.764118    1.114935
     44          8           0        2.685096   -2.973348    2.099729
     45          8           0        1.686307   -4.794487    0.897345
     46          6           0        0.686886   -4.782458    1.959882
     47          6           0       -3.919714   -1.926571    0.241000
     48          6           0       -4.994474   -1.556361   -0.697590
     49          6           0       -6.264182   -1.966476   -0.889916
     50          6           0       -6.966175   -3.017470   -0.073704
     51          6           0       -7.058964   -1.219636   -1.956678
     52          6           0       -8.282281   -0.470579   -1.400776
     53          6           0       -9.544683   -0.616444   -2.363095
     54          6           0      -10.527997   -1.727720   -1.947157
     55          6           0      -10.189311   -2.994151   -2.619923
     56          6           0      -11.965327   -1.180152   -2.089812
     57          6           0      -12.439502   -0.519700   -0.823735
     58          6           0      -13.937708   -0.513580   -0.452031
     59          6           0      -14.574475    0.902958   -0.501393
     60          6           0      -15.416444    1.064730   -1.808699
     61          6           0      -15.409112    1.354122    0.753497
     62          6           0      -14.939958    2.686438    1.361987
     63          6           0      -14.004350    2.379582    2.526365
     64          6           0      -13.104342    3.559472    3.154763
     65          6           0      -11.938006    3.876848    2.278603
     66          6           0      -12.780984    3.337889    4.629352
     67          1           0        2.828488    3.427206   -1.234206
     68          1           0        9.089027    3.863555    0.170581
     69          1           0        9.761981   -2.403569    0.250565
     70          1           0        1.716501   -1.449267   -1.645750
     71          1           0        1.273691    1.282454   -0.523060
     72          1           0        0.237458    1.152918   -2.691355
     73          1           0        1.442529   -0.004407   -3.228613
     74          1           0        1.783040    1.770911   -3.028275
     75          1           0        1.381260   -0.831142    1.217569
     76          1           0        0.734665   -2.293843    0.352945
     77          1           0       -0.545134   -0.085576   -0.562293
     78          1           0       -0.457423    0.263521    1.160377
     79          1           0        4.709556    6.266022   -2.329560
     80          1           0        4.172282    6.478979   -0.643889
     81          1           0        3.256216    5.481215   -1.753229
     82          1           0        6.433382    7.251818   -1.478433
     83          1           0        7.812112    7.951571   -0.691318
     84          1           0        6.151507    7.810512    0.198307
     85          1           0       10.926972    2.255958    1.071878
     86          1           0       11.411188   -0.258755   -0.324013
     87          1           0       10.502768    2.352864   -1.897802
     88          1           0       12.013627    1.600330   -1.397896
     89          1           0       11.579635    3.203691   -0.776908
     90          1           0       10.335920   -0.827889    2.314156
     91          1           0       11.704065    0.257735    2.468849
     92          1           0       13.172189   -1.505529    2.045914
     93          1           0       12.277912   -1.952196    0.669810
     94          1           0       11.726611   -2.540854    2.258887
     95          1           0        8.992519   -4.369979    1.373767
     96          1           0        9.130600   -4.777312   -0.223379
     97          1           0        7.912244   -5.643388    0.851213
     98          1           0        2.794582   -3.769057   -0.971819
     99          1           0        1.083432   -5.225780    2.873272
    100          1           0       -0.162663   -5.368119    1.608966
    101          1           0        0.329044   -3.829998    2.352466
    102          1           0       -4.238549   -1.689823    1.255165
    103          1           0       -3.764209   -2.988154    0.047638
    104          1           0       -4.621441   -0.717589   -1.285753
    105          1           0       -7.852616   -2.617239    0.418387
    106          1           0       -6.246727   -3.376543    0.661590
    107          1           0       -7.414114   -3.761932   -0.731938
    108          1           0       -7.377196   -1.968962   -2.681292
    109          1           0       -6.407602   -0.432811   -2.336840
    110          1           0       -7.953200    0.567516   -1.452656
    111          1           0       -8.542492   -0.763790   -0.383855
    112          1           0       -9.261452   -0.807756   -3.397582
    113          1           0       -9.972087    0.385053   -2.313781
    114          1           0      -10.410787   -1.842321   -0.870467
    115          1           0       -9.775415   -3.695528   -1.895010
    116          1           0       -9.432104   -2.982798   -3.402731
    117          1           0      -11.038916   -3.507684   -3.069832
    118          1           0      -12.608124   -2.002819   -2.404194
    119          1           0      -12.070539   -0.472275   -2.912342
    120          1           0      -11.974210    0.459913   -0.711257
    121          1           0      -12.017528   -1.042203    0.034403
    122          1           0      -14.011032   -0.933544    0.551124
    123          1           0      -14.351209   -1.248626   -1.143347
    124          1           0      -13.770684    1.635171   -0.579357
    125          1           0      -14.906464    1.715546   -2.519756
    126          1           0      -16.385974    1.534356   -1.642775
    127          1           0      -15.669541    0.100112   -2.249103
    128          1           0      -15.331875    0.616465    1.552456
    129          1           0      -16.478748    1.397613    0.549287
    130          1           0      -15.788277    3.168892    1.848394
    131          1           0      -14.461048    3.404613    0.696673
    132          1           0      -13.453725    1.521060    2.140295
    133          1           0      -14.575858    2.057004    3.396409
    134          1           0      -13.625999    4.510535    3.054213
    135          1           0      -12.163452    3.734116    1.222067
    136          1           0      -11.044133    3.303023    2.521291
    137          1           0      -11.674113    4.930749    2.369519
    138          1           0      -11.795291    3.696833    4.924858
    139          1           0      -12.916771    2.269151    4.794049
    140          1           0      -13.552099    3.820795    5.229659
 ---------------------------------------------------------------------

 SCF Done:  E(RCAM-B3LYP) =  -3007.16626719     A.U. after   18 cycles

 Excitation energies and oscillator strengths:

 Excited State   1:      Singlet-A      1.7217 eV  720.11 nm  f=0.3707  <S**2>=0.000
     245 -> 248       -0.18185
     246 -> 247        0.68437
     245 <- 248       -0.10773
 This state for optimization and/or second-order correction.
 Total Energy, E(TD-HF/TD-DFT) =  -3007.10299436
 Copying the excited state density for this state as the 1-particle RhoCI density.

 Excited State   2:      Singlet-A      2.2097 eV  561.08 nm  f=0.1332  <S**2>=0.000
     245 -> 247        0.64506
     246 -> 248        0.27448

 Excited State   3:      Singlet-A      3.3016 eV  375.53 nm  f=0.0024  <S**2>=0.000
     241 -> 247       -0.23506
     242 -> 247        0.35426
     244 -> 247        0.54560

 Excited State   4:      Singlet-A      3.4232 eV  362.19 nm  f=0.0102  <S**2>=0.000
     240 -> 247        0.12100
     241 -> 247        0.49721
     242 -> 247       -0.17810
     242 -> 249        0.11126
     244 -> 247        0.32578
     246 -> 248       -0.23893

 Excited State   5:      Singlet-A      3.4738 eV  356.92 nm  f=0.0016  <S**2>=0.000
     240 -> 247       -0.11418
     241 -> 247        0.24416
     241 -> 249        0.20616
     241 -> 250        0.14198
     242 -> 247        0.45826
     242 -> 249        0.18984
     242 -> 250        0.13127
     244 -> 247       -0.25040

 The electronic state is 1-A.
 Alpha  occ. eigenvalues --  -46.88059 -19.25908 -19.24874 -19.21214 -19.19954
 Alpha  occ. eigenvalues --  -19.19247 -19.18047 -14.42281 -14.41629 -14.39940
 Alpha  occ. eigenvalues --  -14.38685 -10.41018 -10.39653 -10.35443 -10.34712
 Alpha  occ. eigenvalues --  -10.31785 -10.31450 -10.31431 -10.31136 -10.31051
 Alpha  occ. eigenvalues --  -10.30918 -10.30249 -10.29666 -10.29644 -10.28778
 Alpha  occ. eigenvalues --  -10.28600 -10.28452 -10.28415 -10.28274 -10.28261
 Alpha  occ. eigenvalues --  -10.28146 -10.28105 -10.28052 -10.28004 -10.27913
 Alpha  occ. eigenvalues --  -10.27859 -10.27551 -10.26717 -10.26576 -10.26543
 Alpha  occ. eigenvalues --  -10.26483 -10.26247 -10.26113 -10.26093 -10.25954
 Alpha  occ. eigenvalues --  -10.25852 -10.25711 -10.25655 -10.25535 -10.25394
 Alpha  occ. eigenvalues --  -10.25236 -10.25222 -10.25168 -10.25008 -10.24968
 Alpha  occ. eigenvalues --  -10.24855 -10.24829 -10.24787 -10.24747 -10.24716
 Alpha  occ. eigenvalues --  -10.24607 -10.24505 -10.24483 -10.24386 -10.24277
 Alpha  occ. eigenvalues --  -10.23940  -3.16724  -1.91613  -1.91209  -1.91009
 Alpha  occ. eigenvalues --   -1.16295  -1.13706  -1.11053  -1.07623  -1.07568
 Alpha  occ. eigenvalues --   -1.05994  -1.04351  -1.03886  -1.02222  -1.01746
 Alpha  occ. eigenvalues --   -0.91518  -0.90868  -0.90453  -0.89790  -0.89140
 Alpha  occ. eigenvalues --   -0.88751  -0.88398  -0.87594  -0.87438  -0.87103
 Alpha  occ. eigenvalues --   -0.86295  -0.85370  -0.84672  -0.83973  -0.83413
 Alpha  occ. eigenvalues --   -0.83251  -0.82550  -0.81491  -0.80993  -0.80437
 Alpha  occ. eigenvalues --   -0.79749  -0.78650  -0.78033  -0.76961  -0.76228
 Alpha  occ. eigenvalues --   -0.76020  -0.75521  -0.75293  -0.74854  -0.73792
 Alpha  occ. eigenvalues --   -0.73119  -0.72589  -0.71521  -0.70417  -0.69022
 Alpha  occ. eigenvalues --   -0.68368  -0.67852  -0.66876  -0.66177  -0.65733
 Alpha  occ. eigenvalues --   -0.65394  -0.65062  -0.64592  -0.64194  -0.64028
 Alpha  occ. eigenvalues --   -0.63740  -0.63629  -0.62700  -0.61451  -0.60499
 Alpha  occ. eigenvalues --   -0.60263  -0.59128  -0.58979  -0.58408  -0.57779
 Alpha  occ. eigenvalues --   -0.57605  -0.56718  -0.56538  -0.56415  -0.55634
 Alpha  occ. eigenvalues --   -0.55275  -0.54994  -0.54829  -0.54280  -0.54007
 Alpha  occ. eigenvalues --   -0.53652  -0.53575  -0.53375  -0.53207  -0.52826
 Alpha  occ. eigenvalues --   -0.52739  -0.52545  -0.52358  -0.51962  -0.51908
 Alpha  occ. eigenvalues --   -0.51513  -0.51467  -0.51323  -0.51108  -0.50840
 Alpha  occ. eigenvalues --   -0.50705  -0.50250  -0.50201  -0.49964  -0.49794
 Alpha  occ. eigenvalues --   -0.49694  -0.49400  -0.49117  -0.48674  -0.48552
 Alpha  occ. eigenvalues --   -0.48278  -0.48042  -0.47996  -0.47835  -0.47658
 Alpha  occ. eigenvalues --   -0.47586  -0.47516  -0.47105  -0.47090  -0.46910
 Alpha  occ. eigenvalues --   -0.46561  -0.46383  -0.46007  -0.45666  -0.45513
 Alpha  occ. eigenvalues --   -0.45170  -0.45041  -0.44677  -0.44608  -0.44570
 Alpha  occ. eigenvalues --   -0.44379  -0.44107  -0.44044  -0.43867  -0.43730
 Alpha  occ. eigenvalues --   -0.43588  -0.43519  -0.43381  -0.43156  -0.43013
 Alpha  occ. eigenvalues --   -0.42687  -0.42650  -0.42477  -0.42384  -0.42199
 Alpha  occ. eigenvalues --   -0.42140  -0.42100  -0.41597  -0.41484  -0.41299
 Alpha  occ. eigenvalues --   -0.40977  -0.40852  -0.40759  -0.40454  -0.40226
 Alpha  occ. eigenvalues --   -0.40051  -0.39651  -0.39457  -0.39074  -0.38530
 Alpha  occ. eigenvalues --   -0.38208  -0.37989  -0.37926  -0.37852  -0.37559
 Alpha  occ. eigenvalues --   -0.37034  -0.36789  -0.36769  -0.36412  -0.36292
 Alpha  occ. eigenvalues --   -0.35762  -0.35485  -0.35232  -0.34841  -0.34415
 Alpha  occ. eigenvalues --   -0.34384  -0.33688  -0.32996  -0.31776  -0.30958
 Alpha  occ. eigenvalues --   -0.30162  -0.30026  -0.29333  -0.29014  -0.23939
 Alpha  occ. eigenvalues --   -0.21296
 Alpha virt. eigenvalues --   -0.08789  -0.01650  -0.00004   0.02069   0.03024
 Alpha virt. eigenvalues --    0.03378   0.04269   0.06053   0.06365   0.06424
 Alpha virt. eigenvalues --    0.07716   0.08232   0.08365   0.08762   0.08826

 Mulliken charges:
               1
     1  Mg   0.843090
     2  C    0.019437
     3  C   -0.089922
     4  C   -0.042975
     5  C   -0.104137
     6  N   -0.243152
     7  C   -0.039758
     8  C   -0.033478
     9  C   -0.062786
    10  C    0.056235
    11  C    0.082456
    12  C    0.061750
    13  C    0.074669
    14  C    0.194270
    15  O   -0.255294
    16  O   -0.333050
    17  N   -0.424501
    18  C    0.157613
    19  C   -0.158698
    20  C   -0.047865
    21  C    0.127419
    22  C    0.093649
    23  C   -0.012726
    24  O   -0.203552
    25  C    0.085588
    26  N   -0.306202
    27  C    0.057221
    28  C   -0.035287
    29  C    0.006895
    30  C    0.048310
    31  C    0.054144
    32  C    0.025724
    33  C   -0.019412
    34  N   -0.368228
    35  C    0.125667
    36  C   -0.163261
    37  C    0.021708
    38  C    0.089253
    39  C    0.131527
    40  C    0.057121
    41  O   -0.193348
    42  C   -0.033426
    43  C    0.235124
    44  O   -0.251050
    45  O   -0.344774
    46  C    0.179140
    47  C    0.304791
    48  C   -0.196118
    49  C   -0.176108
    50  C    0.105790
    51  C    0.106655
    52  C   -0.003241
    53  C    0.021715
    54  C   -0.111298
    55  C    0.073272
    56  C    0.087944
    57  C   -0.031984
    58  C    0.091440
    59  C   -0.113746
    60  C    0.043433
    61  C    0.059288
    62  C    0.022756
    63  C   -0.012257
    64  C   -0.123255
    65  C    0.039674
    66  C    0.061732
    67  H   -0.022663
    68  H   -0.006437
    69  H   -0.049055
    70  H    0.008715
    71  H    0.007601
    72  H    0.016432
    73  H    0.020356
    74  H    0.004456
    75  H    0.017496
    76  H    0.039783
    77  H    0.017059
    78  H    0.039456
    79  H    0.044594
    80  H    0.034123
    81  H    0.015601
    82  H    0.007664
    83  H    0.036849
    84  H    0.060372
    85  H    0.019574
    86  H    0.003783
    87  H    0.028138
    88  H    0.017749
    89  H    0.024537
    90  H    0.021508
    91  H    0.011437
    92  H    0.017707
    93  H    0.008134
    94  H    0.027006
    95  H    0.001487
    96  H    0.022493
    97  H    0.040019
    98  H    0.039962
    99  H    0.020933
   100  H    0.030698
   101  H    0.046370
   102  H    0.035332
   103  H    0.031489
   104  H   -0.000860
   105  H    0.013025
   106  H    0.016724
   107  H    0.017300
   108  H    0.004092
   109  H   -0.003345
   110  H   -0.003131
   111  H    0.008272
   112  H   -0.002629
   113  H   -0.007132
   114  H   -0.012468
   115  H   -0.001051
   116  H    0.006554
   117  H   -0.001197
   118  H   -0.024570
   119  H   -0.006316
   120  H   -0.009812
   121  H   -0.016704
   122  H   -0.007703
   123  H   -0.006956
   124  H    0.002503
   125  H    0.009069
   126  H   -0.001250
   127  H    0.006105
   128  H   -0.013824
   129  H   -0.008787
   130  H   -0.012276
   131  H    0.003475
   132  H   -0.003770
   133  H   -0.006254
   134  H   -0.012417
   135  H   -0.003092
   136  H   -0.000921
   137  H   -0.000275
   138  H    0.011522
   139  H    0.007039
   140  H    0.008690
 Sum of Mulliken charges =  -0.00000

 Dipole moment (field-independent basis, Debye):
    X=             -1.9966    Y=              6.5622    Z=             -2.8793  Tot=              7.4390
 Quadrupole moment (field-independent basis, Debye-Ang):
   XX=           -358.9856   YY=           -419.7490   ZZ=           -409.7310
   XY=             17.5678   XZ=             -7.0557   YZ=             -5.3374

 Normal termination of Gaussian 16 at Thu Apr 28 21:46:05 2022.
