 Gaussian 16, Revision A.03,
 Gaussian 16:  ES64L-G16RevA.03 25-Dec-2016

 ---------------------------------
 #p PBE1PBE/Def2SVP td=(nstates=5)
 ---------------------------------

 ------------------------------------------------------
 step_1751_chromophore_22 TDDFT with PBE1PBE functional
 ------------------------------------------------------
 Symbolic Z-matrix:
 Charge =  0 Multiplicity = 1

                         Standard orientation:
 ---------------------------------------------------------------------
 Center     Atomic      Atomic             Coordinates (Angstroms)
 Number     Number       Type             X           Y           Z
 ---------------------------------------------------------------------
      1         12           0        6.295031    0.574059   -0.033966
      2          6           0        4.045677   -2.141817   -0.291682
      3          6           0        3.588241    2.660469   -1.072897
      4          6           0        8.347291    3.062066    0.167557
      5          6           0        8.969806   -1.659384    0.149565
      6          7           0        4.046484    0.272508   -0.613007
      7          6           0        3.357787   -0.920707   -0.470952
      8          6           0        1.880550   -0.769764   -0.809537
      9          6           0        1.835675    0.668454   -1.227212
     10          6           0        3.251848    1.274124   -1.016169
     11          6           0        1.293096    0.887115   -2.620064
     12          6           0        0.870416   -1.212058    0.333998
     13          6           0       -0.476271   -0.540616    0.425458
     14          6           0       -1.694526   -1.409330    0.825825
     15          8           0       -1.769305   -2.202646    1.802037
     16          8           0       -2.748452   -1.176542   -0.073329
     17          7           0        6.054561    2.552832   -0.437418
     18          6           0        4.867949    3.218624   -0.855172
     19          6           0        5.184208    4.660697   -0.982170
     20          6           0        6.513898    4.828898   -0.384300
     21          6           0        7.033178    3.475742   -0.195652
     22          6           0        4.267547    5.769911   -1.466261
     23          6           0        7.345996    6.110327   -0.087920
     24          8           0        8.408032    6.006965    0.500299
     25          6           0        6.886422    7.409019   -0.499823
     26          7           0        8.357710    0.605905    0.116428
     27          6           0        8.998362    1.810956    0.185969
     28          6           0       10.500523    1.688193    0.245171
     29          6           0       10.735637    0.157871    0.422931
     30          6           0        9.314257   -0.350454    0.109210
     31          6           0       11.187737    2.226551   -1.059669
     32          6           0       11.212357   -0.442649    1.792407
     33          6           0       12.148654   -1.691973    1.720782
     34          7           0        6.553715   -1.462616   -0.073267
     35          6           0        7.695918   -2.225750    0.114423
     36          6           0        7.333604   -3.595077    0.281471
     37          6           0        5.914873   -3.647040    0.053052
     38          6           0        5.495143   -2.309249   -0.168192
     39          6           0        8.363270   -4.698814    0.546382
     40          6           0        4.755974   -4.503028    0.048415
     41          8           0        4.648358   -5.732659    0.222794
     42          6           0        3.483973   -3.564279   -0.153135
     43          6           0        2.648009   -3.764118    1.114935
     44          8           0        2.685096   -2.973348    2.099729
     45          8           0        1.686307   -4.794487    0.897345
     46          6           0        0.686886   -4.782458    1.959882
     47          6           0       -3.919714   -1.926571    0.241000
     48          6           0       -4.994474   -1.556361   -0.697590
     49          6           0       -6.264182   -1.966476   -0.889916
     50          6           0       -6.966175   -3.017470   -0.073704
     51          6           0       -7.058964   -1.219636   -1.956678
     52          6           0       -8.282281   -0.470579   -1.400776
     53          6           0       -9.544683   -0.616444   -2.363095
     54          6           0      -10.527997   -1.727720   -1.947157
     55          6           0      -10.189311   -2.994151   -2.619923
     56          6           0      -11.965327   -1.180152   -2.089812
     57          6           0      -12.439502   -0.519700   -0.823735
     58          6           0      -13.937708   -0.513580   -0.452031
     59          6           0      -14.574475    0.902958   -0.501393
     60          6           0      -15.416444    1.064730   -1.808699
     61          6           0      -15.409112    1.354122    0.753497
     62          6           0      -14.939958    2.686438    1.361987
     63          6           0      -14.004350    2.379582    2.526365
     64          6           0      -13.104342    3.559472    3.154763
     65          6           0      -11.938006    3.876848    2.278603
     66          6           0      -12.780984    3.337889    4.629352
     67          1           0        2.828488    3.427206   -1.234206
     68          1           0        9.089027    3.863555    0.170581
     69          1           0        9.761981   -2.403569    0.250565
     70          1           0        1.716501   -1.449267   -1.645750
     71          1           0        1.273691    1.282454   -0.523060
     72          1           0        0.237458    1.152918   -2.691355
     73          1           0        1.442529   -0.004407   -3.228613
     74          1           0        1.783040    1.770911   -3.028275
     75          1           0        1.381260   -0.831142    1.217569
     76          1           0        0.734665   -2.293843    0.352945
     77          1           0       -0.545134   -0.085576   -0.562293
     78          1           0       -0.457423    0.263521    1.160377
     79          1           0        4.709556    6.266022   -2.329560
     80          1           0        4.172282    6.478979   -0.643889
     81          1           0        3.256216    5.481215   -1.753229
     82          1           0        6.433382    7.251818   -1.478433
     83          1           0        7.812112    7.951571   -0.691318
     84          1           0        6.151507    7.810512    0.198307
     85          1           0       10.926972    2.255958    1.071878
     86          1           0       11.411188   -0.258755   -0.324013
     87          1           0       10.502768    2.352864   -1.897802
     88          1           0       12.013627    1.600330   -1.397896
     89          1           0       11.579635    3.203691   -0.776908
     90          1           0       10.335920   -0.827889    2.314156
     91          1           0       11.704065    0.257735    2.468849
     92          1           0       13.172189   -1.505529    2.045914
     93          1           0       12.277912   -1.952196    0.669810
     94          1           0       11.726611   -2.540854    2.258887
     95          1           0        8.992519   -4.369979    1.373767
     96          1           0        9.130600   -4.777312   -0.223379
     97          1           0        7.912244   -5.643388    0.851213
     98          1           0        2.794582   -3.769057   -0.971819
     99          1           0        1.083432   -5.225780    2.873272
    100          1           0       -0.162663   -5.368119    1.608966
    101          1           0        0.329044   -3.829998    2.352466
    102          1           0       -4.238549   -1.689823    1.255165
    103          1           0       -3.764209   -2.988154    0.047638
    104          1           0       -4.621441   -0.717589   -1.285753
    105          1           0       -7.852616   -2.617239    0.418387
    106          1           0       -6.246727   -3.376543    0.661590
    107          1           0       -7.414114   -3.761932   -0.731938
    108          1           0       -7.377196   -1.968962   -2.681292
    109          1           0       -6.407602   -0.432811   -2.336840
    110          1           0       -7.953200    0.567516   -1.452656
    111          1           0       -8.542492   -0.763790   -0.383855
    112          1           0       -9.261452   -0.807756   -3.397582
    113          1           0       -9.972087    0.385053   -2.313781
    114          1           0      -10.410787   -1.842321   -0.870467
    115          1           0       -9.775415   -3.695528   -1.895010
    116          1           0       -9.432104   -2.982798   -3.402731
    117          1           0      -11.038916   -3.507684   -3.069832
    118          1           0      -12.608124   -2.002819   -2.404194
    119          1           0      -12.070539   -0.472275   -2.912342
    120          1           0      -11.974210    0.459913   -0.711257
    121          1           0      -12.017528   -1.042203    0.034403
    122          1           0      -14.011032   -0.933544    0.551124
    123          1           0      -14.351209   -1.248626   -1.143347
    124          1           0      -13.770684    1.635171   -0.579357
    125          1           0      -14.906464    1.715546   -2.519756
    126          1           0      -16.385974    1.534356   -1.642775
    127          1           0      -15.669541    0.100112   -2.249103
    128          1           0      -15.331875    0.616465    1.552456
    129          1           0      -16.478748    1.397613    0.549287
    130          1           0      -15.788277    3.168892    1.848394
    131          1           0      -14.461048    3.404613    0.696673
    132          1           0      -13.453725    1.521060    2.140295
    133          1           0      -14.575858    2.057004    3.396409
    134          1           0      -13.625999    4.510535    3.054213
    135          1           0      -12.163452    3.734116    1.222067
    136          1           0      -11.044133    3.303023    2.521291
    137          1           0      -11.674113    4.930749    2.369519
    138          1           0      -11.795291    3.696833    4.924858
    139          1           0      -12.916771    2.269151    4.794049
    140          1           0      -13.552099    3.820795    5.229659
 ---------------------------------------------------------------------

 SCF Done:  E(RPBE1PBE) =  -3005.35558680     A.U. after   15 cycles

 Excitation energies and oscillator strengths:

 Excited State   1:      Singlet-A      1.8582 eV  667.24 nm  f=0.3566  <S**2>=0.000
     245 -> 248       -0.17967
     246 -> 247        0.69108
     246 <- 247       -0.10475
 This state for optimization and/or second-order correction.
 Total Energy, E(TD-HF/TD-DFT) =  -3005.28730082
 Copying the excited state density for this state as the 1-particle RhoCI density.

 Excited State   2:      Singlet-A      2.2101 eV  561.00 nm  f=0.1277  <S**2>=0.000
     245 -> 247        0.65606
     246 -> 248        0.25108

 Excited State   3:      Singlet-A      2.8952 eV  428.24 nm  f=0.0010  <S**2>=0.000
     242 -> 247        0.48296
     242 -> 249        0.14211
     243 -> 247        0.47671

 Excited State   4:      Singlet-A      2.9847 eV  415.39 nm  f=0.0018  <S**2>=0.000
     241 -> 247       -0.21526
     242 -> 247       -0.45160
     243 -> 247        0.48239

 Excited State   5:      Singlet-A      3.0984 eV  400.15 nm  f=0.0098  <S**2>=0.000
     240 -> 247       -0.23885
     241 -> 247        0.62255
     242 -> 247       -0.12080
     243 -> 247        0.15024

 The electronic state is 1-A.
 Alpha  occ. eigenvalues --  -46.91491 -19.26621 -19.25614 -19.21522 -19.20287
 Alpha  occ. eigenvalues --  -19.19250 -19.18513 -14.41709 -14.41220 -14.39515
 Alpha  occ. eigenvalues --  -14.38520 -10.38102 -10.36808 -10.32340 -10.32053
 Alpha  occ. eigenvalues --  -10.29304 -10.28853 -10.28827 -10.28818 -10.28690
 Alpha  occ. eigenvalues --  -10.28453 -10.27622 -10.27593 -10.26945 -10.26762
 Alpha  occ. eigenvalues --  -10.26503 -10.26320 -10.26271 -10.25923 -10.25804
 Alpha  occ. eigenvalues --  -10.25792 -10.25726 -10.25630 -10.25600 -10.25588
 Alpha  occ. eigenvalues --  -10.25531 -10.25473 -10.24345 -10.24235 -10.24210
 Alpha  occ. eigenvalues --  -10.23669 -10.23632 -10.23627 -10.23590 -10.23579
 Alpha  occ. eigenvalues --  -10.23472 -10.23389 -10.23324 -10.23202 -10.23026
 Alpha  occ. eigenvalues --  -10.23008 -10.22928 -10.22806 -10.22723 -10.22547
 Alpha  occ. eigenvalues --  -10.22433 -10.22432 -10.22378 -10.22298 -10.22242
 Alpha  occ. eigenvalues --  -10.22160 -10.21934 -10.21865 -10.21863 -10.21677
 Alpha  occ. eigenvalues --  -10.21278  -3.13731  -1.86561  -1.86135  -1.85940
 Alpha  occ. eigenvalues --   -1.11126  -1.08520  -1.05576  -1.02495  -1.02477
 Alpha  occ. eigenvalues --   -1.00866  -0.99015  -0.98446  -0.97066  -0.96251
 Alpha  occ. eigenvalues --   -0.85963  -0.84994  -0.84654  -0.83924  -0.83245
 Alpha  occ. eigenvalues --   -0.83042  -0.82706  -0.81875  -0.81549  -0.81185
 Alpha  occ. eigenvalues --   -0.80493  -0.79894  -0.78836  -0.78108  -0.77629
 Alpha  occ. eigenvalues --   -0.77494  -0.76863  -0.75750  -0.75267  -0.74639
 Alpha  occ. eigenvalues --   -0.74133  -0.72759  -0.72363  -0.71326  -0.70387
 Alpha  occ. eigenvalues --   -0.70091  -0.69868  -0.69482  -0.69233  -0.67957
 Alpha  occ. eigenvalues --   -0.67461  -0.67073  -0.65912  -0.64731  -0.63441
 Alpha  occ. eigenvalues --   -0.62902  -0.62125  -0.61254  -0.60504  -0.60168
 Alpha  occ. eigenvalues --   -0.59731  -0.59317  -0.59117  -0.58814  -0.58163
 Alpha  occ. eigenvalues --   -0.58086  -0.57884  -0.56854  -0.56090  -0.54911
 Alpha  occ. eigenvalues --   -0.54653  -0.53744  -0.53535  -0.53032  -0.52508
 Alpha  occ. eigenvalues --   -0.51994  -0.51175  -0.50988  -0.50921  -0.50208
 Alpha  occ. eigenvalues --   -0.49801  -0.49588  -0.49397  -0.48525  -0.48429
 Alpha  occ. eigenvalues --   -0.48215  -0.48008  -0.47906  -0.47665  -0.47461
 Alpha  occ. eigenvalues --   -0.47308  -0.47131  -0.46901  -0.46503  -0.46368
 Alpha  occ. eigenvalues --   -0.46160  -0.46075  -0.45810  -0.45514  -0.45418
 Alpha  occ. eigenvalues --   -0.45265  -0.44909  -0.44817  -0.44531  -0.44431
 Alpha  occ. eigenvalues --   -0.44199  -0.43947  -0.43649  -0.43299  -0.43193
 Alpha  occ. eigenvalues --   -0.42858  -0.42742  -0.42669  -0.42440  -0.42315
 Alpha  occ. eigenvalues --   -0.42161  -0.42077  -0.41733  -0.41676  -0.41559
 Alpha  occ. eigenvalues --   -0.41236  -0.41154  -0.40796  -0.40510  -0.40271
 Alpha  occ. eigenvalues --   -0.39831  -0.39695  -0.39487  -0.39393  -0.39389
 Alpha  occ. eigenvalues --   -0.39221  -0.38894  -0.38795  -0.38545  -0.38416
 Alpha  occ. eigenvalues --   -0.38386  -0.38274  -0.38181  -0.37961  -0.37757
 Alpha  occ. eigenvalues --   -0.37655  -0.37347  -0.37324  -0.37200  -0.36960
 Alpha  occ. eigenvalues --   -0.36922  -0.36887  -0.36436  -0.36305  -0.36191
 Alpha  occ. eigenvalues --   -0.35950  -0.35750  -0.35532  -0.35390  -0.35016
 Alpha  occ. eigenvalues --   -0.34997  -0.34405  -0.34220  -0.33985  -0.33327
 Alpha  occ. eigenvalues --   -0.33155  -0.32880  -0.32769  -0.32742  -0.32493
 Alpha  occ. eigenvalues --   -0.31863  -0.31822  -0.31607  -0.31479  -0.31050
 Alpha  occ. eigenvalues --   -0.30680  -0.30462  -0.30131  -0.29784  -0.29518
 Alpha  occ. eigenvalues --   -0.29401  -0.28734  -0.28459  -0.26775  -0.26142
 Alpha  occ. eigenvalues --   -0.25528  -0.25158  -0.24896  -0.24648  -0.20875
 Alpha  occ. eigenvalues --   -0.18900
 Alpha virt. eigenvalues --   -0.11255  -0.05174  -0.04196  -0.02303  -0.01282
 Alpha virt. eigenvalues --   -0.00452   0.00186   0.01650   0.01974   0.02679
 Alpha virt. eigenvalues --    0.04073   0.04171   0.05087   0.05238   0.05540

 Mulliken charges:
               1
     1  Mg   0.994885
     2  C    0.012472
     3  C   -0.078643
     4  C   -0.033330
     5  C   -0.104888
     6  N   -0.349201
     7  C    0.037898
     8  C   -0.103436
     9  C   -0.152525
    10  C    0.101875
    11  C    0.027502
    12  C    0.007306
    13  C   -0.003419
    14  C    0.255212
    15  O   -0.286851
    16  O   -0.365360
    17  N   -0.537566
    18  C    0.175464
    19  C   -0.185342
    20  C   -0.097056
    21  C    0.155884
    22  C    0.031475
    23  C    0.038851
    24  O   -0.241573
    25  C    0.010121
    26  N   -0.409806
    27  C    0.085657
    28  C   -0.119136
    29  C   -0.062560
    30  C    0.090256
    31  C    0.001654
    32  C   -0.034126
    33  C   -0.091061
    34  N   -0.494865
    35  C    0.146702
    36  C   -0.168676
    37  C   -0.032111
    38  C    0.145020
    39  C    0.076608
    40  C    0.142723
    41  O   -0.235523
    42  C   -0.138398
    43  C    0.309193
    44  O   -0.278821
    45  O   -0.371706
    46  C    0.120336
    47  C    0.267714
    48  C   -0.204475
    49  C   -0.224745
    50  C    0.045775
    51  C    0.042222
    52  C   -0.067228
    53  C   -0.030900
    54  C   -0.202981
    55  C    0.017246
    56  C    0.031008
    57  C   -0.089573
    58  C    0.037197
    59  C   -0.200366
    60  C   -0.011097
    61  C    0.003082
    62  C   -0.042668
    63  C   -0.072456
    64  C   -0.211615
    65  C   -0.019925
    66  C   -0.003898
    67  H    0.009137
    68  H    0.025921
    69  H   -0.012800
    70  H    0.047024
    71  H    0.046917
    72  H    0.042296
    73  H    0.046889
    74  H    0.033249
    75  H    0.052055
    76  H    0.077379
    77  H    0.053989
    78  H    0.071160
    79  H    0.070245
    80  H    0.061564
    81  H    0.041223
    82  H    0.036480
    83  H    0.062972
    84  H    0.085364
    85  H    0.055178
    86  H    0.041363
    87  H    0.055751
    88  H    0.044436
    89  H    0.051452
    90  H    0.055702
    91  H    0.044733
    92  H    0.046377
    93  H    0.034152
    94  H    0.053758
    95  H    0.030980
    96  H    0.051344
    97  H    0.068519
    98  H    0.075117
    99  H    0.044913
   100  H    0.053551
   101  H    0.070127
   102  H    0.061934
   103  H    0.058497
   104  H    0.029502
   105  H    0.039937
   106  H    0.044616
   107  H    0.045749
   108  H    0.039021
   109  H    0.028769
   110  H    0.030683
   111  H    0.039899
   112  H    0.030008
   113  H    0.025403
   114  H    0.026349
   115  H    0.027612
   116  H    0.031613
   117  H    0.026152
   118  H    0.008190
   119  H    0.027120
   120  H    0.021764
   121  H    0.015742
   122  H    0.024344
   123  H    0.025282
   124  H    0.041156
   125  H    0.036055
   126  H    0.025575
   127  H    0.032478
   128  H    0.018880
   129  H    0.023224
   130  H    0.022717
   131  H    0.034767
   132  H    0.031855
   133  H    0.027161
   134  H    0.025878
   135  H    0.024767
   136  H    0.026980
   137  H    0.027799
   138  H    0.038697
   139  H    0.035053
   140  H    0.036819
 Sum of Mulliken charges =  -0.00000

 Dipole moment (field-independent basis, Debye):
    X=             -1.8251    Y=              5.9367    Z=             -2.7456  Tot=              6.7907
 Quadrupole moment (field-independent basis, Debye-Ang):
   XX=           -350.2680   YY=           -417.7798   ZZ=           -407.3536
   XY=             13.3678   XZ=             -6.0105   YZ=             -5.6254

 Normal termination of Gaussian 16 at Thu Apr 28 22:05:39 2022.
