 Gaussian 16, Revision A.03,
 Gaussian 16:  ES64L-G16RevA.03 25-Dec-2016

 --------------------------------
 #p wB97XD/Def2SVP td=(nstates=5)
 --------------------------------

 -----------------------------------------------------
 step_1751_chromophore_22 TDDFT with wB97XD functional
 -----------------------------------------------------
 Symbolic Z-matrix:
 Charge =  0 Multiplicity = 1

                         Standard orientation:
 ---------------------------------------------------------------------
 Center     Atomic      Atomic             Coordinates (Angstroms)
 Number     Number       Type             X           Y           Z
 ---------------------------------------------------------------------
      1         12           0        6.295031    0.574059   -0.033966
      2          6           0        4.045677   -2.141817   -0.291682
      3          6           0        3.588241    2.660469   -1.072897
      4          6           0        8.347291    3.062066    0.167557
      5          6           0        8.969806   -1.659384    0.149565
      6          7           0        4.046484    0.272508   -0.613007
      7          6           0        3.357787   -0.920707   -0.470952
      8          6           0        1.880550   -0.769764   -0.809537
      9          6           0        1.835675    0.668454   -1.227212
     10          6           0        3.251848    1.274124   -1.016169
     11          6           0        1.293096    0.887115   -2.620064
     12          6           0        0.870416   -1.212058    0.333998
     13          6           0       -0.476271   -0.540616    0.425458
     14          6           0       -1.694526   -1.409330    0.825825
     15          8           0       -1.769305   -2.202646    1.802037
     16          8           0       -2.748452   -1.176542   -0.073329
     17          7           0        6.054561    2.552832   -0.437418
     18          6           0        4.867949    3.218624   -0.855172
     19          6           0        5.184208    4.660697   -0.982170
     20          6           0        6.513898    4.828898   -0.384300
     21          6           0        7.033178    3.475742   -0.195652
     22          6           0        4.267547    5.769911   -1.466261
     23          6           0        7.345996    6.110327   -0.087920
     24          8           0        8.408032    6.006965    0.500299
     25          6           0        6.886422    7.409019   -0.499823
     26          7           0        8.357710    0.605905    0.116428
     27          6           0        8.998362    1.810956    0.185969
     28          6           0       10.500523    1.688193    0.245171
     29          6           0       10.735637    0.157871    0.422931
     30          6           0        9.314257   -0.350454    0.109210
     31          6           0       11.187737    2.226551   -1.059669
     32          6           0       11.212357   -0.442649    1.792407
     33          6           0       12.148654   -1.691973    1.720782
     34          7           0        6.553715   -1.462616   -0.073267
     35          6           0        7.695918   -2.225750    0.114423
     36          6           0        7.333604   -3.595077    0.281471
     37          6           0        5.914873   -3.647040    0.053052
     38          6           0        5.495143   -2.309249   -0.168192
     39          6           0        8.363270   -4.698814    0.546382
     40          6           0        4.755974   -4.503028    0.048415
     41          8           0        4.648358   -5.732659    0.222794
     42          6           0        3.483973   -3.564279   -0.153135
     43          6           0        2.648009   -3.764118    1.114935
     44          8           0        2.685096   -2.973348    2.099729
     45          8           0        1.686307   -4.794487    0.897345
     46          6           0        0.686886   -4.782458    1.959882
     47          6           0       -3.919714   -1.926571    0.241000
     48          6           0       -4.994474   -1.556361   -0.697590
     49          6           0       -6.264182   -1.966476   -0.889916
     50          6           0       -6.966175   -3.017470   -0.073704
     51          6           0       -7.058964   -1.219636   -1.956678
     52          6           0       -8.282281   -0.470579   -1.400776
     53          6           0       -9.544683   -0.616444   -2.363095
     54          6           0      -10.527997   -1.727720   -1.947157
     55          6           0      -10.189311   -2.994151   -2.619923
     56          6           0      -11.965327   -1.180152   -2.089812
     57          6           0      -12.439502   -0.519700   -0.823735
     58          6           0      -13.937708   -0.513580   -0.452031
     59          6           0      -14.574475    0.902958   -0.501393
     60          6           0      -15.416444    1.064730   -1.808699
     61          6           0      -15.409112    1.354122    0.753497
     62          6           0      -14.939958    2.686438    1.361987
     63          6           0      -14.004350    2.379582    2.526365
     64          6           0      -13.104342    3.559472    3.154763
     65          6           0      -11.938006    3.876848    2.278603
     66          6           0      -12.780984    3.337889    4.629352
     67          1           0        2.828488    3.427206   -1.234206
     68          1           0        9.089027    3.863555    0.170581
     69          1           0        9.761981   -2.403569    0.250565
     70          1           0        1.716501   -1.449267   -1.645750
     71          1           0        1.273691    1.282454   -0.523060
     72          1           0        0.237458    1.152918   -2.691355
     73          1           0        1.442529   -0.004407   -3.228613
     74          1           0        1.783040    1.770911   -3.028275
     75          1           0        1.381260   -0.831142    1.217569
     76          1           0        0.734665   -2.293843    0.352945
     77          1           0       -0.545134   -0.085576   -0.562293
     78          1           0       -0.457423    0.263521    1.160377
     79          1           0        4.709556    6.266022   -2.329560
     80          1           0        4.172282    6.478979   -0.643889
     81          1           0        3.256216    5.481215   -1.753229
     82          1           0        6.433382    7.251818   -1.478433
     83          1           0        7.812112    7.951571   -0.691318
     84          1           0        6.151507    7.810512    0.198307
     85          1           0       10.926972    2.255958    1.071878
     86          1           0       11.411188   -0.258755   -0.324013
     87          1           0       10.502768    2.352864   -1.897802
     88          1           0       12.013627    1.600330   -1.397896
     89          1           0       11.579635    3.203691   -0.776908
     90          1           0       10.335920   -0.827889    2.314156
     91          1           0       11.704065    0.257735    2.468849
     92          1           0       13.172189   -1.505529    2.045914
     93          1           0       12.277912   -1.952196    0.669810
     94          1           0       11.726611   -2.540854    2.258887
     95          1           0        8.992519   -4.369979    1.373767
     96          1           0        9.130600   -4.777312   -0.223379
     97          1           0        7.912244   -5.643388    0.851213
     98          1           0        2.794582   -3.769057   -0.971819
     99          1           0        1.083432   -5.225780    2.873272
    100          1           0       -0.162663   -5.368119    1.608966
    101          1           0        0.329044   -3.829998    2.352466
    102          1           0       -4.238549   -1.689823    1.255165
    103          1           0       -3.764209   -2.988154    0.047638
    104          1           0       -4.621441   -0.717589   -1.285753
    105          1           0       -7.852616   -2.617239    0.418387
    106          1           0       -6.246727   -3.376543    0.661590
    107          1           0       -7.414114   -3.761932   -0.731938
    108          1           0       -7.377196   -1.968962   -2.681292
    109          1           0       -6.407602   -0.432811   -2.336840
    110          1           0       -7.953200    0.567516   -1.452656
    111          1           0       -8.542492   -0.763790   -0.383855
    112          1           0       -9.261452   -0.807756   -3.397582
    113          1           0       -9.972087    0.385053   -2.313781
    114          1           0      -10.410787   -1.842321   -0.870467
    115          1           0       -9.775415   -3.695528   -1.895010
    116          1           0       -9.432104   -2.982798   -3.402731
    117          1           0      -11.038916   -3.507684   -3.069832
    118          1           0      -12.608124   -2.002819   -2.404194
    119          1           0      -12.070539   -0.472275   -2.912342
    120          1           0      -11.974210    0.459913   -0.711257
    121          1           0      -12.017528   -1.042203    0.034403
    122          1           0      -14.011032   -0.933544    0.551124
    123          1           0      -14.351209   -1.248626   -1.143347
    124          1           0      -13.770684    1.635171   -0.579357
    125          1           0      -14.906464    1.715546   -2.519756
    126          1           0      -16.385974    1.534356   -1.642775
    127          1           0      -15.669541    0.100112   -2.249103
    128          1           0      -15.331875    0.616465    1.552456
    129          1           0      -16.478748    1.397613    0.549287
    130          1           0      -15.788277    3.168892    1.848394
    131          1           0      -14.461048    3.404613    0.696673
    132          1           0      -13.453725    1.521060    2.140295
    133          1           0      -14.575858    2.057004    3.396409
    134          1           0      -13.625999    4.510535    3.054213
    135          1           0      -12.163452    3.734116    1.222067
    136          1           0      -11.044133    3.303023    2.521291
    137          1           0      -11.674113    4.930749    2.369519
    138          1           0      -11.795291    3.696833    4.924858
    139          1           0      -12.916771    2.269151    4.794049
    140          1           0      -13.552099    3.820795    5.229659
 ---------------------------------------------------------------------

 SCF Done:  E(RwB97XD) =  -3007.86342626     A.U. after   19 cycles

 Excitation energies and oscillator strengths:

 Excited State   1:      Singlet-A      1.6767 eV  739.46 nm  f=0.3695  <S**2>=0.000
     245 -> 248       -0.18569
     246 -> 247        0.68240
     245 <- 248       -0.11587
 This state for optimization and/or second-order correction.
 Total Energy, E(TD-HF/TD-DFT) =  -3007.80180882
 Copying the excited state density for this state as the 1-particle RhoCI density.

 Excited State   2:      Singlet-A      2.1555 eV  575.21 nm  f=0.1288  <S**2>=0.000
     245 -> 247        0.64241
     246 -> 248        0.27704

 Excited State   3:      Singlet-A      3.3208 eV  373.36 nm  f=0.0036  <S**2>=0.000
     241 -> 247        0.48054
     242 -> 247       -0.15251
     244 -> 247       -0.46332

 Excited State   4:      Singlet-A      3.4483 eV  359.55 nm  f=0.0235  <S**2>=0.000
     240 -> 247       -0.13599
     241 -> 247        0.40905
     242 -> 247        0.11425
     242 -> 249        0.12440
     244 -> 247        0.41518
     246 -> 248       -0.27912

 Excited State   5:      Singlet-A      3.5275 eV  351.47 nm  f=0.0006  <S**2>=0.000
     242 -> 247        0.50088
     242 -> 249        0.30037
     242 -> 250        0.21693
     244 -> 247       -0.23556

 The electronic state is 1-A.
 Alpha  occ. eigenvalues --  -46.94410 -19.31171 -19.30095 -19.26182 -19.24895
 Alpha  occ. eigenvalues --  -19.24338 -19.23059 -14.46899 -14.46220 -14.44601
 Alpha  occ. eigenvalues --  -14.43252 -10.44879 -10.43536 -10.39451 -10.38695
 Alpha  occ. eigenvalues --  -10.35875 -10.35625 -10.35297 -10.35219 -10.35184
 Alpha  occ. eigenvalues --  -10.34926 -10.34526 -10.33598 -10.33388 -10.32734
 Alpha  occ. eigenvalues --  -10.32622 -10.32554 -10.32384 -10.32380 -10.32355
 Alpha  occ. eigenvalues --  -10.32280 -10.32164 -10.32051 -10.31980 -10.31961
 Alpha  occ. eigenvalues --  -10.31903 -10.31601 -10.30705 -10.30557 -10.30480
 Alpha  occ. eigenvalues --  -10.30404 -10.30126 -10.30040 -10.29991 -10.29928
 Alpha  occ. eigenvalues --  -10.29858 -10.29547 -10.29487 -10.29478 -10.29323
 Alpha  occ. eigenvalues --  -10.29215 -10.29171 -10.29116 -10.28958 -10.28948
 Alpha  occ. eigenvalues --  -10.28795 -10.28785 -10.28731 -10.28671 -10.28620
 Alpha  occ. eigenvalues --  -10.28531 -10.28312 -10.28302 -10.28301 -10.28107
 Alpha  occ. eigenvalues --  -10.27732  -3.20504  -1.94084  -1.93660  -1.93459
 Alpha  occ. eigenvalues --   -1.18498  -1.15854  -1.13328  -1.09830  -1.09756
 Alpha  occ. eigenvalues --   -1.08171  -1.06342  -1.05898  -1.04242  -1.03822
 Alpha  occ. eigenvalues --   -0.93457  -0.92664  -0.92299  -0.91591  -0.90912
 Alpha  occ. eigenvalues --   -0.90679  -0.90297  -0.89532  -0.89218  -0.89083
 Alpha  occ. eigenvalues --   -0.88210  -0.87269  -0.86504  -0.85906  -0.85305
 Alpha  occ. eigenvalues --   -0.85129  -0.84503  -0.83387  -0.82881  -0.82291
 Alpha  occ. eigenvalues --   -0.81706  -0.80675  -0.79935  -0.78859  -0.78066
 Alpha  occ. eigenvalues --   -0.77793  -0.77456  -0.77150  -0.76784  -0.75628
 Alpha  occ. eigenvalues --   -0.75051  -0.74559  -0.73487  -0.72359  -0.70944
 Alpha  occ. eigenvalues --   -0.70345  -0.69739  -0.68869  -0.68143  -0.67638
 Alpha  occ. eigenvalues --   -0.67324  -0.66939  -0.66605  -0.66202  -0.65843
 Alpha  occ. eigenvalues --   -0.65587  -0.65554  -0.64511  -0.63439  -0.62542
 Alpha  occ. eigenvalues --   -0.62192  -0.61095  -0.60960  -0.60402  -0.59781
 Alpha  occ. eigenvalues --   -0.59496  -0.58618  -0.58557  -0.58373  -0.57578
 Alpha  occ. eigenvalues --   -0.57208  -0.56935  -0.56783  -0.56261  -0.55894
 Alpha  occ. eigenvalues --   -0.55563  -0.55464  -0.55289  -0.55074  -0.54800
 Alpha  occ. eigenvalues --   -0.54652  -0.54444  -0.54266  -0.53880  -0.53772
 Alpha  occ. eigenvalues --   -0.53428  -0.53369  -0.53189  -0.53097  -0.52797
 Alpha  occ. eigenvalues --   -0.52620  -0.52188  -0.52145  -0.51905  -0.51701
 Alpha  occ. eigenvalues --   -0.51555  -0.51272  -0.51113  -0.50591  -0.50532
 Alpha  occ. eigenvalues --   -0.50157  -0.49961  -0.49914  -0.49741  -0.49610
 Alpha  occ. eigenvalues --   -0.49504  -0.49403  -0.49008  -0.48957  -0.48818
 Alpha  occ. eigenvalues --   -0.48498  -0.48305  -0.47944  -0.47579  -0.47485
 Alpha  occ. eigenvalues --   -0.46986  -0.46955  -0.46571  -0.46535  -0.46455
 Alpha  occ. eigenvalues --   -0.46291  -0.45988  -0.45979  -0.45800  -0.45650
 Alpha  occ. eigenvalues --   -0.45468  -0.45450  -0.45330  -0.45127  -0.44886
 Alpha  occ. eigenvalues --   -0.44584  -0.44519  -0.44411  -0.44340  -0.44130
 Alpha  occ. eigenvalues --   -0.44070  -0.44003  -0.43512  -0.43397  -0.43187
 Alpha  occ. eigenvalues --   -0.42897  -0.42757  -0.42636  -0.42382  -0.42058
 Alpha  occ. eigenvalues --   -0.41929  -0.41506  -0.41309  -0.40990  -0.40373
 Alpha  occ. eigenvalues --   -0.40141  -0.39847  -0.39821  -0.39784  -0.39548
 Alpha  occ. eigenvalues --   -0.38887  -0.38820  -0.38626  -0.38442  -0.38111
 Alpha  occ. eigenvalues --   -0.37613  -0.37446  -0.37074  -0.36781  -0.36372
 Alpha  occ. eigenvalues --   -0.36263  -0.35606  -0.35236  -0.33802  -0.33161
 Alpha  occ. eigenvalues --   -0.32357  -0.32016  -0.31373  -0.31128  -0.25872
 Alpha  occ. eigenvalues --   -0.23118
 Alpha virt. eigenvalues --   -0.07140   0.00262   0.02070   0.04173   0.05629
 Alpha virt. eigenvalues --    0.06142   0.06483   0.08357   0.08643   0.09098
 Alpha virt. eigenvalues --    0.10430   0.10961   0.11788   0.11892   0.12194

 Mulliken charges:
               1
     1  Mg   0.982817
     2  C    0.012587
     3  C   -0.099797
     4  C   -0.053338
     5  C   -0.111863
     6  N   -0.310699
     7  C   -0.000677
     8  C   -0.077130
     9  C   -0.121753
    10  C    0.086414
    11  C    0.037268
    12  C    0.024451
    13  C    0.017501
    14  C    0.246769
    15  O   -0.283925
    16  O   -0.364434
    17  N   -0.508869
    18  C    0.174375
    19  C   -0.174241
    20  C   -0.090404
    21  C    0.151757
    22  C    0.044015
    23  C    0.037204
    24  O   -0.233869
    25  C    0.019642
    26  N   -0.379184
    27  C    0.079749
    28  C   -0.094694
    29  C   -0.037810
    30  C    0.075205
    31  C    0.009110
    32  C   -0.018902
    33  C   -0.075668
    34  N   -0.456702
    35  C    0.135910
    36  C   -0.171328
    37  C   -0.027081
    38  C    0.123545
    39  C    0.086897
    40  C    0.126494
    41  O   -0.228501
    42  C   -0.099941
    43  C    0.292297
    44  O   -0.275789
    45  O   -0.372671
    46  C    0.137669
    47  C    0.278283
    48  C   -0.210577
    49  C   -0.209177
    50  C    0.058603
    51  C    0.062935
    52  C   -0.050310
    53  C   -0.015675
    54  C   -0.166514
    55  C    0.026143
    56  C    0.046584
    57  C   -0.072074
    58  C    0.052564
    59  C   -0.170998
    60  C    0.000267
    61  C    0.021829
    62  C   -0.027913
    63  C   -0.049267
    64  C   -0.184301
    65  C   -0.008464
    66  C    0.008334
    67  H    0.003328
    68  H    0.019697
    69  H   -0.025707
    70  H    0.035049
    71  H    0.034069
    72  H    0.038146
    73  H    0.042252
    74  H    0.025732
    75  H    0.044063
    76  H    0.059565
    77  H    0.041916
    78  H    0.065936
    79  H    0.066842
    80  H    0.056442
    81  H    0.039441
    82  H    0.028774
    83  H    0.062993
    84  H    0.083595
    85  H    0.047891
    86  H    0.027791
    87  H    0.049870
    88  H    0.039951
    89  H    0.046027
    90  H    0.044863
    91  H    0.037142
    92  H    0.040990
    93  H    0.026623
    94  H    0.048767
    95  H    0.022244
    96  H    0.045016
    97  H    0.065199
    98  H    0.069499
    99  H    0.040814
   100  H    0.050861
   101  H    0.061967
   102  H    0.056970
   103  H    0.053046
   104  H    0.024284
   105  H    0.033283
   106  H    0.040088
   107  H    0.038869
   108  H    0.025863
   109  H    0.021773
   110  H    0.024055
   111  H    0.028074
   112  H    0.019930
   113  H    0.016818
   114  H    0.007913
   115  H    0.020865
   116  H    0.025377
   117  H    0.021592
   118  H   -0.001449
   119  H    0.017913
   120  H    0.011134
   121  H    0.006571
   122  H    0.016603
   123  H    0.014689
   124  H    0.023669
   125  H    0.030989
   126  H    0.019169
   127  H    0.026067
   128  H    0.007537
   129  H    0.016030
   130  H    0.015123
   131  H    0.025181
   132  H    0.016497
   133  H    0.016829
   134  H    0.014912
   135  H    0.016580
   136  H    0.020941
   137  H    0.022240
   138  H    0.034413
   139  H    0.027970
   140  H    0.031266
 Sum of Mulliken charges =  -0.00000

 Dipole moment (field-independent basis, Debye):
    X=             -2.0464    Y=              6.8436    Z=             -2.8982  Tot=              7.7086
 Quadrupole moment (field-independent basis, Debye-Ang):
   XX=           -353.7109   YY=           -415.0465   ZZ=           -406.9801
   XY=             19.0351   XZ=             -6.7294   YZ=             -5.9269

 Normal termination of Gaussian 16 at Thu Apr 28 22:29:10 2022.
