 Gaussian 16, Revision A.03,
 Gaussian 16:  ES64L-G16RevA.03 25-Dec-2016

 --------------------
 #p ZINDO=(nstates=5)
 --------------------

 ------------------------------
 step_1751_chromophore_22 ZINDO
 ------------------------------
 Symbolic Z-matrix:
 Charge =  0 Multiplicity = 1

                         Standard orientation:
 ---------------------------------------------------------------------
 Center     Atomic      Atomic             Coordinates (Angstroms)
 Number     Number       Type             X           Y           Z
 ---------------------------------------------------------------------
      1         12           0        6.295031    0.574059   -0.033966
      2          6           0        4.045677   -2.141817   -0.291682
      3          6           0        3.588241    2.660469   -1.072897
      4          6           0        8.347291    3.062066    0.167557
      5          6           0        8.969806   -1.659384    0.149565
      6          7           0        4.046484    0.272508   -0.613007
      7          6           0        3.357787   -0.920707   -0.470952
      8          6           0        1.880550   -0.769764   -0.809537
      9          6           0        1.835675    0.668454   -1.227212
     10          6           0        3.251848    1.274124   -1.016169
     11          6           0        1.293096    0.887115   -2.620064
     12          6           0        0.870416   -1.212058    0.333998
     13          6           0       -0.476271   -0.540616    0.425458
     14          6           0       -1.694526   -1.409330    0.825825
     15          8           0       -1.769305   -2.202646    1.802037
     16          8           0       -2.748452   -1.176542   -0.073329
     17          7           0        6.054561    2.552832   -0.437418
     18          6           0        4.867949    3.218624   -0.855172
     19          6           0        5.184208    4.660697   -0.982170
     20          6           0        6.513898    4.828898   -0.384300
     21          6           0        7.033178    3.475742   -0.195652
     22          6           0        4.267547    5.769911   -1.466261
     23          6           0        7.345996    6.110327   -0.087920
     24          8           0        8.408032    6.006965    0.500299
     25          6           0        6.886422    7.409019   -0.499823
     26          7           0        8.357710    0.605905    0.116428
     27          6           0        8.998362    1.810956    0.185969
     28          6           0       10.500523    1.688193    0.245171
     29          6           0       10.735637    0.157871    0.422931
     30          6           0        9.314257   -0.350454    0.109210
     31          6           0       11.187737    2.226551   -1.059669
     32          6           0       11.212357   -0.442649    1.792407
     33          6           0       12.148654   -1.691973    1.720782
     34          7           0        6.553715   -1.462616   -0.073267
     35          6           0        7.695918   -2.225750    0.114423
     36          6           0        7.333604   -3.595077    0.281471
     37          6           0        5.914873   -3.647040    0.053052
     38          6           0        5.495143   -2.309249   -0.168192
     39          6           0        8.363270   -4.698814    0.546382
     40          6           0        4.755974   -4.503028    0.048415
     41          8           0        4.648358   -5.732659    0.222794
     42          6           0        3.483973   -3.564279   -0.153135
     43          6           0        2.648009   -3.764118    1.114935
     44          8           0        2.685096   -2.973348    2.099729
     45          8           0        1.686307   -4.794487    0.897345
     46          6           0        0.686886   -4.782458    1.959882
     47          6           0       -3.919714   -1.926571    0.241000
     48          6           0       -4.994474   -1.556361   -0.697590
     49          6           0       -6.264182   -1.966476   -0.889916
     50          6           0       -6.966175   -3.017470   -0.073704
     51          6           0       -7.058964   -1.219636   -1.956678
     52          6           0       -8.282281   -0.470579   -1.400776
     53          6           0       -9.544683   -0.616444   -2.363095
     54          6           0      -10.527997   -1.727720   -1.947157
     55          6           0      -10.189311   -2.994151   -2.619923
     56          6           0      -11.965327   -1.180152   -2.089812
     57          6           0      -12.439502   -0.519700   -0.823735
     58          6           0      -13.937708   -0.513580   -0.452031
     59          6           0      -14.574475    0.902958   -0.501393
     60          6           0      -15.416444    1.064730   -1.808699
     61          6           0      -15.409112    1.354122    0.753497
     62          6           0      -14.939958    2.686438    1.361987
     63          6           0      -14.004350    2.379582    2.526365
     64          6           0      -13.104342    3.559472    3.154763
     65          6           0      -11.938006    3.876848    2.278603
     66          6           0      -12.780984    3.337889    4.629352
     67          1           0        2.828488    3.427206   -1.234206
     68          1           0        9.089027    3.863555    0.170581
     69          1           0        9.761981   -2.403569    0.250565
     70          1           0        1.716501   -1.449267   -1.645750
     71          1           0        1.273691    1.282454   -0.523060
     72          1           0        0.237458    1.152918   -2.691355
     73          1           0        1.442529   -0.004407   -3.228613
     74          1           0        1.783040    1.770911   -3.028275
     75          1           0        1.381260   -0.831142    1.217569
     76          1           0        0.734665   -2.293843    0.352945
     77          1           0       -0.545134   -0.085576   -0.562293
     78          1           0       -0.457423    0.263521    1.160377
     79          1           0        4.709556    6.266022   -2.329560
     80          1           0        4.172282    6.478979   -0.643889
     81          1           0        3.256216    5.481215   -1.753229
     82          1           0        6.433382    7.251818   -1.478433
     83          1           0        7.812112    7.951571   -0.691318
     84          1           0        6.151507    7.810512    0.198307
     85          1           0       10.926972    2.255958    1.071878
     86          1           0       11.411188   -0.258755   -0.324013
     87          1           0       10.502768    2.352864   -1.897802
     88          1           0       12.013627    1.600330   -1.397896
     89          1           0       11.579635    3.203691   -0.776908
     90          1           0       10.335920   -0.827889    2.314156
     91          1           0       11.704065    0.257735    2.468849
     92          1           0       13.172189   -1.505529    2.045914
     93          1           0       12.277912   -1.952196    0.669810
     94          1           0       11.726611   -2.540854    2.258887
     95          1           0        8.992519   -4.369979    1.373767
     96          1           0        9.130600   -4.777312   -0.223379
     97          1           0        7.912244   -5.643388    0.851213
     98          1           0        2.794582   -3.769057   -0.971819
     99          1           0        1.083432   -5.225780    2.873272
    100          1           0       -0.162663   -5.368119    1.608966
    101          1           0        0.329044   -3.829998    2.352466
    102          1           0       -4.238549   -1.689823    1.255165
    103          1           0       -3.764209   -2.988154    0.047638
    104          1           0       -4.621441   -0.717589   -1.285753
    105          1           0       -7.852616   -2.617239    0.418387
    106          1           0       -6.246727   -3.376543    0.661590
    107          1           0       -7.414114   -3.761932   -0.731938
    108          1           0       -7.377196   -1.968962   -2.681292
    109          1           0       -6.407602   -0.432811   -2.336840
    110          1           0       -7.953200    0.567516   -1.452656
    111          1           0       -8.542492   -0.763790   -0.383855
    112          1           0       -9.261452   -0.807756   -3.397582
    113          1           0       -9.972087    0.385053   -2.313781
    114          1           0      -10.410787   -1.842321   -0.870467
    115          1           0       -9.775415   -3.695528   -1.895010
    116          1           0       -9.432104   -2.982798   -3.402731
    117          1           0      -11.038916   -3.507684   -3.069832
    118          1           0      -12.608124   -2.002819   -2.404194
    119          1           0      -12.070539   -0.472275   -2.912342
    120          1           0      -11.974210    0.459913   -0.711257
    121          1           0      -12.017528   -1.042203    0.034403
    122          1           0      -14.011032   -0.933544    0.551124
    123          1           0      -14.351209   -1.248626   -1.143347
    124          1           0      -13.770684    1.635171   -0.579357
    125          1           0      -14.906464    1.715546   -2.519756
    126          1           0      -16.385974    1.534356   -1.642775
    127          1           0      -15.669541    0.100112   -2.249103
    128          1           0      -15.331875    0.616465    1.552456
    129          1           0      -16.478748    1.397613    0.549287
    130          1           0      -15.788277    3.168892    1.848394
    131          1           0      -14.461048    3.404613    0.696673
    132          1           0      -13.453725    1.521060    2.140295
    133          1           0      -14.575858    2.057004    3.396409
    134          1           0      -13.625999    4.510535    3.054213
    135          1           0      -12.163452    3.734116    1.222067
    136          1           0      -11.044133    3.303023    2.521291
    137          1           0      -11.674113    4.930749    2.369519
    138          1           0      -11.795291    3.696833    4.924858
    139          1           0      -12.916771    2.269151    4.794049
    140          1           0      -13.552099    3.820795    5.229659
 ---------------------------------------------------------------------

 SCF Done:  E(RZINDO/S) =  -474.200792708     A.U. after   19 cycles

 Excitation energies and oscillator strengths:

 Excited State   1:      Singlet-A      1.3051 eV  950.03 nm  f=0.5534  <S**2>=0.000
     175 ->178         0.16913
     176 ->177         0.66868
 This state for optimization and/or second-order correction.
 Total Energy, E(CIS/TDA) =  -474.152832645
 Copying the excited state density for this state as the 1-particle RhoCI density.

 Excited State   2:      Singlet-A      1.9218 eV  645.15 nm  f=0.0633  <S**2>=0.000
     175 ->177         0.55724
     176 ->178        -0.39594

 Excited State   3:      Singlet-A      2.9349 eV  422.45 nm  f=0.5287  <S**2>=0.000
     168 ->177         0.10475
     168 ->179        -0.12636
     175 ->177         0.28095
     176 ->178         0.46919
     176 ->179        -0.28520
     176 ->180        -0.16000

 Excited State   4:      Singlet-A      2.9642 eV  418.28 nm  f=0.0398  <S**2>=0.000
     167 ->179        -0.11267
     168 ->177         0.29211
     168 ->179        -0.37735
     168 ->180         0.25158
     168 ->184        -0.12687
     168 ->185         0.21806
     171 ->177         0.10993
     176 ->178        -0.14063
     176 ->179         0.11787

 Excited State   5:      Singlet-A      3.0456 eV  407.09 nm  f=0.0012  <S**2>=0.000
     169 ->180        -0.10286
     170 ->177         0.27444
     170 ->178        -0.22724
     170 ->179         0.28833
     170 ->180         0.31075
     170 ->182         0.10618
     170 ->183        -0.12205
     170 ->185        -0.17828
     170 ->188         0.15339

 The electronic state is 1-A.
 Alpha  occ. eigenvalues --   -1.83141  -1.81005  -1.78937  -1.72726  -1.70535
 Alpha  occ. eigenvalues --   -1.68407  -1.66280  -1.61973  -1.61625  -1.55532
 Alpha  occ. eigenvalues --   -1.55205  -1.51613  -1.49418  -1.46751  -1.46316
 Alpha  occ. eigenvalues --   -1.44238  -1.41634  -1.40062  -1.39701  -1.38870
 Alpha  occ. eigenvalues --   -1.35626  -1.33239  -1.32311  -1.31708  -1.28631
 Alpha  occ. eigenvalues --   -1.28176  -1.24762  -1.23219  -1.21639  -1.18341
 Alpha  occ. eigenvalues --   -1.17230  -1.16547  -1.16155  -1.14305  -1.13307
 Alpha  occ. eigenvalues --   -1.12146  -1.10894  -1.09301  -1.04481  -1.02813
 Alpha  occ. eigenvalues --   -1.02171  -1.01399  -0.98476  -0.97123  -0.95959
 Alpha  occ. eigenvalues --   -0.95257  -0.94238  -0.93825  -0.92481  -0.92034
 Alpha  occ. eigenvalues --   -0.91440  -0.90138  -0.89866  -0.87788  -0.87683
 Alpha  occ. eigenvalues --   -0.85865  -0.84948  -0.83668  -0.81946  -0.80200
 Alpha  occ. eigenvalues --   -0.79871  -0.78232  -0.77197  -0.76553  -0.75963
 Alpha  occ. eigenvalues --   -0.75587  -0.74872  -0.74712  -0.73927  -0.72957
 Alpha  occ. eigenvalues --   -0.72436  -0.72121  -0.71772  -0.71343  -0.70642
 Alpha  occ. eigenvalues --   -0.70381  -0.69804  -0.69290  -0.68887  -0.68502
 Alpha  occ. eigenvalues --   -0.67823  -0.67331  -0.66674  -0.66231  -0.65986
 Alpha  occ. eigenvalues --   -0.65682  -0.64926  -0.64413  -0.64182  -0.64025
 Alpha  occ. eigenvalues --   -0.63410  -0.62835  -0.62398  -0.62032  -0.61657
 Alpha  occ. eigenvalues --   -0.61489  -0.60958  -0.60699  -0.60147  -0.60097
 Alpha  occ. eigenvalues --   -0.59437  -0.59238  -0.58962  -0.58408  -0.57707
 Alpha  occ. eigenvalues --   -0.57489  -0.57362  -0.56332  -0.56179  -0.55671
 Alpha  occ. eigenvalues --   -0.55286  -0.54883  -0.54645  -0.54412  -0.54240
 Alpha  occ. eigenvalues --   -0.54162  -0.53679  -0.53501  -0.53345  -0.52848
 Alpha  occ. eigenvalues --   -0.52774  -0.52526  -0.52237  -0.52223  -0.51958
 Alpha  occ. eigenvalues --   -0.51519  -0.50855  -0.50727  -0.50400  -0.49905
 Alpha  occ. eigenvalues --   -0.49740  -0.49682  -0.49352  -0.49161  -0.48926
 Alpha  occ. eigenvalues --   -0.48254  -0.48045  -0.47923  -0.47435  -0.47399
 Alpha  occ. eigenvalues --   -0.47186  -0.47182  -0.46627  -0.46484  -0.46383
 Alpha  occ. eigenvalues --   -0.45960  -0.45887  -0.45460  -0.45240  -0.45212
 Alpha  occ. eigenvalues --   -0.44945  -0.44457  -0.44228  -0.44024  -0.43827
 Alpha  occ. eigenvalues --   -0.43612  -0.43444  -0.42617  -0.42403  -0.42347
 Alpha  occ. eigenvalues --   -0.41709  -0.41637  -0.40457  -0.39238  -0.38672
 Alpha  occ. eigenvalues --   -0.37959  -0.36775  -0.36038  -0.34485  -0.34237
 Alpha  occ. eigenvalues --   -0.33740  -0.32193  -0.31642  -0.31277  -0.26552
 Alpha  occ. eigenvalues --   -0.21937
 Alpha virt. eigenvalues --   -0.08485  -0.02043  -0.00645   0.00841   0.00971
 Alpha virt. eigenvalues --    0.02381   0.02621   0.03118   0.04538   0.05284
 Alpha virt. eigenvalues --    0.05798   0.06353   0.07091   0.07505   0.07772

 Mulliken charges:
               1
     1  Mg   0.434447
     2  C   -0.024947
     3  C   -0.079621
     4  C   -0.091018
     5  C   -0.053236
     6  N   -0.276211
     7  C    0.086873
     8  C    0.008750
     9  C    0.018931
    10  C    0.160405
    11  C   -0.049863
    12  C   -0.026136
    13  C    0.007512
    14  C    0.460582
    15  O   -0.515685
    16  O   -0.267452
    17  N   -0.342930
    18  C    0.123426
    19  C    0.020545
    20  C   -0.051785
    21  C    0.172608
    22  C   -0.035877
    23  C    0.338437
    24  O   -0.518167
    25  C   -0.027719
    26  N   -0.273350
    27  C    0.178784
    28  C    0.015513
    29  C   -0.000827
    30  C    0.096684
    31  C   -0.049734
    32  C   -0.031299
    33  C   -0.061308
    34  N   -0.317200
    35  C    0.076597
    36  C    0.004063
    37  C   -0.058680
    38  C    0.092124
    39  C   -0.042457
    40  C    0.333161
    41  O   -0.536896
    42  C    0.056910
    43  C    0.480564
    44  O   -0.528532
    45  O   -0.256852
    46  C    0.071399
    47  C    0.112441
    48  C   -0.090976
    49  C   -0.024394
    50  C   -0.043136
    51  C   -0.026275
    52  C   -0.042485
    53  C   -0.040575
    54  C   -0.001661
    55  C   -0.048602
    56  C   -0.023766
    57  C   -0.037932
    58  C   -0.032516
    59  C   -0.010055
    60  C   -0.061120
    61  C   -0.031152
    62  C   -0.032789
    63  C   -0.042079
    64  C   -0.014331
    65  C   -0.050113
    66  C   -0.053436
    67  H    0.033533
    68  H    0.034072
    69  H    0.018577
    70  H    0.025675
    71  H    0.026081
    72  H    0.017562
    73  H    0.027484
    74  H    0.015843
    75  H    0.034139
    76  H    0.044582
    77  H    0.030945
    78  H    0.045406
    79  H    0.034428
    80  H    0.030733
    81  H    0.026436
    82  H    0.023664
    83  H    0.047519
    84  H    0.057461
    85  H    0.036855
    86  H    0.029753
    87  H    0.026725
    88  H    0.023079
    89  H    0.020313
    90  H    0.023957
    91  H    0.019583
    92  H    0.018625
    93  H    0.014045
    94  H    0.026523
    95  H    0.016830
    96  H    0.030572
    97  H    0.036038
    98  H    0.057205
    99  H    0.038478
   100  H    0.028626
   101  H    0.053638
   102  H    0.056049
   103  H    0.052328
   104  H    0.019381
   105  H    0.027637
   106  H    0.028101
   107  H    0.029558
   108  H    0.029764
   109  H    0.024691
   110  H    0.015321
   111  H    0.031966
   112  H    0.021935
   113  H    0.010819
   114  H    0.020374
   115  H    0.010324
   116  H    0.018770
   117  H    0.014131
   118  H    0.011862
   119  H    0.015981
   120  H    0.018323
   121  H    0.006361
   122  H    0.017129
   123  H    0.023546
   124  H    0.022134
   125  H    0.017823
   126  H    0.013837
   127  H    0.020143
   128  H    0.016349
   129  H    0.016949
   130  H    0.010766
   131  H    0.028461
   132  H    0.022415
   133  H    0.012719
   134  H    0.015077
   135  H    0.013264
   136  H    0.014252
   137  H    0.009483
   138  H    0.025679
   139  H    0.019968
   140  H    0.015770
 Sum of Mulliken charges =  -0.00000

 Dipole moment (field-independent basis, Debye):
    X=             -3.5695    Y=             10.9357    Z=             -6.3966  Tot=             13.1624
 N-N= 4.184992526136D+03 E-N= 0.000000000000D+00  KE=-9.044621677856D+03
 Leave Link  601 at Thu Apr 28 22:41:56 2022, MaxMem=  6710886400 cpu:               0.8 elap:               0.1
 (Enter /sw/apps/gaussian-16.0/g16/l9999.exe)
 1\1\GINC-BP1-COMPUTE070\SP\RZINDO CIS\STO-3G\C55H74Mg1N4O6\OF15641\28-
 Apr-2022\0\\#p ZINDO=(nstates=5)\\step_1751_chromophore_22 ZINDO\\0,1\
 Mg,0,8.891,47.291,25.473\C,0,6.739,47.566,28.265\C,0,11.598,47.713,27.
 765\C,0,10.869,47.072,22.927\C,0,6.169,47.724,23.333\N,0,9.126,47.6,27
 .782\C,0,8.085,47.509,28.691\C,0,8.572,47.63,30.129\C,0,10.035,47.867,
 29.909\C,0,10.312,47.775,28.382\C,0,10.552,49.141,30.535\C,0,8.181,46.
 423,31.085\C,0,9.086,46.077,32.24\C,0,8.428,45.624,33.567\O,0,7.535,44

 Normal termination of Gaussian 16 at Thu Apr 28 22:41:56 2022.
