 Gaussian 16, Revision A.03,
 Gaussian 16:  ES64L-G16RevA.03 25-Dec-2016

 ------------------------------
 #p blyp/Def2SVP td=(nstates=5)
 ------------------------------

 ------------------------------------------------
 step_1_chromophore_23 TDDFT with blyp functional
 ------------------------------------------------
 Symbolic Z-matrix:
 Charge =  0 Multiplicity = 1

                         Standard orientation:
 ---------------------------------------------------------------------
 Center     Atomic      Atomic             Coordinates (Angstroms)
 Number     Number       Type             X           Y           Z
 ---------------------------------------------------------------------
      1         12           0       -4.841159    1.030585    0.433485
      2          6           0       -4.003774   -2.447370    0.156314
      3          6           0       -1.848625    1.308846    2.364078
      4          6           0       -4.788810    4.363907    0.015052
      5          6           0       -7.195107    0.584978   -2.007144
      6          7           0       -3.158450   -0.408730    1.108273
      7          6           0       -3.046656   -1.753272    0.905319
      8          6           0       -1.763232   -2.342521    1.588065
      9          6           0       -1.377628   -1.152281    2.590776
     10          6           0       -2.115881    0.001217    1.930452
     11          6           0       -1.856271   -1.342340    4.011846
     12          6           0       -0.718223   -2.825969    0.596166
     13          6           0       -0.036380   -4.189301    0.881545
     14          6           0        1.424397   -4.257928    1.529063
     15          8           0        1.713377   -3.886388    2.663365
     16          8           0        2.265352   -4.792918    0.592404
     17          7           0       -3.533051    2.691655    1.192203
     18          6           0       -2.418131    2.553816    2.045139
     19          6           0       -1.920180    3.891551    2.388088
     20          6           0       -2.827732    4.807716    1.724202
     21          6           0       -3.692576    4.003711    0.887693
     22          6           0       -0.723102    4.220416    3.198195
     23          6           0       -2.835065    6.304597    1.907957
     24          8           0       -2.139714    6.776021    2.779436
     25          6           0       -3.664569    7.262234    1.083997
     26          7           0       -5.757341    2.200370   -0.883523
     27          6           0       -5.682252    3.582020   -0.731240
     28          6           0       -6.612930    4.207394   -1.772893
     29          6           0       -7.514754    3.009336   -2.246507
     30          6           0       -6.801001    1.851179   -1.635194
     31          6           0       -7.398779    5.512184   -1.380773
     32          6           0       -7.802496    2.864744   -3.772470
     33          6           0       -9.228358    2.798394   -4.213474
     34          7           0       -5.585556   -0.559712   -0.623622
     35          6           0       -6.613828   -0.619907   -1.547975
     36          6           0       -6.979828   -2.020780   -1.833031
     37          6           0       -5.899211   -2.753785   -1.205245
     38          6           0       -5.117203   -1.814737   -0.525756
     39          6           0       -8.113984   -2.584206   -2.648133
     40          6           0       -5.379990   -4.134927   -0.979707
     41          8           0       -5.739530   -5.185699   -1.428997
     42          6           0       -4.087568   -3.935608   -0.194663
     43          6           0       -4.173493   -4.771007    1.047694
     44          8           0       -5.001864   -4.488071    1.886375
     45          8           0       -3.185658   -5.791881    1.185676
     46          6           0       -3.129916   -6.492197    2.504667
     47          6           0        3.607039   -4.757759    1.041397
     48          6           0        4.647696   -4.877568   -0.060508
     49          6           0        5.146638   -3.899607   -0.856492
     50          6           0        4.927494   -2.444175   -0.471183
     51          6           0        6.188502   -4.232578   -1.833128
     52          6           0        7.547251   -4.782194   -1.411428
     53          6           0        8.693890   -4.059700   -2.043572
     54          6           0        9.205691   -2.759791   -1.258500
     55          6           0       10.675140   -3.042064   -0.897390
     56          6           0        8.975205   -1.536657   -2.179346
     57          6           0        9.092261   -0.242560   -1.378071
     58          6           0        7.856866    0.622678   -1.375305
     59          6           0        7.686526    1.801463   -0.372886
     60          6           0        6.295342    2.109676    0.194567
     61          6           0        8.358353    3.095872   -0.951813
     62          6           0        9.375763    3.713641   -0.008515
     63          6           0       10.709360    4.182992   -0.669817
     64          6           0       11.009826    5.648675   -0.327395
     65          6           0       12.243752    6.268752   -1.042569
     66          6           0       11.224451    5.827585    1.247117
     67          1           0       -0.969881    1.428787    3.001415
     68          1           0       -4.920244    5.422322   -0.215975
     69          1           0       -8.080658    0.473784   -2.635870
     70          1           0       -2.005683   -3.153483    2.274239
     71          1           0       -0.315331   -0.914471    2.536633
     72          1           0       -2.907268   -1.058443    4.060615
     73          1           0       -1.206485   -0.744091    4.650427
     74          1           0       -1.849477   -2.345333    4.439797
     75          1           0        0.080565   -2.085309    0.618764
     76          1           0       -1.137693   -2.723818   -0.404653
     77          1           0       -0.009523   -4.658261   -0.102341
     78          1           0       -0.628937   -4.843440    1.521256
     79          1           0       -1.087090    4.437166    4.202047
     80          1           0       -0.305358    5.165181    2.850192
     81          1           0        0.106162    3.515313    3.266678
     82          1           0       -3.472030    8.319766    1.263632
     83          1           0       -4.699444    7.060452    1.360710
     84          1           0       -3.674977    7.162789   -0.000775
     85          1           0       -5.896419    4.569986   -2.510511
     86          1           0       -8.432573    3.026059   -1.659533
     87          1           0       -7.453006    5.617164   -0.296863
     88          1           0       -8.382482    5.520356   -1.849850
     89          1           0       -6.904036    6.388264   -1.799505
     90          1           0       -7.290091    1.976631   -4.142186
     91          1           0       -7.268511    3.671584   -4.274261
     92          1           0       -9.461069    1.776677   -4.512810
     93          1           0       -9.371644    3.439897   -5.082876
     94          1           0       -9.993927    3.080417   -3.490979
     95          1           0       -8.322670   -3.616380   -2.367514
     96          1           0       -7.808946   -2.508810   -3.692237
     97          1           0       -8.962310   -1.906703   -2.549314
     98          1           0       -3.260091   -4.155216   -0.869484
     99          1           0       -3.925144   -7.236655    2.546921
    100          1           0       -3.323454   -5.797937    3.322100
    101          1           0       -2.151163   -6.945266    2.661200
    102          1           0        3.810941   -5.617088    1.679458
    103          1           0        3.893308   -3.870404    1.606997
    104          1           0        5.077417   -5.811383   -0.421763
    105          1           0        4.137685   -2.248715   -1.197158
    106          1           0        5.848082   -1.927198   -0.743824
    107          1           0        4.677599   -2.304859    0.580282
    108          1           0        6.422833   -3.396457   -2.491355
    109          1           0        5.755601   -5.007897   -2.466336
    110          1           0        7.695167   -5.842939   -1.609548
    111          1           0        7.522438   -4.671573   -0.327414
    112          1           0        8.430011   -3.783219   -3.063736
    113          1           0        9.477396   -4.815795   -2.084889
    114          1           0        8.740157   -2.703465   -0.274986
    115          1           0       10.819138   -2.640191    0.105649
    116          1           0       11.251896   -2.322742   -1.479003
    117          1           0       11.076164   -4.055450   -0.874533
    118          1           0        8.011237   -1.708282   -2.659806
    119          1           0        9.805606   -1.468759   -2.882714
    120          1           0        9.938975    0.325755   -1.763122
    121          1           0        9.360656   -0.498903   -0.352612
    122          1           0        6.949472    0.018700   -1.374316
    123          1           0        7.862407    1.121288   -2.344694
    124          1           0        8.185175    1.430931    0.523355
    125          1           0        5.832604    2.993735   -0.243332
    126          1           0        6.372354    2.422990    1.235183
    127          1           0        5.684330    1.207662    0.144287
    128          1           0        7.544868    3.745222   -1.275889
    129          1           0        8.839619    2.851733   -1.898650
    130          1           0        9.510901    3.014393    0.816828
    131          1           0        8.897351    4.548298    0.502644
    132          1           0       10.685907    4.183560   -1.759534
    133          1           0       11.527395    3.563873   -0.301431
    134          1           0       10.160994    6.276938   -0.597029
    135          1           0       11.968941    7.220548   -1.497437
    136          1           0       12.554303    5.729281   -1.936798
    137          1           0       13.129694    6.292717   -0.408195
    138          1           0       11.432276    4.838451    1.653160
    139          1           0       10.273887    6.178337    1.649032
    140          1           0       12.021619    6.530627    1.489318
 ---------------------------------------------------------------------

 SCF Done:  E(RB-LYP) =  -3007.36874871     A.U. after   20 cycles

 Excitation energies and oscillator strengths:

 Excited State   1:      Singlet-A      1.7756 eV  698.25 nm  f=0.0923  <S**2>=0.000
     244 -> 247        0.58377
     246 -> 247        0.38633
 This state for optimization and/or second-order correction.
 Total Energy, E(TD-HF/TD-DFT) =  -3007.30349532
 Copying the excited state density for this state as the 1-particle RhoCI density.

 Excited State   2:      Singlet-A      1.8114 eV  684.47 nm  f=0.2232  <S**2>=0.000
     244 -> 247       -0.38888
     245 -> 248        0.15502
     246 -> 247        0.57837
     246 <- 247       -0.13653

 Excited State   3:      Singlet-A      2.0183 eV  614.29 nm  f=0.0775  <S**2>=0.000
     242 -> 247        0.17950
     245 -> 247        0.62959
     246 -> 248       -0.22928

 Excited State   4:      Singlet-A      2.1072 eV  588.38 nm  f=0.0004  <S**2>=0.000
     243 -> 247        0.70268

 Excited State   5:      Singlet-A      2.2551 eV  549.80 nm  f=0.0008  <S**2>=0.000
     241 -> 247        0.70306

 The electronic state is 1-A.
 Alpha  occ. eigenvalues --  -46.27626 -18.83237 -18.82144 -18.77719 -18.77360
 Alpha  occ. eigenvalues --  -18.76218 -18.74791 -14.03511 -14.02994 -14.00825
 Alpha  occ. eigenvalues --  -14.00624 -10.04790 -10.04461  -9.99883  -9.99382
 Alpha  occ. eigenvalues --   -9.98031  -9.97572  -9.96793  -9.96636  -9.96173
 Alpha  occ. eigenvalues --   -9.96049  -9.95763  -9.95747  -9.95207  -9.94643
 Alpha  occ. eigenvalues --   -9.94287  -9.94088  -9.94057  -9.94028  -9.93866
 Alpha  occ. eigenvalues --   -9.93764  -9.93679  -9.93518  -9.93466  -9.93389
 Alpha  occ. eigenvalues --   -9.92955  -9.92846  -9.92769  -9.92744  -9.92714
 Alpha  occ. eigenvalues --   -9.92616  -9.92368  -9.92282  -9.92253  -9.92228
 Alpha  occ. eigenvalues --   -9.92118  -9.91994  -9.91912  -9.91834  -9.91716
 Alpha  occ. eigenvalues --   -9.91621  -9.91564  -9.91560  -9.91388  -9.91268
 Alpha  occ. eigenvalues --   -9.91239  -9.91126  -9.90974  -9.90960  -9.90943
 Alpha  occ. eigenvalues --   -9.90873  -9.90872  -9.90851  -9.90805  -9.90632
 Alpha  occ. eigenvalues --   -9.90551  -2.92296  -1.72670  -1.72180  -1.72033
 Alpha  occ. eigenvalues --   -0.99267  -0.96584  -0.92980  -0.91786  -0.90880
 Alpha  occ. eigenvalues --   -0.89800  -0.86828  -0.85808  -0.85027  -0.83962
 Alpha  occ. eigenvalues --   -0.75393  -0.74524  -0.73222  -0.72705  -0.72377
 Alpha  occ. eigenvalues --   -0.72125  -0.71792  -0.71024  -0.70739  -0.69643
 Alpha  occ. eigenvalues --   -0.69232  -0.68970  -0.68376  -0.67750  -0.67101
 Alpha  occ. eigenvalues --   -0.66389  -0.65811  -0.65373  -0.64681  -0.64594
 Alpha  occ. eigenvalues --   -0.64233  -0.62551  -0.62116  -0.61633  -0.61139
 Alpha  occ. eigenvalues --   -0.61022  -0.60137  -0.59953  -0.59599  -0.58997
 Alpha  occ. eigenvalues --   -0.58066  -0.57392  -0.56768  -0.55373  -0.54928
 Alpha  occ. eigenvalues --   -0.54492  -0.53607  -0.52575  -0.52367  -0.51869
 Alpha  occ. eigenvalues --   -0.51155  -0.50889  -0.50527  -0.50460  -0.50096
 Alpha  occ. eigenvalues --   -0.49741  -0.49264  -0.48589  -0.48474  -0.46088
 Alpha  occ. eigenvalues --   -0.45802  -0.45521  -0.45260  -0.45243  -0.44974
 Alpha  occ. eigenvalues --   -0.44132  -0.43957  -0.43217  -0.43011  -0.42404
 Alpha  occ. eigenvalues --   -0.42251  -0.42080  -0.41542  -0.41279  -0.41094
 Alpha  occ. eigenvalues --   -0.40905  -0.40740  -0.40580  -0.40277  -0.40211
 Alpha  occ. eigenvalues --   -0.39929  -0.39789  -0.39562  -0.39417  -0.38912
 Alpha  occ. eigenvalues --   -0.38902  -0.38741  -0.38382  -0.38358  -0.38215
 Alpha  occ. eigenvalues --   -0.38112  -0.38000  -0.37753  -0.37619  -0.37442
 Alpha  occ. eigenvalues --   -0.37263  -0.37047  -0.36740  -0.36679  -0.36488
 Alpha  occ. eigenvalues --   -0.36349  -0.36207  -0.36095  -0.36008  -0.35773
 Alpha  occ. eigenvalues --   -0.35560  -0.35382  -0.34963  -0.34905  -0.34497
 Alpha  occ. eigenvalues --   -0.34400  -0.34281  -0.34175  -0.34072  -0.33805
 Alpha  occ. eigenvalues --   -0.33794  -0.33729  -0.33484  -0.33302  -0.33235
 Alpha  occ. eigenvalues --   -0.33005  -0.32957  -0.32822  -0.32545  -0.32224
 Alpha  occ. eigenvalues --   -0.31992  -0.31902  -0.31657  -0.31650  -0.31434
 Alpha  occ. eigenvalues --   -0.31365  -0.31192  -0.31037  -0.30958  -0.30814
 Alpha  occ. eigenvalues --   -0.30503  -0.30368  -0.30069  -0.30036  -0.29949
 Alpha  occ. eigenvalues --   -0.29617  -0.29544  -0.29412  -0.29374  -0.29269
 Alpha  occ. eigenvalues --   -0.28927  -0.28355  -0.28201  -0.28065  -0.27788
 Alpha  occ. eigenvalues --   -0.27460  -0.27151  -0.27006  -0.26685  -0.26361
 Alpha  occ. eigenvalues --   -0.26160  -0.26010  -0.25784  -0.25683  -0.25551
 Alpha  occ. eigenvalues --   -0.25456  -0.25148  -0.24306  -0.23769  -0.23701
 Alpha  occ. eigenvalues --   -0.23497  -0.22654  -0.22478  -0.21857  -0.20263
 Alpha  occ. eigenvalues --   -0.19944  -0.19455  -0.19290  -0.18168  -0.17388
 Alpha  occ. eigenvalues --   -0.15773
 Alpha virt. eigenvalues --   -0.11659  -0.06633  -0.05766  -0.04408  -0.03848
 Alpha virt. eigenvalues --   -0.03419  -0.03196  -0.02760  -0.01454   0.00149
 Alpha virt. eigenvalues --    0.01094   0.02124   0.02306   0.02772   0.02983

 Mulliken charges:
               1
     1  Mg   0.721456
     2  C   -0.047983
     3  C   -0.038180
     4  C   -0.047049
     5  C   -0.109059
     6  N   -0.186048
     7  C   -0.090246
     8  C    0.009380
     9  C   -0.007885
    10  C    0.011665
    11  C    0.148464
    12  C    0.162146
    13  C    0.126881
    14  C    0.071882
    15  O   -0.194171
    16  O   -0.222454
    17  N   -0.265327
    18  C    0.089787
    19  C   -0.124704
    20  C    0.044690
    21  C    0.107697
    22  C    0.191925
    23  C   -0.083786
    24  O   -0.163763
    25  C    0.129907
    26  N   -0.291254
    27  C    0.041099
    28  C   -0.028389
    29  C    0.090761
    30  C    0.024510
    31  C    0.122759
    32  C    0.114510
    33  C    0.070992
    34  N   -0.264869
    35  C    0.124574
    36  C   -0.187637
    37  C    0.012753
    38  C    0.111484
    39  C    0.186718
    40  C   -0.049882
    41  O   -0.100200
    42  C    0.138586
    43  C    0.127274
    44  O   -0.171614
    45  O   -0.310693
    46  C    0.214537
    47  C    0.346137
    48  C   -0.116799
    49  C   -0.214293
    50  C    0.145819
    51  C    0.155879
    52  C    0.088140
    53  C    0.098434
    54  C   -0.117982
    55  C    0.117838
    56  C    0.132727
    57  C    0.102700
    58  C    0.092340
    59  C   -0.094773
    60  C    0.116896
    61  C    0.108170
    62  C    0.096074
    63  C    0.127644
    64  C   -0.138662
    65  C    0.112209
    66  C    0.094731
    67  H   -0.065497
    68  H   -0.090367
    69  H   -0.072155
    70  H   -0.024608
    71  H   -0.029767
    72  H   -0.006296
    73  H   -0.002291
    74  H   -0.006813
    75  H   -0.027019
    76  H   -0.016723
    77  H   -0.015316
    78  H    0.001435
    79  H    0.002389
    80  H    0.001194
    81  H   -0.010950
    82  H   -0.012114
    83  H    0.003805
    84  H    0.009841
    85  H   -0.009554
    86  H   -0.028801
    87  H   -0.000515
    88  H   -0.009299
    89  H   -0.014998
    90  H   -0.018618
    91  H   -0.031331
    92  H   -0.006100
    93  H   -0.011921
    94  H   -0.007940
    95  H    0.022139
    96  H    0.004120
    97  H   -0.010886
    98  H   -0.001330
    99  H    0.020893
   100  H    0.012924
   101  H    0.025664
   102  H   -0.019782
   103  H   -0.010405
   104  H   -0.053296
   105  H    0.010079
   106  H    0.004071
   107  H    0.003502
   108  H   -0.050437
   109  H   -0.021283
   110  H   -0.034053
   111  H   -0.035552
   112  H   -0.032568
   113  H   -0.044811
   114  H   -0.026092
   115  H   -0.033109
   116  H   -0.032190
   117  H    0.003711
   118  H   -0.019468
   119  H   -0.029548
   120  H   -0.037627
   121  H   -0.038639
   122  H   -0.055466
   123  H   -0.044584
   124  H   -0.038267
   125  H   -0.021784
   126  H   -0.023760
   127  H   -0.013707
   128  H   -0.036135
   129  H   -0.038285
   130  H   -0.037688
   131  H   -0.038636
   132  H   -0.025293
   133  H   -0.028314
   134  H   -0.032784
   135  H   -0.017170
   136  H   -0.040239
   137  H   -0.010757
   138  H   -0.016806
   139  H   -0.011666
   140  H   -0.008830
 Sum of Mulliken charges =  -0.00000

 Dipole moment (field-independent basis, Debye):
    X=              0.4834    Y=              1.2748    Z=             -2.5704  Tot=              2.9096
 Quadrupole moment (field-independent basis, Debye-Ang):
   XX=           -372.2896   YY=           -426.9781   ZZ=           -405.4052
   XY=            -40.4415   XZ=              7.2377   YZ=            -26.6035

 Normal termination of Gaussian 16 at Fri Apr 29 07:11:44 2022.
