 Gaussian 16, Revision A.03,
 Gaussian 16:  ES64L-G16RevA.03 25-Dec-2016

 -----------------------------------
 #p cam-b3lyp/Def2SVP td=(nstates=5)
 -----------------------------------

 -----------------------------------------------------
 step_1_chromophore_23 TDDFT with cam-b3lyp functional
 -----------------------------------------------------
 Symbolic Z-matrix:
 Charge =  0 Multiplicity = 1

                         Standard orientation:
 ---------------------------------------------------------------------
 Center     Atomic      Atomic             Coordinates (Angstroms)
 Number     Number       Type             X           Y           Z
 ---------------------------------------------------------------------
      1         12           0       -4.841159    1.030585    0.433485
      2          6           0       -4.003774   -2.447370    0.156314
      3          6           0       -1.848625    1.308846    2.364078
      4          6           0       -4.788810    4.363907    0.015052
      5          6           0       -7.195107    0.584978   -2.007144
      6          7           0       -3.158450   -0.408730    1.108273
      7          6           0       -3.046656   -1.753272    0.905319
      8          6           0       -1.763232   -2.342521    1.588065
      9          6           0       -1.377628   -1.152281    2.590776
     10          6           0       -2.115881    0.001217    1.930452
     11          6           0       -1.856271   -1.342340    4.011846
     12          6           0       -0.718223   -2.825969    0.596166
     13          6           0       -0.036380   -4.189301    0.881545
     14          6           0        1.424397   -4.257928    1.529063
     15          8           0        1.713377   -3.886388    2.663365
     16          8           0        2.265352   -4.792918    0.592404
     17          7           0       -3.533051    2.691655    1.192203
     18          6           0       -2.418131    2.553816    2.045139
     19          6           0       -1.920180    3.891551    2.388088
     20          6           0       -2.827732    4.807716    1.724202
     21          6           0       -3.692576    4.003711    0.887693
     22          6           0       -0.723102    4.220416    3.198195
     23          6           0       -2.835065    6.304597    1.907957
     24          8           0       -2.139714    6.776021    2.779436
     25          6           0       -3.664569    7.262234    1.083997
     26          7           0       -5.757341    2.200370   -0.883523
     27          6           0       -5.682252    3.582020   -0.731240
     28          6           0       -6.612930    4.207394   -1.772893
     29          6           0       -7.514754    3.009336   -2.246507
     30          6           0       -6.801001    1.851179   -1.635194
     31          6           0       -7.398779    5.512184   -1.380773
     32          6           0       -7.802496    2.864744   -3.772470
     33          6           0       -9.228358    2.798394   -4.213474
     34          7           0       -5.585556   -0.559712   -0.623622
     35          6           0       -6.613828   -0.619907   -1.547975
     36          6           0       -6.979828   -2.020780   -1.833031
     37          6           0       -5.899211   -2.753785   -1.205245
     38          6           0       -5.117203   -1.814737   -0.525756
     39          6           0       -8.113984   -2.584206   -2.648133
     40          6           0       -5.379990   -4.134927   -0.979707
     41          8           0       -5.739530   -5.185699   -1.428997
     42          6           0       -4.087568   -3.935608   -0.194663
     43          6           0       -4.173493   -4.771007    1.047694
     44          8           0       -5.001864   -4.488071    1.886375
     45          8           0       -3.185658   -5.791881    1.185676
     46          6           0       -3.129916   -6.492197    2.504667
     47          6           0        3.607039   -4.757759    1.041397
     48          6           0        4.647696   -4.877568   -0.060508
     49          6           0        5.146638   -3.899607   -0.856492
     50          6           0        4.927494   -2.444175   -0.471183
     51          6           0        6.188502   -4.232578   -1.833128
     52          6           0        7.547251   -4.782194   -1.411428
     53          6           0        8.693890   -4.059700   -2.043572
     54          6           0        9.205691   -2.759791   -1.258500
     55          6           0       10.675140   -3.042064   -0.897390
     56          6           0        8.975205   -1.536657   -2.179346
     57          6           0        9.092261   -0.242560   -1.378071
     58          6           0        7.856866    0.622678   -1.375305
     59          6           0        7.686526    1.801463   -0.372886
     60          6           0        6.295342    2.109676    0.194567
     61          6           0        8.358353    3.095872   -0.951813
     62          6           0        9.375763    3.713641   -0.008515
     63          6           0       10.709360    4.182992   -0.669817
     64          6           0       11.009826    5.648675   -0.327395
     65          6           0       12.243752    6.268752   -1.042569
     66          6           0       11.224451    5.827585    1.247117
     67          1           0       -0.969881    1.428787    3.001415
     68          1           0       -4.920244    5.422322   -0.215975
     69          1           0       -8.080658    0.473784   -2.635870
     70          1           0       -2.005683   -3.153483    2.274239
     71          1           0       -0.315331   -0.914471    2.536633
     72          1           0       -2.907268   -1.058443    4.060615
     73          1           0       -1.206485   -0.744091    4.650427
     74          1           0       -1.849477   -2.345333    4.439797
     75          1           0        0.080565   -2.085309    0.618764
     76          1           0       -1.137693   -2.723818   -0.404653
     77          1           0       -0.009523   -4.658261   -0.102341
     78          1           0       -0.628937   -4.843440    1.521256
     79          1           0       -1.087090    4.437166    4.202047
     80          1           0       -0.305358    5.165181    2.850192
     81          1           0        0.106162    3.515313    3.266678
     82          1           0       -3.472030    8.319766    1.263632
     83          1           0       -4.699444    7.060452    1.360710
     84          1           0       -3.674977    7.162789   -0.000775
     85          1           0       -5.896419    4.569986   -2.510511
     86          1           0       -8.432573    3.026059   -1.659533
     87          1           0       -7.453006    5.617164   -0.296863
     88          1           0       -8.382482    5.520356   -1.849850
     89          1           0       -6.904036    6.388264   -1.799505
     90          1           0       -7.290091    1.976631   -4.142186
     91          1           0       -7.268511    3.671584   -4.274261
     92          1           0       -9.461069    1.776677   -4.512810
     93          1           0       -9.371644    3.439897   -5.082876
     94          1           0       -9.993927    3.080417   -3.490979
     95          1           0       -8.322670   -3.616380   -2.367514
     96          1           0       -7.808946   -2.508810   -3.692237
     97          1           0       -8.962310   -1.906703   -2.549314
     98          1           0       -3.260091   -4.155216   -0.869484
     99          1           0       -3.925144   -7.236655    2.546921
    100          1           0       -3.323454   -5.797937    3.322100
    101          1           0       -2.151163   -6.945266    2.661200
    102          1           0        3.810941   -5.617088    1.679458
    103          1           0        3.893308   -3.870404    1.606997
    104          1           0        5.077417   -5.811383   -0.421763
    105          1           0        4.137685   -2.248715   -1.197158
    106          1           0        5.848082   -1.927198   -0.743824
    107          1           0        4.677599   -2.304859    0.580282
    108          1           0        6.422833   -3.396457   -2.491355
    109          1           0        5.755601   -5.007897   -2.466336
    110          1           0        7.695167   -5.842939   -1.609548
    111          1           0        7.522438   -4.671573   -0.327414
    112          1           0        8.430011   -3.783219   -3.063736
    113          1           0        9.477396   -4.815795   -2.084889
    114          1           0        8.740157   -2.703465   -0.274986
    115          1           0       10.819138   -2.640191    0.105649
    116          1           0       11.251896   -2.322742   -1.479003
    117          1           0       11.076164   -4.055450   -0.874533
    118          1           0        8.011237   -1.708282   -2.659806
    119          1           0        9.805606   -1.468759   -2.882714
    120          1           0        9.938975    0.325755   -1.763122
    121          1           0        9.360656   -0.498903   -0.352612
    122          1           0        6.949472    0.018700   -1.374316
    123          1           0        7.862407    1.121288   -2.344694
    124          1           0        8.185175    1.430931    0.523355
    125          1           0        5.832604    2.993735   -0.243332
    126          1           0        6.372354    2.422990    1.235183
    127          1           0        5.684330    1.207662    0.144287
    128          1           0        7.544868    3.745222   -1.275889
    129          1           0        8.839619    2.851733   -1.898650
    130          1           0        9.510901    3.014393    0.816828
    131          1           0        8.897351    4.548298    0.502644
    132          1           0       10.685907    4.183560   -1.759534
    133          1           0       11.527395    3.563873   -0.301431
    134          1           0       10.160994    6.276938   -0.597029
    135          1           0       11.968941    7.220548   -1.497437
    136          1           0       12.554303    5.729281   -1.936798
    137          1           0       13.129694    6.292717   -0.408195
    138          1           0       11.432276    4.838451    1.653160
    139          1           0       10.273887    6.178337    1.649032
    140          1           0       12.021619    6.530627    1.489318
 ---------------------------------------------------------------------

 SCF Done:  E(RCAM-B3LYP) =  -3007.16267247     A.U. after   15 cycles

 Excitation energies and oscillator strengths:

 Excited State   1:      Singlet-A      1.6705 eV  742.21 nm  f=0.3920  <S**2>=0.000
     245 -> 248       -0.16908
     246 -> 247        0.68868
     245 <- 248       -0.10646
 This state for optimization and/or second-order correction.
 Total Energy, E(TD-HF/TD-DFT) =  -3007.10128360
 Copying the excited state density for this state as the 1-particle RhoCI density.

 Excited State   2:      Singlet-A      2.2363 eV  554.42 nm  f=0.1289  <S**2>=0.000
     245 -> 247        0.64117
     246 -> 248        0.28116

 Excited State   3:      Singlet-A      3.1109 eV  398.55 nm  f=0.0035  <S**2>=0.000
     244 -> 247        0.68121

 Excited State   4:      Singlet-A      3.3110 eV  374.46 nm  f=0.0040  <S**2>=0.000
     242 -> 247       -0.16473
     243 -> 247        0.66061

 Excited State   5:      Singlet-A      3.5879 eV  345.56 nm  f=0.7332  <S**2>=0.000
     245 -> 247       -0.28091
     246 -> 248        0.59993
     246 -> 249       -0.11775
     246 -> 250       -0.14790
     245 <- 247        0.10854

 The electronic state is 1-A.
 Alpha  occ. eigenvalues --  -46.89241 -19.26143 -19.25205 -19.20743 -19.20656
 Alpha  occ. eigenvalues --  -19.19650 -19.17930 -14.42665 -14.41634 -14.39254
 Alpha  occ. eigenvalues --  -14.39080 -10.40213 -10.40152 -10.35333 -10.34459
 Alpha  occ. eigenvalues --  -10.32177 -10.31628 -10.31322 -10.31193 -10.30571
 Alpha  occ. eigenvalues --  -10.30429 -10.30219 -10.30138 -10.29416 -10.29012
 Alpha  occ. eigenvalues --  -10.28772 -10.28586 -10.28542 -10.28494 -10.28003
 Alpha  occ. eigenvalues --  -10.27922 -10.27588 -10.27540 -10.27524 -10.27330
 Alpha  occ. eigenvalues --  -10.27113 -10.26938 -10.26792 -10.26517 -10.26475
 Alpha  occ. eigenvalues --  -10.26460 -10.26421 -10.26228 -10.26030 -10.25906
 Alpha  occ. eigenvalues --  -10.25848 -10.25692 -10.25652 -10.25651 -10.25444
 Alpha  occ. eigenvalues --  -10.25390 -10.25351 -10.25286 -10.25210 -10.24997
 Alpha  occ. eigenvalues --  -10.24926 -10.24875 -10.24873 -10.24625 -10.24623
 Alpha  occ. eigenvalues --  -10.24534 -10.24463 -10.24453 -10.24452 -10.24252
 Alpha  occ. eigenvalues --  -10.24153  -3.17810  -1.92658  -1.92270  -1.92117
 Alpha  occ. eigenvalues --   -1.17751  -1.15300  -1.11652  -1.10161  -1.08846
 Alpha  occ. eigenvalues --   -1.07805  -1.04515  -1.03488  -1.02679  -1.01439
 Alpha  occ. eigenvalues --   -0.92677  -0.91471  -0.90037  -0.89352  -0.89153
 Alpha  occ. eigenvalues --   -0.88841  -0.88438  -0.87673  -0.87327  -0.86166
 Alpha  occ. eigenvalues --   -0.85675  -0.85374  -0.84762  -0.83898  -0.83259
 Alpha  occ. eigenvalues --   -0.82474  -0.81908  -0.81364  -0.80581  -0.80400
 Alpha  occ. eigenvalues --   -0.80111  -0.78098  -0.77786  -0.77263  -0.76659
 Alpha  occ. eigenvalues --   -0.76445  -0.75463  -0.75229  -0.74924  -0.74243
 Alpha  occ. eigenvalues --   -0.73111  -0.72400  -0.71662  -0.70179  -0.69485
 Alpha  occ. eigenvalues --   -0.69154  -0.68240  -0.66989  -0.66834  -0.65886
 Alpha  occ. eigenvalues --   -0.65285  -0.65074  -0.64490  -0.64409  -0.64223
 Alpha  occ. eigenvalues --   -0.63725  -0.63233  -0.62491  -0.62252  -0.59737
 Alpha  occ. eigenvalues --   -0.59497  -0.59129  -0.58979  -0.58814  -0.58273
 Alpha  occ. eigenvalues --   -0.57586  -0.57363  -0.56474  -0.56396  -0.55538
 Alpha  occ. eigenvalues --   -0.55385  -0.55124  -0.54544  -0.54243  -0.53927
 Alpha  occ. eigenvalues --   -0.53695  -0.53604  -0.53423  -0.53010  -0.52943
 Alpha  occ. eigenvalues --   -0.52851  -0.52347  -0.52132  -0.51899  -0.51742
 Alpha  occ. eigenvalues --   -0.51645  -0.51511  -0.51051  -0.50847  -0.50725
 Alpha  occ. eigenvalues --   -0.50375  -0.50282  -0.49959  -0.49862  -0.49824
 Alpha  occ. eigenvalues --   -0.49736  -0.49589  -0.49245  -0.49052  -0.48790
 Alpha  occ. eigenvalues --   -0.48738  -0.48565  -0.48451  -0.48052  -0.47765
 Alpha  occ. eigenvalues --   -0.47557  -0.47275  -0.46941  -0.46920  -0.46572
 Alpha  occ. eigenvalues --   -0.46302  -0.46206  -0.46154  -0.46046  -0.45909
 Alpha  occ. eigenvalues --   -0.45806  -0.45384  -0.45239  -0.45173  -0.45090
 Alpha  occ. eigenvalues --   -0.44907  -0.44630  -0.44516  -0.44053  -0.43918
 Alpha  occ. eigenvalues --   -0.43636  -0.43485  -0.43394  -0.43187  -0.42979
 Alpha  occ. eigenvalues --   -0.42756  -0.42595  -0.42491  -0.42474  -0.42309
 Alpha  occ. eigenvalues --   -0.42274  -0.41884  -0.41771  -0.41468  -0.41216
 Alpha  occ. eigenvalues --   -0.41002  -0.40730  -0.40575  -0.40434  -0.40368
 Alpha  occ. eigenvalues --   -0.40106  -0.39332  -0.39211  -0.39142  -0.38730
 Alpha  occ. eigenvalues --   -0.38367  -0.38044  -0.37943  -0.37437  -0.37425
 Alpha  occ. eigenvalues --   -0.37116  -0.37002  -0.36806  -0.36623  -0.36411
 Alpha  occ. eigenvalues --   -0.36366  -0.36252  -0.35014  -0.34786  -0.34673
 Alpha  occ. eigenvalues --   -0.34178  -0.34086  -0.33103  -0.31531  -0.31036
 Alpha  occ. eigenvalues --   -0.30441  -0.29631  -0.29589  -0.28673  -0.24231
 Alpha  occ. eigenvalues --   -0.21042
 Alpha virt. eigenvalues --   -0.08906  -0.01422   0.00555   0.01326   0.02715
 Alpha virt. eigenvalues --    0.04226   0.04460   0.04792   0.05795   0.07107
 Alpha virt. eigenvalues --    0.07851   0.08479   0.08562   0.09049   0.09080

 Mulliken charges:
               1
     1  Mg   0.850107
     2  C   -0.069969
     3  C   -0.046350
     4  C   -0.070514
     5  C   -0.117972
     6  N   -0.247450
     7  C   -0.052581
     8  C   -0.031576
     9  C   -0.062810
    10  C    0.025590
    11  C    0.090240
    12  C    0.104435
    13  C    0.064812
    14  C    0.150384
    15  O   -0.236169
    16  O   -0.285233
    17  N   -0.346076
    18  C    0.095566
    19  C   -0.125822
    20  C   -0.029304
    21  C    0.139927
    22  C    0.130568
    23  C   -0.009141
    24  O   -0.204485
    25  C    0.048607
    26  N   -0.372514
    27  C    0.069351
    28  C   -0.081028
    29  C    0.022302
    30  C    0.057750
    31  C    0.063612
    32  C    0.049815
    33  C    0.008786
    34  N   -0.354344
    35  C    0.126689
    36  C   -0.181282
    37  C   -0.063847
    38  C    0.146906
    39  C    0.135431
    40  C    0.052635
    41  O   -0.136548
    42  C    0.060001
    43  C    0.213397
    44  O   -0.206159
    45  O   -0.376191
    46  C    0.174701
    47  C    0.308191
    48  C   -0.139374
    49  C   -0.218959
    50  C    0.087007
    51  C    0.087089
    52  C    0.033635
    53  C    0.042993
    54  C   -0.171070
    55  C    0.058483
    56  C    0.075873
    57  C    0.053583
    58  C    0.041896
    59  C   -0.152722
    60  C    0.065976
    61  C    0.055755
    62  C    0.037623
    63  C    0.070998
    64  C   -0.191982
    65  C    0.050699
    66  C    0.033144
    67  H   -0.029172
    68  H   -0.056965
    69  H   -0.037619
    70  H    0.006945
    71  H    0.005822
    72  H    0.019094
    73  H    0.022028
    74  H    0.018065
    75  H    0.004627
    76  H    0.015631
    77  H    0.022042
    78  H    0.028631
    79  H    0.031098
    80  H    0.030278
    81  H    0.015250
    82  H    0.023859
    83  H    0.029839
    84  H    0.036871
    85  H    0.024554
    86  H    0.007076
    87  H    0.023829
    88  H    0.015669
    89  H    0.008880
    90  H    0.014322
    91  H   -0.000652
    92  H    0.015676
    93  H    0.013511
    94  H    0.015162
    95  H    0.047743
    96  H    0.030203
    97  H    0.012898
    98  H    0.041655
    99  H    0.044741
   100  H    0.036578
   101  H    0.047016
   102  H    0.009561
   103  H    0.019092
   104  H   -0.020892
   105  H    0.034413
   106  H    0.018473
   107  H    0.026404
   108  H   -0.020945
   109  H    0.011087
   110  H   -0.003746
   111  H   -0.005654
   112  H   -0.003708
   113  H   -0.013922
   114  H    0.003595
   115  H   -0.008513
   116  H   -0.007781
   117  H    0.027977
   118  H    0.005158
   119  H    0.001060
   120  H   -0.010035
   121  H   -0.012135
   122  H   -0.029278
   123  H   -0.015909
   124  H   -0.008005
   125  H    0.001529
   126  H    0.000940
   127  H    0.008241
   128  H   -0.007418
   129  H   -0.010110
   130  H   -0.008089
   131  H   -0.009640
   132  H    0.002213
   133  H   -0.000013
   134  H   -0.001562
   135  H    0.007890
   136  H   -0.014269
   137  H    0.012716
   138  H    0.006239
   139  H    0.011006
   140  H    0.015764
 Sum of Mulliken charges =  -0.00000

 Dipole moment (field-independent basis, Debye):
    X=              0.5127    Y=              1.3408    Z=             -2.5410  Tot=              2.9184
 Quadrupole moment (field-independent basis, Debye-Ang):
   XX=           -371.5042   YY=           -423.3534   ZZ=           -405.1586
   XY=            -41.6463   XZ=              7.7501   YZ=            -27.9808

 Normal termination of Gaussian 16 at Fri Apr 29 06:07:37 2022.
