 Gaussian 16, Revision A.03,
 Gaussian 16:  ES64L-G16RevA.03 25-Dec-2016

 ---------------------------------
 #p PBE1PBE/Def2SVP td=(nstates=5)
 ---------------------------------

 ---------------------------------------------------
 step_1_chromophore_23 TDDFT with PBE1PBE functional
 ---------------------------------------------------
 Symbolic Z-matrix:
 Charge =  0 Multiplicity = 1

                         Standard orientation:
 ---------------------------------------------------------------------
 Center     Atomic      Atomic             Coordinates (Angstroms)
 Number     Number       Type             X           Y           Z
 ---------------------------------------------------------------------
      1         12           0       -4.841159    1.030585    0.433485
      2          6           0       -4.003774   -2.447370    0.156314
      3          6           0       -1.848625    1.308846    2.364078
      4          6           0       -4.788810    4.363907    0.015052
      5          6           0       -7.195107    0.584978   -2.007144
      6          7           0       -3.158450   -0.408730    1.108273
      7          6           0       -3.046656   -1.753272    0.905319
      8          6           0       -1.763232   -2.342521    1.588065
      9          6           0       -1.377628   -1.152281    2.590776
     10          6           0       -2.115881    0.001217    1.930452
     11          6           0       -1.856271   -1.342340    4.011846
     12          6           0       -0.718223   -2.825969    0.596166
     13          6           0       -0.036380   -4.189301    0.881545
     14          6           0        1.424397   -4.257928    1.529063
     15          8           0        1.713377   -3.886388    2.663365
     16          8           0        2.265352   -4.792918    0.592404
     17          7           0       -3.533051    2.691655    1.192203
     18          6           0       -2.418131    2.553816    2.045139
     19          6           0       -1.920180    3.891551    2.388088
     20          6           0       -2.827732    4.807716    1.724202
     21          6           0       -3.692576    4.003711    0.887693
     22          6           0       -0.723102    4.220416    3.198195
     23          6           0       -2.835065    6.304597    1.907957
     24          8           0       -2.139714    6.776021    2.779436
     25          6           0       -3.664569    7.262234    1.083997
     26          7           0       -5.757341    2.200370   -0.883523
     27          6           0       -5.682252    3.582020   -0.731240
     28          6           0       -6.612930    4.207394   -1.772893
     29          6           0       -7.514754    3.009336   -2.246507
     30          6           0       -6.801001    1.851179   -1.635194
     31          6           0       -7.398779    5.512184   -1.380773
     32          6           0       -7.802496    2.864744   -3.772470
     33          6           0       -9.228358    2.798394   -4.213474
     34          7           0       -5.585556   -0.559712   -0.623622
     35          6           0       -6.613828   -0.619907   -1.547975
     36          6           0       -6.979828   -2.020780   -1.833031
     37          6           0       -5.899211   -2.753785   -1.205245
     38          6           0       -5.117203   -1.814737   -0.525756
     39          6           0       -8.113984   -2.584206   -2.648133
     40          6           0       -5.379990   -4.134927   -0.979707
     41          8           0       -5.739530   -5.185699   -1.428997
     42          6           0       -4.087568   -3.935608   -0.194663
     43          6           0       -4.173493   -4.771007    1.047694
     44          8           0       -5.001864   -4.488071    1.886375
     45          8           0       -3.185658   -5.791881    1.185676
     46          6           0       -3.129916   -6.492197    2.504667
     47          6           0        3.607039   -4.757759    1.041397
     48          6           0        4.647696   -4.877568   -0.060508
     49          6           0        5.146638   -3.899607   -0.856492
     50          6           0        4.927494   -2.444175   -0.471183
     51          6           0        6.188502   -4.232578   -1.833128
     52          6           0        7.547251   -4.782194   -1.411428
     53          6           0        8.693890   -4.059700   -2.043572
     54          6           0        9.205691   -2.759791   -1.258500
     55          6           0       10.675140   -3.042064   -0.897390
     56          6           0        8.975205   -1.536657   -2.179346
     57          6           0        9.092261   -0.242560   -1.378071
     58          6           0        7.856866    0.622678   -1.375305
     59          6           0        7.686526    1.801463   -0.372886
     60          6           0        6.295342    2.109676    0.194567
     61          6           0        8.358353    3.095872   -0.951813
     62          6           0        9.375763    3.713641   -0.008515
     63          6           0       10.709360    4.182992   -0.669817
     64          6           0       11.009826    5.648675   -0.327395
     65          6           0       12.243752    6.268752   -1.042569
     66          6           0       11.224451    5.827585    1.247117
     67          1           0       -0.969881    1.428787    3.001415
     68          1           0       -4.920244    5.422322   -0.215975
     69          1           0       -8.080658    0.473784   -2.635870
     70          1           0       -2.005683   -3.153483    2.274239
     71          1           0       -0.315331   -0.914471    2.536633
     72          1           0       -2.907268   -1.058443    4.060615
     73          1           0       -1.206485   -0.744091    4.650427
     74          1           0       -1.849477   -2.345333    4.439797
     75          1           0        0.080565   -2.085309    0.618764
     76          1           0       -1.137693   -2.723818   -0.404653
     77          1           0       -0.009523   -4.658261   -0.102341
     78          1           0       -0.628937   -4.843440    1.521256
     79          1           0       -1.087090    4.437166    4.202047
     80          1           0       -0.305358    5.165181    2.850192
     81          1           0        0.106162    3.515313    3.266678
     82          1           0       -3.472030    8.319766    1.263632
     83          1           0       -4.699444    7.060452    1.360710
     84          1           0       -3.674977    7.162789   -0.000775
     85          1           0       -5.896419    4.569986   -2.510511
     86          1           0       -8.432573    3.026059   -1.659533
     87          1           0       -7.453006    5.617164   -0.296863
     88          1           0       -8.382482    5.520356   -1.849850
     89          1           0       -6.904036    6.388264   -1.799505
     90          1           0       -7.290091    1.976631   -4.142186
     91          1           0       -7.268511    3.671584   -4.274261
     92          1           0       -9.461069    1.776677   -4.512810
     93          1           0       -9.371644    3.439897   -5.082876
     94          1           0       -9.993927    3.080417   -3.490979
     95          1           0       -8.322670   -3.616380   -2.367514
     96          1           0       -7.808946   -2.508810   -3.692237
     97          1           0       -8.962310   -1.906703   -2.549314
     98          1           0       -3.260091   -4.155216   -0.869484
     99          1           0       -3.925144   -7.236655    2.546921
    100          1           0       -3.323454   -5.797937    3.322100
    101          1           0       -2.151163   -6.945266    2.661200
    102          1           0        3.810941   -5.617088    1.679458
    103          1           0        3.893308   -3.870404    1.606997
    104          1           0        5.077417   -5.811383   -0.421763
    105          1           0        4.137685   -2.248715   -1.197158
    106          1           0        5.848082   -1.927198   -0.743824
    107          1           0        4.677599   -2.304859    0.580282
    108          1           0        6.422833   -3.396457   -2.491355
    109          1           0        5.755601   -5.007897   -2.466336
    110          1           0        7.695167   -5.842939   -1.609548
    111          1           0        7.522438   -4.671573   -0.327414
    112          1           0        8.430011   -3.783219   -3.063736
    113          1           0        9.477396   -4.815795   -2.084889
    114          1           0        8.740157   -2.703465   -0.274986
    115          1           0       10.819138   -2.640191    0.105649
    116          1           0       11.251896   -2.322742   -1.479003
    117          1           0       11.076164   -4.055450   -0.874533
    118          1           0        8.011237   -1.708282   -2.659806
    119          1           0        9.805606   -1.468759   -2.882714
    120          1           0        9.938975    0.325755   -1.763122
    121          1           0        9.360656   -0.498903   -0.352612
    122          1           0        6.949472    0.018700   -1.374316
    123          1           0        7.862407    1.121288   -2.344694
    124          1           0        8.185175    1.430931    0.523355
    125          1           0        5.832604    2.993735   -0.243332
    126          1           0        6.372354    2.422990    1.235183
    127          1           0        5.684330    1.207662    0.144287
    128          1           0        7.544868    3.745222   -1.275889
    129          1           0        8.839619    2.851733   -1.898650
    130          1           0        9.510901    3.014393    0.816828
    131          1           0        8.897351    4.548298    0.502644
    132          1           0       10.685907    4.183560   -1.759534
    133          1           0       11.527395    3.563873   -0.301431
    134          1           0       10.160994    6.276938   -0.597029
    135          1           0       11.968941    7.220548   -1.497437
    136          1           0       12.554303    5.729281   -1.936798
    137          1           0       13.129694    6.292717   -0.408195
    138          1           0       11.432276    4.838451    1.653160
    139          1           0       10.273887    6.178337    1.649032
    140          1           0       12.021619    6.530627    1.489318
 ---------------------------------------------------------------------

 SCF Done:  E(RPBE1PBE) =  -3005.35298677     A.U. after   15 cycles

 Excitation energies and oscillator strengths:

 Excited State   1:      Singlet-A      1.8355 eV  675.49 nm  f=0.3761  <S**2>=0.000
     245 -> 248       -0.16371
     246 -> 247        0.69678
     246 <- 247       -0.11956
 This state for optimization and/or second-order correction.
 Total Energy, E(TD-HF/TD-DFT) =  -3005.28553484
 Copying the excited state density for this state as the 1-particle RhoCI density.

 Excited State   2:      Singlet-A      2.2360 eV  554.50 nm  f=0.1190  <S**2>=0.000
     244 -> 247        0.10009
     245 -> 247        0.64834
     246 -> 248        0.25614

 Excited State   3:      Singlet-A      2.7705 eV  447.52 nm  f=0.0116  <S**2>=0.000
     244 -> 247        0.69139

 Excited State   4:      Singlet-A      2.9811 eV  415.89 nm  f=0.0036  <S**2>=0.000
     242 -> 247        0.68194

 Excited State   5:      Singlet-A      3.0089 eV  412.06 nm  f=0.0064  <S**2>=0.000
     241 -> 247        0.68339

 The electronic state is 1-A.
 Alpha  occ. eigenvalues --  -46.92640 -19.26822 -19.25796 -19.21031 -19.20778
 Alpha  occ. eigenvalues --  -19.19749 -19.18166 -14.42017 -14.41267 -14.38912
 Alpha  occ. eigenvalues --  -14.38730 -10.37260 -10.37102 -10.32393 -10.31619
 Alpha  occ. eigenvalues --  -10.29353 -10.29047 -10.29008 -10.28911 -10.28343
 Alpha  occ. eigenvalues --  -10.28095 -10.27863 -10.27823 -10.27187 -10.26693
 Alpha  occ. eigenvalues --  -10.26293 -10.26291 -10.26266 -10.26161 -10.25856
 Alpha  occ. eigenvalues --  -10.25686 -10.25388 -10.25289 -10.25055 -10.24877
 Alpha  occ. eigenvalues --  -10.24698 -10.24593 -10.24428 -10.24250 -10.24166
 Alpha  occ. eigenvalues --  -10.23979 -10.23977 -10.23856 -10.23771 -10.23325
 Alpha  occ. eigenvalues --  -10.23282 -10.23171 -10.23129 -10.23124 -10.23099
 Alpha  occ. eigenvalues --  -10.23065 -10.22973 -10.22762 -10.22729 -10.22551
 Alpha  occ. eigenvalues --  -10.22470 -10.22461 -10.22387 -10.22244 -10.22155
 Alpha  occ. eigenvalues --  -10.22092 -10.22030 -10.21869 -10.21839 -10.21662
 Alpha  occ. eigenvalues --  -10.21545  -3.14787  -1.87573  -1.87167  -1.87016
 Alpha  occ. eigenvalues --   -1.12585  -1.09939  -1.06323  -1.04932  -1.03703
 Alpha  occ. eigenvalues --   -1.02565  -0.99150  -0.98097  -0.97265  -0.96108
 Alpha  occ. eigenvalues --   -0.86947  -0.85610  -0.84148  -0.83656  -0.83344
 Alpha  occ. eigenvalues --   -0.82958  -0.82760  -0.81957  -0.81435  -0.80476
 Alpha  occ. eigenvalues --   -0.79951  -0.79595  -0.78985  -0.78205  -0.77498
 Alpha  occ. eigenvalues --   -0.76682  -0.76128  -0.75549  -0.74798  -0.74632
 Alpha  occ. eigenvalues --   -0.74382  -0.72419  -0.72023  -0.71543  -0.70939
 Alpha  occ. eigenvalues --   -0.70621  -0.69615  -0.69611  -0.69016  -0.68395
 Alpha  occ. eigenvalues --   -0.67483  -0.66807  -0.66096  -0.64465  -0.63841
 Alpha  occ. eigenvalues --   -0.63383  -0.62688  -0.61325  -0.61156  -0.60333
 Alpha  occ. eigenvalues --   -0.59647  -0.59468  -0.59071  -0.58855  -0.58731
 Alpha  occ. eigenvalues --   -0.57867  -0.57400  -0.56791  -0.56659  -0.54281
 Alpha  occ. eigenvalues --   -0.53917  -0.53700  -0.53389  -0.53213  -0.52930
 Alpha  occ. eigenvalues --   -0.52167  -0.51657  -0.51031  -0.50889  -0.50082
 Alpha  occ. eigenvalues --   -0.49988  -0.49641  -0.48964  -0.48707  -0.48430
 Alpha  occ. eigenvalues --   -0.48161  -0.48119  -0.47853  -0.47631  -0.47450
 Alpha  occ. eigenvalues --   -0.47364  -0.46890  -0.46667  -0.46370  -0.46223
 Alpha  occ. eigenvalues --   -0.46170  -0.46014  -0.45518  -0.45380  -0.45312
 Alpha  occ. eigenvalues --   -0.45011  -0.44868  -0.44519  -0.44402  -0.44389
 Alpha  occ. eigenvalues --   -0.44315  -0.44154  -0.43862  -0.43717  -0.43354
 Alpha  occ. eigenvalues --   -0.43303  -0.43212  -0.43099  -0.42661  -0.42390
 Alpha  occ. eigenvalues --   -0.42234  -0.41918  -0.41660  -0.41607  -0.41198
 Alpha  occ. eigenvalues --   -0.41000  -0.40898  -0.40799  -0.40744  -0.40618
 Alpha  occ. eigenvalues --   -0.40579  -0.40057  -0.39916  -0.39846  -0.39693
 Alpha  occ. eigenvalues --   -0.39624  -0.39339  -0.39179  -0.38719  -0.38680
 Alpha  occ. eigenvalues --   -0.38416  -0.38304  -0.38194  -0.37997  -0.37780
 Alpha  occ. eigenvalues --   -0.37593  -0.37425  -0.37364  -0.37274  -0.37081
 Alpha  occ. eigenvalues --   -0.37008  -0.36647  -0.36608  -0.36309  -0.35936
 Alpha  occ. eigenvalues --   -0.35885  -0.35539  -0.35397  -0.35332  -0.35156
 Alpha  occ. eigenvalues --   -0.35025  -0.34170  -0.34143  -0.33929  -0.33518
 Alpha  occ. eigenvalues --   -0.33204  -0.32987  -0.32703  -0.32441  -0.32242
 Alpha  occ. eigenvalues --   -0.32044  -0.31921  -0.31690  -0.31596  -0.31418
 Alpha  occ. eigenvalues --   -0.31243  -0.31063  -0.29764  -0.29702  -0.29676
 Alpha  occ. eigenvalues --   -0.29159  -0.29049  -0.28741  -0.26765  -0.26266
 Alpha  occ. eigenvalues --   -0.25242  -0.25161  -0.24944  -0.24320  -0.21116
 Alpha  occ. eigenvalues --   -0.18687
 Alpha virt. eigenvalues --   -0.11307  -0.04940  -0.03455  -0.01873  -0.01461
 Alpha virt. eigenvalues --   -0.00327  -0.00131   0.00268   0.01411   0.03167
 Alpha virt. eigenvalues --    0.04032   0.05017   0.05192   0.05561   0.05828

 Mulliken charges:
               1
     1  Mg   0.989803
     2  C   -0.077945
     3  C   -0.045076
     4  C   -0.072864
     5  C   -0.103644
     6  N   -0.347701
     7  C    0.022140
     8  C   -0.095370
     9  C   -0.144836
    10  C    0.064812
    11  C    0.036987
    12  C    0.056839
    13  C   -0.013229
    14  C    0.211519
    15  O   -0.268373
    16  O   -0.314881
    17  N   -0.449786
    18  C    0.126175
    19  C   -0.156327
    20  C   -0.078539
    21  C    0.176199
    22  C    0.072243
    23  C    0.039249
    24  O   -0.238899
    25  C   -0.023529
    26  N   -0.482897
    27  C    0.101946
    28  C   -0.152278
    29  C   -0.059306
    30  C    0.098371
    31  C    0.001843
    32  C   -0.017284
    33  C   -0.060692
    34  N   -0.478943
    35  C    0.137341
    36  C   -0.187575
    37  C   -0.111381
    38  C    0.195768
    39  C    0.077588
    40  C    0.153057
    41  O   -0.185064
    42  C   -0.059267
    43  C    0.302876
    44  O   -0.238057
    45  O   -0.408321
    46  C    0.118339
    47  C    0.260296
    48  C   -0.150109
    49  C   -0.248466
    50  C    0.008634
    51  C    0.016749
    52  C   -0.026114
    53  C   -0.017678
    54  C   -0.253163
    55  C    0.002395
    56  C    0.014676
    57  C   -0.005817
    58  C   -0.022657
    59  C   -0.235781
    60  C    0.007815
    61  C    0.004521
    62  C   -0.022907
    63  C    0.010178
    64  C   -0.282360
    65  C   -0.009069
    66  C   -0.028610
    67  H    0.002023
    68  H   -0.020838
    69  H   -0.001924
    70  H    0.047611
    71  H    0.041248
    72  H    0.047348
    73  H    0.049363
    74  H    0.045119
    75  H    0.037980
    76  H    0.047609
    77  H    0.054528
    78  H    0.064677
    79  H    0.060106
    80  H    0.058064
    81  H    0.041358
    82  H    0.051917
    83  H    0.056993
    84  H    0.061924
    85  H    0.062267
    86  H    0.046361
    87  H    0.051432
    88  H    0.044390
    89  H    0.036206
    90  H    0.047813
    91  H    0.032728
    92  H    0.042154
    93  H    0.041702
    94  H    0.041843
    95  H    0.074647
    96  H    0.059130
    97  H    0.040463
    98  H    0.078296
    99  H    0.067107
   100  H    0.057339
   101  H    0.067162
   102  H    0.038195
   103  H    0.045431
   104  H    0.010595
   105  H    0.063927
   106  H    0.054490
   107  H    0.052648
   108  H    0.014079
   109  H    0.045404
   110  H    0.028047
   111  H    0.028637
   112  H    0.029304
   113  H    0.019264
   114  H    0.040149
   115  H    0.019583
   116  H    0.020732
   117  H    0.053463
   118  H    0.037685
   119  H    0.034171
   120  H    0.022528
   121  H    0.020338
   122  H    0.008131
   123  H    0.019719
   124  H    0.029869
   125  H    0.028305
   126  H    0.028925
   127  H    0.035456
   128  H    0.024602
   129  H    0.021665
   130  H    0.023551
   131  H    0.023411
   132  H    0.034315
   133  H    0.032917
   134  H    0.036709
   135  H    0.035547
   136  H    0.013508
   137  H    0.039335
   138  H    0.034463
   139  H    0.038243
   140  H    0.042940
 Sum of Mulliken charges =  -0.00000

 Dipole moment (field-independent basis, Debye):
    X=              0.4938    Y=              1.4957    Z=             -2.6001  Tot=              3.0400
 Quadrupole moment (field-independent basis, Debye-Ang):
   XX=           -365.8032   YY=           -420.3534   ZZ=           -401.6812
   XY=            -43.2485   XZ=              9.1003   YZ=            -28.3116

 Normal termination of Gaussian 16 at Fri Apr 29 06:25:06 2022.
