 Gaussian 16, Revision A.03,
 Gaussian 16:  ES64L-G16RevA.03 25-Dec-2016

 --------------------------------
 #p wB97XD/Def2SVP td=(nstates=5)
 --------------------------------

 --------------------------------------------------
 step_1_chromophore_23 TDDFT with wB97XD functional
 --------------------------------------------------
 Symbolic Z-matrix:
 Charge =  0 Multiplicity = 1

                         Standard orientation:
 ---------------------------------------------------------------------
 Center     Atomic      Atomic             Coordinates (Angstroms)
 Number     Number       Type             X           Y           Z
 ---------------------------------------------------------------------
      1         12           0       -4.841159    1.030585    0.433485
      2          6           0       -4.003774   -2.447370    0.156314
      3          6           0       -1.848625    1.308846    2.364078
      4          6           0       -4.788810    4.363907    0.015052
      5          6           0       -7.195107    0.584978   -2.007144
      6          7           0       -3.158450   -0.408730    1.108273
      7          6           0       -3.046656   -1.753272    0.905319
      8          6           0       -1.763232   -2.342521    1.588065
      9          6           0       -1.377628   -1.152281    2.590776
     10          6           0       -2.115881    0.001217    1.930452
     11          6           0       -1.856271   -1.342340    4.011846
     12          6           0       -0.718223   -2.825969    0.596166
     13          6           0       -0.036380   -4.189301    0.881545
     14          6           0        1.424397   -4.257928    1.529063
     15          8           0        1.713377   -3.886388    2.663365
     16          8           0        2.265352   -4.792918    0.592404
     17          7           0       -3.533051    2.691655    1.192203
     18          6           0       -2.418131    2.553816    2.045139
     19          6           0       -1.920180    3.891551    2.388088
     20          6           0       -2.827732    4.807716    1.724202
     21          6           0       -3.692576    4.003711    0.887693
     22          6           0       -0.723102    4.220416    3.198195
     23          6           0       -2.835065    6.304597    1.907957
     24          8           0       -2.139714    6.776021    2.779436
     25          6           0       -3.664569    7.262234    1.083997
     26          7           0       -5.757341    2.200370   -0.883523
     27          6           0       -5.682252    3.582020   -0.731240
     28          6           0       -6.612930    4.207394   -1.772893
     29          6           0       -7.514754    3.009336   -2.246507
     30          6           0       -6.801001    1.851179   -1.635194
     31          6           0       -7.398779    5.512184   -1.380773
     32          6           0       -7.802496    2.864744   -3.772470
     33          6           0       -9.228358    2.798394   -4.213474
     34          7           0       -5.585556   -0.559712   -0.623622
     35          6           0       -6.613828   -0.619907   -1.547975
     36          6           0       -6.979828   -2.020780   -1.833031
     37          6           0       -5.899211   -2.753785   -1.205245
     38          6           0       -5.117203   -1.814737   -0.525756
     39          6           0       -8.113984   -2.584206   -2.648133
     40          6           0       -5.379990   -4.134927   -0.979707
     41          8           0       -5.739530   -5.185699   -1.428997
     42          6           0       -4.087568   -3.935608   -0.194663
     43          6           0       -4.173493   -4.771007    1.047694
     44          8           0       -5.001864   -4.488071    1.886375
     45          8           0       -3.185658   -5.791881    1.185676
     46          6           0       -3.129916   -6.492197    2.504667
     47          6           0        3.607039   -4.757759    1.041397
     48          6           0        4.647696   -4.877568   -0.060508
     49          6           0        5.146638   -3.899607   -0.856492
     50          6           0        4.927494   -2.444175   -0.471183
     51          6           0        6.188502   -4.232578   -1.833128
     52          6           0        7.547251   -4.782194   -1.411428
     53          6           0        8.693890   -4.059700   -2.043572
     54          6           0        9.205691   -2.759791   -1.258500
     55          6           0       10.675140   -3.042064   -0.897390
     56          6           0        8.975205   -1.536657   -2.179346
     57          6           0        9.092261   -0.242560   -1.378071
     58          6           0        7.856866    0.622678   -1.375305
     59          6           0        7.686526    1.801463   -0.372886
     60          6           0        6.295342    2.109676    0.194567
     61          6           0        8.358353    3.095872   -0.951813
     62          6           0        9.375763    3.713641   -0.008515
     63          6           0       10.709360    4.182992   -0.669817
     64          6           0       11.009826    5.648675   -0.327395
     65          6           0       12.243752    6.268752   -1.042569
     66          6           0       11.224451    5.827585    1.247117
     67          1           0       -0.969881    1.428787    3.001415
     68          1           0       -4.920244    5.422322   -0.215975
     69          1           0       -8.080658    0.473784   -2.635870
     70          1           0       -2.005683   -3.153483    2.274239
     71          1           0       -0.315331   -0.914471    2.536633
     72          1           0       -2.907268   -1.058443    4.060615
     73          1           0       -1.206485   -0.744091    4.650427
     74          1           0       -1.849477   -2.345333    4.439797
     75          1           0        0.080565   -2.085309    0.618764
     76          1           0       -1.137693   -2.723818   -0.404653
     77          1           0       -0.009523   -4.658261   -0.102341
     78          1           0       -0.628937   -4.843440    1.521256
     79          1           0       -1.087090    4.437166    4.202047
     80          1           0       -0.305358    5.165181    2.850192
     81          1           0        0.106162    3.515313    3.266678
     82          1           0       -3.472030    8.319766    1.263632
     83          1           0       -4.699444    7.060452    1.360710
     84          1           0       -3.674977    7.162789   -0.000775
     85          1           0       -5.896419    4.569986   -2.510511
     86          1           0       -8.432573    3.026059   -1.659533
     87          1           0       -7.453006    5.617164   -0.296863
     88          1           0       -8.382482    5.520356   -1.849850
     89          1           0       -6.904036    6.388264   -1.799505
     90          1           0       -7.290091    1.976631   -4.142186
     91          1           0       -7.268511    3.671584   -4.274261
     92          1           0       -9.461069    1.776677   -4.512810
     93          1           0       -9.371644    3.439897   -5.082876
     94          1           0       -9.993927    3.080417   -3.490979
     95          1           0       -8.322670   -3.616380   -2.367514
     96          1           0       -7.808946   -2.508810   -3.692237
     97          1           0       -8.962310   -1.906703   -2.549314
     98          1           0       -3.260091   -4.155216   -0.869484
     99          1           0       -3.925144   -7.236655    2.546921
    100          1           0       -3.323454   -5.797937    3.322100
    101          1           0       -2.151163   -6.945266    2.661200
    102          1           0        3.810941   -5.617088    1.679458
    103          1           0        3.893308   -3.870404    1.606997
    104          1           0        5.077417   -5.811383   -0.421763
    105          1           0        4.137685   -2.248715   -1.197158
    106          1           0        5.848082   -1.927198   -0.743824
    107          1           0        4.677599   -2.304859    0.580282
    108          1           0        6.422833   -3.396457   -2.491355
    109          1           0        5.755601   -5.007897   -2.466336
    110          1           0        7.695167   -5.842939   -1.609548
    111          1           0        7.522438   -4.671573   -0.327414
    112          1           0        8.430011   -3.783219   -3.063736
    113          1           0        9.477396   -4.815795   -2.084889
    114          1           0        8.740157   -2.703465   -0.274986
    115          1           0       10.819138   -2.640191    0.105649
    116          1           0       11.251896   -2.322742   -1.479003
    117          1           0       11.076164   -4.055450   -0.874533
    118          1           0        8.011237   -1.708282   -2.659806
    119          1           0        9.805606   -1.468759   -2.882714
    120          1           0        9.938975    0.325755   -1.763122
    121          1           0        9.360656   -0.498903   -0.352612
    122          1           0        6.949472    0.018700   -1.374316
    123          1           0        7.862407    1.121288   -2.344694
    124          1           0        8.185175    1.430931    0.523355
    125          1           0        5.832604    2.993735   -0.243332
    126          1           0        6.372354    2.422990    1.235183
    127          1           0        5.684330    1.207662    0.144287
    128          1           0        7.544868    3.745222   -1.275889
    129          1           0        8.839619    2.851733   -1.898650
    130          1           0        9.510901    3.014393    0.816828
    131          1           0        8.897351    4.548298    0.502644
    132          1           0       10.685907    4.183560   -1.759534
    133          1           0       11.527395    3.563873   -0.301431
    134          1           0       10.160994    6.276938   -0.597029
    135          1           0       11.968941    7.220548   -1.497437
    136          1           0       12.554303    5.729281   -1.936798
    137          1           0       13.129694    6.292717   -0.408195
    138          1           0       11.432276    4.838451    1.653160
    139          1           0       10.273887    6.178337    1.649032
    140          1           0       12.021619    6.530627    1.489318
 ---------------------------------------------------------------------

 SCF Done:  E(RwB97XD) =  -3007.86170377     A.U. after   17 cycles

 Excitation energies and oscillator strengths:

 Excited State   1:      Singlet-A      1.6103 eV  769.94 nm  f=0.3919  <S**2>=0.000
     245 -> 248       -0.17500
     246 -> 247        0.68623
     245 <- 248       -0.11578
 This state for optimization and/or second-order correction.
 Total Energy, E(TD-HF/TD-DFT) =  -3007.80252585
 Copying the excited state density for this state as the 1-particle RhoCI density.

 Excited State   2:      Singlet-A      2.1829 eV  567.98 nm  f=0.1256  <S**2>=0.000
     245 -> 247        0.63927
     246 -> 248        0.28400

 Excited State   3:      Singlet-A      3.1506 eV  393.53 nm  f=0.0019  <S**2>=0.000
     242 -> 247       -0.11515
     244 -> 247        0.66955
     246 -> 248       -0.10383

 Excited State   4:      Singlet-A      3.3313 eV  372.18 nm  f=0.0016  <S**2>=0.000
     242 -> 247        0.66229
     244 -> 247        0.10222
     246 -> 248       -0.11738

 Excited State   5:      Singlet-A      3.6159 eV  342.89 nm  f=0.8390  <S**2>=0.000
     240 -> 247        0.12242
     245 -> 247       -0.29644
     246 -> 248        0.60445
     245 <- 247        0.11908

 The electronic state is 1-A.
 Alpha  occ. eigenvalues --  -46.95581 -19.31412 -19.30461 -19.25720 -19.25607
 Alpha  occ. eigenvalues --  -19.24713 -19.22917 -14.47308 -14.46187 -14.43856
 Alpha  occ. eigenvalues --  -14.43668 -10.44070 -10.44046 -10.39366 -10.38396
 Alpha  occ. eigenvalues --  -10.35946 -10.35540 -10.35359 -10.35230 -10.34579
 Alpha  occ. eigenvalues --  -10.34394 -10.34244 -10.34186 -10.33435 -10.33021
 Alpha  occ. eigenvalues --  -10.32839 -10.32775 -10.32688 -10.32638 -10.32036
 Alpha  occ. eigenvalues --  -10.31995 -10.31566 -10.31559 -10.31524 -10.31289
 Alpha  occ. eigenvalues --  -10.31188 -10.30970 -10.30776 -10.30542 -10.30441
 Alpha  occ. eigenvalues --  -10.30343 -10.30287 -10.30204 -10.30032 -10.29738
 Alpha  occ. eigenvalues --  -10.29698 -10.29595 -10.29535 -10.29506 -10.29495
 Alpha  occ. eigenvalues --  -10.29342 -10.29338 -10.29194 -10.29140 -10.28916
 Alpha  occ. eigenvalues --  -10.28842 -10.28827 -10.28782 -10.28572 -10.28540
 Alpha  occ. eigenvalues --  -10.28470 -10.28391 -10.28288 -10.28272 -10.28079
 Alpha  occ. eigenvalues --  -10.27965  -3.21615  -1.95147  -1.94737  -1.94585
 Alpha  occ. eigenvalues --   -1.19980  -1.17463  -1.13917  -1.12348  -1.11070
 Alpha  occ. eigenvalues --   -1.10037  -1.06498  -1.05501  -1.04704  -1.03466
 Alpha  occ. eigenvalues --   -0.94676  -0.93273  -0.91813  -0.91207  -0.91002
 Alpha  occ. eigenvalues --   -0.90620  -0.90334  -0.89588  -0.89101  -0.88104
 Alpha  occ. eigenvalues --   -0.87594  -0.87253  -0.86640  -0.85788  -0.85162
 Alpha  occ. eigenvalues --   -0.84337  -0.83809  -0.83240  -0.82462  -0.82292
 Alpha  occ. eigenvalues --   -0.82050  -0.80017  -0.79701  -0.79195  -0.78603
 Alpha  occ. eigenvalues --   -0.78295  -0.77286  -0.77175  -0.76714  -0.76068
 Alpha  occ. eigenvalues --   -0.75066  -0.74377  -0.73631  -0.72095  -0.71376
 Alpha  occ. eigenvalues --   -0.71029  -0.70254  -0.68884  -0.68779  -0.67796
 Alpha  occ. eigenvalues --   -0.67199  -0.67037  -0.66498  -0.66381  -0.66224
 Alpha  occ. eigenvalues --   -0.65541  -0.65057  -0.64311  -0.64271  -0.61742
 Alpha  occ. eigenvalues --   -0.61443  -0.61125  -0.60958  -0.60732  -0.60269
 Alpha  occ. eigenvalues --   -0.59568  -0.59224  -0.58431  -0.58352  -0.57482
 Alpha  occ. eigenvalues --   -0.57368  -0.57069  -0.56427  -0.56147  -0.55861
 Alpha  occ. eigenvalues --   -0.55577  -0.55547  -0.55289  -0.54971  -0.54836
 Alpha  occ. eigenvalues --   -0.54740  -0.54235  -0.54032  -0.53766  -0.53670
 Alpha  occ. eigenvalues --   -0.53589  -0.53411  -0.52976  -0.52763  -0.52643
 Alpha  occ. eigenvalues --   -0.52277  -0.52167  -0.51873  -0.51777  -0.51719
 Alpha  occ. eigenvalues --   -0.51649  -0.51505  -0.51180  -0.50952  -0.50678
 Alpha  occ. eigenvalues --   -0.50622  -0.50495  -0.50370  -0.49932  -0.49645
 Alpha  occ. eigenvalues --   -0.49462  -0.49155  -0.48898  -0.48839  -0.48525
 Alpha  occ. eigenvalues --   -0.48251  -0.48136  -0.48038  -0.47989  -0.47834
 Alpha  occ. eigenvalues --   -0.47716  -0.47262  -0.47161  -0.47096  -0.46948
 Alpha  occ. eigenvalues --   -0.46850  -0.46575  -0.46390  -0.45904  -0.45834
 Alpha  occ. eigenvalues --   -0.45546  -0.45436  -0.45330  -0.45126  -0.44877
 Alpha  occ. eigenvalues --   -0.44661  -0.44507  -0.44433  -0.44399  -0.44251
 Alpha  occ. eigenvalues --   -0.44157  -0.43758  -0.43696  -0.43459  -0.43073
 Alpha  occ. eigenvalues --   -0.42883  -0.42629  -0.42442  -0.42328  -0.42228
 Alpha  occ. eigenvalues --   -0.41989  -0.41211  -0.41101  -0.40987  -0.40584
 Alpha  occ. eigenvalues --   -0.40232  -0.39959  -0.39784  -0.39400  -0.39270
 Alpha  occ. eigenvalues --   -0.39143  -0.39005  -0.38695  -0.38649  -0.38339
 Alpha  occ. eigenvalues --   -0.38241  -0.38096  -0.36956  -0.36685  -0.36599
 Alpha  occ. eigenvalues --   -0.36140  -0.35927  -0.35373  -0.33557  -0.33242
 Alpha  occ. eigenvalues --   -0.32344  -0.31774  -0.31677  -0.30845  -0.26146
 Alpha  occ. eigenvalues --   -0.22831
 Alpha virt. eigenvalues --   -0.07257   0.00515   0.02805   0.04323   0.04902
 Alpha virt. eigenvalues --    0.06414   0.06586   0.07039   0.08174   0.09822
 Alpha virt. eigenvalues --    0.10618   0.11725   0.11817   0.12152   0.12548

 Mulliken charges:
               1
     1  Mg   0.981480
     2  C   -0.077399
     3  C   -0.053853
     4  C   -0.080333
     5  C   -0.124595
     6  N   -0.312124
     7  C   -0.012528
     8  C   -0.068944
     9  C   -0.114761
    10  C    0.046972
    11  C    0.043039
    12  C    0.064017
    13  C    0.007803
    14  C    0.203471
    15  O   -0.266366
    16  O   -0.314990
    17  N   -0.419704
    18  C    0.112695
    19  C   -0.143609
    20  C   -0.073835
    21  C    0.168673
    22  C    0.081159
    23  C    0.035373
    24  O   -0.234939
    25  C   -0.011954
    26  N   -0.451975
    27  C    0.092268
    28  C   -0.128599
    29  C   -0.033664
    30  C    0.089072
    31  C    0.013911
    32  C    0.001103
    33  C   -0.047168
    34  N   -0.441953
    35  C    0.134897
    36  C   -0.189800
    37  C   -0.106102
    38  C    0.177712
    39  C    0.090764
    40  C    0.132251
    41  O   -0.174350
    42  C   -0.015036
    43  C    0.278878
    44  O   -0.233760
    45  O   -0.405953
    46  C    0.132576
    47  C    0.278452
    48  C   -0.159206
    49  C   -0.237615
    50  C    0.036401
    51  C    0.038803
    52  C   -0.011175
    53  C    0.004463
    54  C   -0.226802
    55  C    0.012662
    56  C    0.034259
    57  C    0.010469
    58  C    0.005532
    59  C   -0.208807
    60  C    0.021246
    61  C    0.020561
    62  C   -0.007084
    63  C    0.025569
    64  C   -0.251904
    65  C    0.001813
    66  C   -0.016308
    67  H   -0.004316
    68  H   -0.037802
    69  H   -0.012160
    70  H    0.029015
    71  H    0.033044
    72  H    0.040306
    73  H    0.044343
    74  H    0.040456
    75  H    0.029801
    76  H    0.040112
    77  H    0.050325
    78  H    0.052846
    79  H    0.055829
    80  H    0.053339
    81  H    0.037676
    82  H    0.051006
    83  H    0.050170
    84  H    0.057733
    85  H    0.051233
    86  H    0.033521
    87  H    0.044868
    88  H    0.038217
    89  H    0.030838
    90  H    0.038547
    91  H    0.025100
    92  H    0.036218
    93  H    0.036686
    94  H    0.035819
    95  H    0.071424
    96  H    0.053508
    97  H    0.034281
    98  H    0.072322
    99  H    0.063883
   100  H    0.053314
   101  H    0.064849
   102  H    0.033851
   103  H    0.037650
   104  H    0.005141
   105  H    0.057528
   106  H    0.034923
   107  H    0.047523
   108  H    0.000855
   109  H    0.037563
   110  H    0.022369
   111  H    0.016268
   112  H    0.018921
   113  H    0.010680
   114  H    0.026973
   115  H    0.013316
   116  H    0.012943
   117  H    0.048902
   118  H    0.023507
   119  H    0.025967
   120  H    0.014603
   121  H    0.008734
   122  H   -0.008370
   123  H    0.008320
   124  H    0.015236
   125  H    0.021686
   126  H    0.022993
   127  H    0.029263
   128  H    0.016301
   129  H    0.009251
   130  H    0.014529
   131  H    0.013061
   132  H    0.025004
   133  H    0.024578
   134  H    0.025287
   135  H    0.030367
   136  H    0.007381
   137  H    0.033147
   138  H    0.026798
   139  H    0.031966
   140  H    0.037484
 Sum of Mulliken charges =  -0.00000

 Dipole moment (field-independent basis, Debye):
    X=              0.5404    Y=              1.3420    Z=             -2.5021  Tot=              2.8903
 Quadrupole moment (field-independent basis, Debye-Ang):
   XX=           -366.5170   YY=           -419.0657   ZZ=           -401.7565
   XY=            -42.1308   XZ=              8.4083   YZ=            -28.1936

 Normal termination of Gaussian 16 at Fri Apr 29 06:58:24 2022.
