 Gaussian 16, Revision A.03,
 Gaussian 16:  ES64L-G16RevA.03 25-Dec-2016

 --------------------
 #p ZINDO=(nstates=5)
 --------------------

 ---------------------------
 step_1_chromophore_23 ZINDO
 ---------------------------
 Symbolic Z-matrix:
 Charge =  0 Multiplicity = 1

                         Standard orientation:
 ---------------------------------------------------------------------
 Center     Atomic      Atomic             Coordinates (Angstroms)
 Number     Number       Type             X           Y           Z
 ---------------------------------------------------------------------
      1         12           0       -4.841159    1.030585    0.433485
      2          6           0       -4.003774   -2.447370    0.156314
      3          6           0       -1.848625    1.308846    2.364078
      4          6           0       -4.788810    4.363907    0.015052
      5          6           0       -7.195107    0.584978   -2.007144
      6          7           0       -3.158450   -0.408730    1.108273
      7          6           0       -3.046656   -1.753272    0.905319
      8          6           0       -1.763232   -2.342521    1.588065
      9          6           0       -1.377628   -1.152281    2.590776
     10          6           0       -2.115881    0.001217    1.930452
     11          6           0       -1.856271   -1.342340    4.011846
     12          6           0       -0.718223   -2.825969    0.596166
     13          6           0       -0.036380   -4.189301    0.881545
     14          6           0        1.424397   -4.257928    1.529063
     15          8           0        1.713377   -3.886388    2.663365
     16          8           0        2.265352   -4.792918    0.592404
     17          7           0       -3.533051    2.691655    1.192203
     18          6           0       -2.418131    2.553816    2.045139
     19          6           0       -1.920180    3.891551    2.388088
     20          6           0       -2.827732    4.807716    1.724202
     21          6           0       -3.692576    4.003711    0.887693
     22          6           0       -0.723102    4.220416    3.198195
     23          6           0       -2.835065    6.304597    1.907957
     24          8           0       -2.139714    6.776021    2.779436
     25          6           0       -3.664569    7.262234    1.083997
     26          7           0       -5.757341    2.200370   -0.883523
     27          6           0       -5.682252    3.582020   -0.731240
     28          6           0       -6.612930    4.207394   -1.772893
     29          6           0       -7.514754    3.009336   -2.246507
     30          6           0       -6.801001    1.851179   -1.635194
     31          6           0       -7.398779    5.512184   -1.380773
     32          6           0       -7.802496    2.864744   -3.772470
     33          6           0       -9.228358    2.798394   -4.213474
     34          7           0       -5.585556   -0.559712   -0.623622
     35          6           0       -6.613828   -0.619907   -1.547975
     36          6           0       -6.979828   -2.020780   -1.833031
     37          6           0       -5.899211   -2.753785   -1.205245
     38          6           0       -5.117203   -1.814737   -0.525756
     39          6           0       -8.113984   -2.584206   -2.648133
     40          6           0       -5.379990   -4.134927   -0.979707
     41          8           0       -5.739530   -5.185699   -1.428997
     42          6           0       -4.087568   -3.935608   -0.194663
     43          6           0       -4.173493   -4.771007    1.047694
     44          8           0       -5.001864   -4.488071    1.886375
     45          8           0       -3.185658   -5.791881    1.185676
     46          6           0       -3.129916   -6.492197    2.504667
     47          6           0        3.607039   -4.757759    1.041397
     48          6           0        4.647696   -4.877568   -0.060508
     49          6           0        5.146638   -3.899607   -0.856492
     50          6           0        4.927494   -2.444175   -0.471183
     51          6           0        6.188502   -4.232578   -1.833128
     52          6           0        7.547251   -4.782194   -1.411428
     53          6           0        8.693890   -4.059700   -2.043572
     54          6           0        9.205691   -2.759791   -1.258500
     55          6           0       10.675140   -3.042064   -0.897390
     56          6           0        8.975205   -1.536657   -2.179346
     57          6           0        9.092261   -0.242560   -1.378071
     58          6           0        7.856866    0.622678   -1.375305
     59          6           0        7.686526    1.801463   -0.372886
     60          6           0        6.295342    2.109676    0.194567
     61          6           0        8.358353    3.095872   -0.951813
     62          6           0        9.375763    3.713641   -0.008515
     63          6           0       10.709360    4.182992   -0.669817
     64          6           0       11.009826    5.648675   -0.327395
     65          6           0       12.243752    6.268752   -1.042569
     66          6           0       11.224451    5.827585    1.247117
     67          1           0       -0.969881    1.428787    3.001415
     68          1           0       -4.920244    5.422322   -0.215975
     69          1           0       -8.080658    0.473784   -2.635870
     70          1           0       -2.005683   -3.153483    2.274239
     71          1           0       -0.315331   -0.914471    2.536633
     72          1           0       -2.907268   -1.058443    4.060615
     73          1           0       -1.206485   -0.744091    4.650427
     74          1           0       -1.849477   -2.345333    4.439797
     75          1           0        0.080565   -2.085309    0.618764
     76          1           0       -1.137693   -2.723818   -0.404653
     77          1           0       -0.009523   -4.658261   -0.102341
     78          1           0       -0.628937   -4.843440    1.521256
     79          1           0       -1.087090    4.437166    4.202047
     80          1           0       -0.305358    5.165181    2.850192
     81          1           0        0.106162    3.515313    3.266678
     82          1           0       -3.472030    8.319766    1.263632
     83          1           0       -4.699444    7.060452    1.360710
     84          1           0       -3.674977    7.162789   -0.000775
     85          1           0       -5.896419    4.569986   -2.510511
     86          1           0       -8.432573    3.026059   -1.659533
     87          1           0       -7.453006    5.617164   -0.296863
     88          1           0       -8.382482    5.520356   -1.849850
     89          1           0       -6.904036    6.388264   -1.799505
     90          1           0       -7.290091    1.976631   -4.142186
     91          1           0       -7.268511    3.671584   -4.274261
     92          1           0       -9.461069    1.776677   -4.512810
     93          1           0       -9.371644    3.439897   -5.082876
     94          1           0       -9.993927    3.080417   -3.490979
     95          1           0       -8.322670   -3.616380   -2.367514
     96          1           0       -7.808946   -2.508810   -3.692237
     97          1           0       -8.962310   -1.906703   -2.549314
     98          1           0       -3.260091   -4.155216   -0.869484
     99          1           0       -3.925144   -7.236655    2.546921
    100          1           0       -3.323454   -5.797937    3.322100
    101          1           0       -2.151163   -6.945266    2.661200
    102          1           0        3.810941   -5.617088    1.679458
    103          1           0        3.893308   -3.870404    1.606997
    104          1           0        5.077417   -5.811383   -0.421763
    105          1           0        4.137685   -2.248715   -1.197158
    106          1           0        5.848082   -1.927198   -0.743824
    107          1           0        4.677599   -2.304859    0.580282
    108          1           0        6.422833   -3.396457   -2.491355
    109          1           0        5.755601   -5.007897   -2.466336
    110          1           0        7.695167   -5.842939   -1.609548
    111          1           0        7.522438   -4.671573   -0.327414
    112          1           0        8.430011   -3.783219   -3.063736
    113          1           0        9.477396   -4.815795   -2.084889
    114          1           0        8.740157   -2.703465   -0.274986
    115          1           0       10.819138   -2.640191    0.105649
    116          1           0       11.251896   -2.322742   -1.479003
    117          1           0       11.076164   -4.055450   -0.874533
    118          1           0        8.011237   -1.708282   -2.659806
    119          1           0        9.805606   -1.468759   -2.882714
    120          1           0        9.938975    0.325755   -1.763122
    121          1           0        9.360656   -0.498903   -0.352612
    122          1           0        6.949472    0.018700   -1.374316
    123          1           0        7.862407    1.121288   -2.344694
    124          1           0        8.185175    1.430931    0.523355
    125          1           0        5.832604    2.993735   -0.243332
    126          1           0        6.372354    2.422990    1.235183
    127          1           0        5.684330    1.207662    0.144287
    128          1           0        7.544868    3.745222   -1.275889
    129          1           0        8.839619    2.851733   -1.898650
    130          1           0        9.510901    3.014393    0.816828
    131          1           0        8.897351    4.548298    0.502644
    132          1           0       10.685907    4.183560   -1.759534
    133          1           0       11.527395    3.563873   -0.301431
    134          1           0       10.160994    6.276938   -0.597029
    135          1           0       11.968941    7.220548   -1.497437
    136          1           0       12.554303    5.729281   -1.936798
    137          1           0       13.129694    6.292717   -0.408195
    138          1           0       11.432276    4.838451    1.653160
    139          1           0       10.273887    6.178337    1.649032
    140          1           0       12.021619    6.530627    1.489318
 ---------------------------------------------------------------------

 SCF Done:  E(RZINDO/S) =  -474.340402173     A.U. after   20 cycles

 Excitation energies and oscillator strengths:

 Excited State   1:      Singlet-A      1.2167 eV 1019.02 nm  f=0.6342  <S**2>=0.000
     175 ->178         0.19057
     176 ->177         0.66270
 This state for optimization and/or second-order correction.
 Total Energy, E(CIS/TDA) =  -474.295689400
 Copying the excited state density for this state as the 1-particle RhoCI density.

 Excited State   2:      Singlet-A      1.9162 eV  647.03 nm  f=0.0495  <S**2>=0.000
     175 ->177         0.55088
     176 ->178        -0.41911

 Excited State   3:      Singlet-A      2.8644 eV  432.85 nm  f=0.0058  <S**2>=0.000
     176 ->179         0.28829
     176 ->180         0.62904

 Excited State   4:      Singlet-A      3.0093 eV  412.00 nm  f=0.5411  <S**2>=0.000
     169 ->177        -0.15157
     169 ->179        -0.15491
     169 ->182         0.19717
     169 ->186         0.13886
     170 ->179        -0.14666
     170 ->182         0.14096
     170 ->186         0.10797
     172 ->177        -0.14256
     174 ->177         0.16771
     175 ->177         0.26278
     176 ->178         0.37448

 Excited State   5:      Singlet-A      3.0269 eV  409.61 nm  f=0.5628  <S**2>=0.000
     169 ->177         0.11656
     169 ->179         0.19402
     169 ->182        -0.17917
     169 ->186        -0.14546
     170 ->177         0.14960
     170 ->182        -0.17135
     175 ->177         0.26467
     176 ->178         0.35257
     176 ->179        -0.18575

 The electronic state is 1-A.
 Alpha  occ. eigenvalues --   -1.84563  -1.81023  -1.77812  -1.74914  -1.70713
 Alpha  occ. eigenvalues --   -1.69745  -1.66484  -1.61937  -1.59856  -1.59339
 Alpha  occ. eigenvalues --   -1.55861  -1.52163  -1.49507  -1.48869  -1.48150
 Alpha  occ. eigenvalues --   -1.44214  -1.43783  -1.40870  -1.40197  -1.38302
 Alpha  occ. eigenvalues --   -1.35873  -1.33119  -1.32680  -1.30408  -1.28597
 Alpha  occ. eigenvalues --   -1.27821  -1.26332  -1.22980  -1.21186  -1.17661
 Alpha  occ. eigenvalues --   -1.16865  -1.15771  -1.15357  -1.14044  -1.13656
 Alpha  occ. eigenvalues --   -1.13472  -1.10791  -1.09729  -1.05253  -1.04528
 Alpha  occ. eigenvalues --   -1.01885  -1.01103  -1.00463  -0.98248  -0.97020
 Alpha  occ. eigenvalues --   -0.96084  -0.95197  -0.93976  -0.92476  -0.91577
 Alpha  occ. eigenvalues --   -0.91295  -0.89630  -0.88517  -0.88039  -0.87895
 Alpha  occ. eigenvalues --   -0.85825  -0.84666  -0.83074  -0.82018  -0.79759
 Alpha  occ. eigenvalues --   -0.78990  -0.78463  -0.77000  -0.76895  -0.76702
 Alpha  occ. eigenvalues --   -0.76403  -0.75704  -0.75619  -0.74802  -0.74039
 Alpha  occ. eigenvalues --   -0.73674  -0.73223  -0.72277  -0.71675  -0.70941
 Alpha  occ. eigenvalues --   -0.70872  -0.69613  -0.69072  -0.68309  -0.68081
 Alpha  occ. eigenvalues --   -0.67334  -0.66908  -0.66424  -0.65808  -0.65526
 Alpha  occ. eigenvalues --   -0.64786  -0.64702  -0.64098  -0.63788  -0.63572
 Alpha  occ. eigenvalues --   -0.63345  -0.63014  -0.62428  -0.62399  -0.62224
 Alpha  occ. eigenvalues --   -0.61965  -0.61437  -0.61360  -0.61004  -0.60298
 Alpha  occ. eigenvalues --   -0.59897  -0.58975  -0.58737  -0.58426  -0.58068
 Alpha  occ. eigenvalues --   -0.57896  -0.57620  -0.57441  -0.56508  -0.56274
 Alpha  occ. eigenvalues --   -0.55861  -0.55623  -0.55174  -0.55026  -0.54749
 Alpha  occ. eigenvalues --   -0.54408  -0.54126  -0.54032  -0.53317  -0.52866
 Alpha  occ. eigenvalues --   -0.52434  -0.52274  -0.51837  -0.51574  -0.51436
 Alpha  occ. eigenvalues --   -0.51365  -0.50996  -0.50712  -0.50678  -0.50417
 Alpha  occ. eigenvalues --   -0.50050  -0.50024  -0.49576  -0.49274  -0.49193
 Alpha  occ. eigenvalues --   -0.48841  -0.48705  -0.48082  -0.47660  -0.47399
 Alpha  occ. eigenvalues --   -0.47249  -0.46765  -0.46548  -0.46467  -0.46223
 Alpha  occ. eigenvalues --   -0.46160  -0.45969  -0.45815  -0.45736  -0.45644
 Alpha  occ. eigenvalues --   -0.45415  -0.44830  -0.44766  -0.44670  -0.44072
 Alpha  occ. eigenvalues --   -0.43817  -0.43293  -0.42677  -0.42529  -0.42331
 Alpha  occ. eigenvalues --   -0.42061  -0.41857  -0.41350  -0.39771  -0.38950
 Alpha  occ. eigenvalues --   -0.38577  -0.37576  -0.35415  -0.34909  -0.34652
 Alpha  occ. eigenvalues --   -0.32737  -0.32325  -0.31886  -0.31768  -0.26794
 Alpha  occ. eigenvalues --   -0.21672
 Alpha virt. eigenvalues --   -0.08771  -0.01962  -0.00209   0.00456   0.01124
 Alpha virt. eigenvalues --    0.01563   0.02242   0.02708   0.04327   0.04851
 Alpha virt. eigenvalues --    0.06078   0.06879   0.07484   0.07607   0.08275

 Mulliken charges:
               1
     1  Mg   0.442932
     2  C   -0.041405
     3  C   -0.052924
     4  C   -0.095023
     5  C   -0.084976
     6  N   -0.280647
     7  C    0.118763
     8  C   -0.000940
     9  C    0.007899
    10  C    0.122830
    11  C   -0.040866
    12  C   -0.013379
    13  C    0.000046
    14  C    0.465102
    15  O   -0.510357
    16  O   -0.241288
    17  N   -0.340516
    18  C    0.086036
    19  C    0.051798
    20  C   -0.059040
    21  C    0.137011
    22  C   -0.031442
    23  C    0.330840
    24  O   -0.524413
    25  C   -0.028295
    26  N   -0.272844
    27  C    0.124502
    28  C   -0.002888
    29  C    0.000542
    30  C    0.150593
    31  C   -0.056375
    32  C   -0.020618
    33  C   -0.050148
    34  N   -0.321882
    35  C    0.101411
    36  C    0.013806
    37  C   -0.065939
    38  C    0.116031
    39  C   -0.031682
    40  C    0.346472
    41  O   -0.504213
    42  C    0.065824
    43  C    0.488148
    44  O   -0.507311
    45  O   -0.289073
    46  C    0.075742
    47  C    0.112858
    48  C   -0.118264
    49  C   -0.000428
    50  C   -0.054411
    51  C   -0.015764
    52  C   -0.025405
    53  C   -0.041936
    54  C   -0.016966
    55  C   -0.065228
    56  C   -0.028772
    57  C   -0.027694
    58  C   -0.033539
    59  C   -0.017979
    60  C   -0.055515
    61  C   -0.033130
    62  C   -0.034476
    63  C   -0.025077
    64  C   -0.016893
    65  C   -0.063421
    66  C   -0.065258
    67  H    0.023073
    68  H    0.021430
    69  H    0.025496
    70  H    0.031598
    71  H    0.030775
    72  H    0.026696
    73  H    0.021157
    74  H    0.021767
    75  H    0.020873
    76  H    0.029220
    77  H    0.028611
    78  H    0.044838
    79  H    0.040215
    80  H    0.036233
    81  H    0.026545
    82  H    0.035799
    83  H    0.032450
    84  H    0.030125
    85  H    0.033993
    86  H    0.034692
    87  H    0.027354
    88  H    0.019731
    89  H    0.016521
    90  H    0.022532
    91  H    0.015191
    92  H    0.017474
    93  H    0.016859
    94  H    0.021597
    95  H    0.044934
    96  H    0.032622
    97  H    0.024995
    98  H    0.051683
    99  H    0.046247
   100  H    0.043368
   101  H    0.038154
   102  H    0.035911
   103  H    0.052682
   104  H    0.026484
   105  H    0.036747
   106  H    0.025134
   107  H    0.037735
   108  H    0.014516
   109  H    0.016385
   110  H    0.018334
   111  H    0.016684
   112  H    0.019445
   113  H    0.011958
   114  H    0.029438
   115  H    0.002895
   116  H    0.016957
   117  H    0.034492
   118  H    0.027653
   119  H    0.023826
   120  H    0.015345
   121  H    0.016220
   122  H    0.013453
   123  H    0.008215
   124  H    0.014181
   125  H    0.020777
   126  H    0.013876
   127  H    0.019336
   128  H    0.020147
   129  H    0.013320
   130  H    0.020751
   131  H    0.016415
   132  H    0.020639
   133  H    0.023066
   134  H    0.019479
   135  H    0.018973
   136  H    0.006934
   137  H    0.025081
   138  H    0.020698
   139  H    0.016430
   140  H    0.023987
 Sum of Mulliken charges =  -0.00000

 Dipole moment (field-independent basis, Debye):
    X=              0.4168    Y=              2.1714    Z=             -4.3738  Tot=              4.9009
 N-N= 4.372875522958D+03 E-N= 0.000000000000D+00  KE=-9.419856392589D+03
 Leave Link  601 at Fri Apr 29 07:11:51 2022, MaxMem=  6710886400 cpu:               0.8 elap:               0.0
 (Enter /sw/apps/gaussian-16.0/g16/l9999.exe)
 1\1\GINC-BP1-COMPUTE154\SP\RZINDO CIS\STO-3G\C55H74Mg1N4O6\OF15641\29-
 Apr-2022\0\\#p ZINDO=(nstates=5)\\step_1_chromophore_23 ZINDO\\0,1\Mg,
 0,-9.051,41.135,42.305\C,0,-8.305,37.722,41.487\C,0,-6.395,41.959,40.0
 63\C,0,-10.135,44.306,42.063\C,0,-11.946,40.073,43.784\N,0,-7.597,39.9
 54,40.945\C,0,-7.463,38.604,40.8\C,0,-6.307,38.235,39.806\C,0,-5.513,3
 9.626,39.732\C,0,-6.6,40.578,40.205\C,0,-4.304,39.713,40.635\C,0,-6.79
 9,37.608,38.512\C,0,-6.032,36.37,37.979\C,0,-4.965,36.511,36.796\O,0,-

 Normal termination of Gaussian 16 at Fri Apr 29 07:11:51 2022.
