 Gaussian 16, Revision A.03,
 Gaussian 16:  ES64L-G16RevA.03 25-Dec-2016

 ------------------------------
 #p blyp/Def2SVP td=(nstates=5)
 ------------------------------

 ---------------------------------------------------
 step_1751_chromophore_24 TDDFT with blyp functional
 ---------------------------------------------------
 Symbolic Z-matrix:
 Charge =  0 Multiplicity = 1

                         Standard orientation:
 ---------------------------------------------------------------------
 Center     Atomic      Atomic             Coordinates (Angstroms)
 Number     Number       Type             X           Y           Z
 ---------------------------------------------------------------------
      1         12           0       -5.001190    1.174404   -0.386776
      2          6           0       -4.890652   -2.328022   -0.165891
      3          6           0       -1.712797    1.413293   -0.173691
      4          6           0       -5.386062    4.461996    0.343975
      5          6           0       -8.603170    0.907713    0.061090
      6          7           0       -3.536640   -0.299068   -0.157886
      7          6           0       -3.663270   -1.696041   -0.234684
      8          6           0       -2.260754   -2.393124   -0.309106
      9          6           0       -1.221875   -1.149298   -0.220933
     10          6           0       -2.185415    0.079321   -0.161445
     11          6           0       -0.173382   -1.155453    0.894180
     12          6           0       -2.054372   -3.256956   -1.595657
     13          6           0       -0.950831   -4.251911   -1.550395
     14          6           0        0.078511   -4.313666   -0.381107
     15          8           0       -0.225710   -4.790698    0.707204
     16          8           0        1.355811   -3.829124   -0.657204
     17          7           0       -3.755319    2.743707   -0.313951
     18          6           0       -2.414729    2.600269   -0.208608
     19          6           0       -1.836740    3.951387   -0.224965
     20          6           0       -2.929844    4.909556   -0.163950
     21          6           0       -4.094941    4.042054   -0.013277
     22          6           0       -0.285737    4.200394   -0.249380
     23          6           0       -2.815072    6.409828   -0.050965
     24          8           0       -3.834919    7.049280    0.037855
     25          6           0       -1.576860    7.005950    0.045958
     26          7           0       -6.860241    2.568308   -0.211250
     27          6           0       -6.607901    3.763901    0.362786
     28          6           0       -7.983535    4.366154    0.927717
     29          6           0       -9.031631    3.349578    0.457016
     30          6           0       -8.158588    2.199243    0.008961
     31          6           0       -7.915279    4.634353    2.464243
     32          6           0      -10.099040    3.676904   -0.626020
     33          6           0       -9.536890    3.658464   -2.114844
     34          7           0       -6.536823   -0.371908   -0.262899
     35          6           0       -7.876093   -0.336665    0.001462
     36          6           0       -8.387696   -1.704285    0.012758
     37          6           0       -7.232688   -2.475665   -0.032015
     38          6           0       -6.142615   -1.665576   -0.143997
     39          6           0       -9.850029   -2.083523    0.274372
     40          6           0       -6.790525   -3.850087    0.014999
     41          8           0       -7.420974   -4.830125    0.274355
     42          6           0       -5.272723   -3.838241   -0.101578
     43          6           0       -4.748854   -4.578532    1.116097
     44          8           0       -4.920554   -4.237277    2.255235
     45          8           0       -4.109510   -5.785481    0.769986
     46          6           0       -3.365260   -6.414497    1.883522
     47          6           0        2.319617   -4.273027    0.399164
     48          6           0        3.635503   -3.649213    0.201377
     49          6           0        4.852045   -4.189983   -0.117762
     50          6           0        5.088769   -5.616355   -0.416919
     51          6           0        6.077798   -3.225605   -0.158368
     52          6           0        6.305827   -2.228489   -1.326412
     53          6           0        7.003571   -0.876045   -0.897764
     54          6           0        8.327323   -0.550496   -1.591868
     55          6           0        8.064891    0.020190   -3.074026
     56          6           0        9.128420    0.492013   -0.783523
     57          6           0       10.563231   -0.115798   -0.459864
     58          6           0       11.567083    0.317256   -1.474023
     59          6           0       12.128565    1.786906   -1.080757
     60          6           0       11.860074    2.875376   -2.158176
     61          6           0       13.678469    1.715131   -0.742281
     62          6           0       14.159103    2.765275    0.266589
     63          6           0       14.744514    2.008379    1.500570
     64          6           0       13.668906    1.760279    2.584158
     65          6           0       13.983997    2.760946    3.684247
     66          6           0       13.489132    0.281259    2.855481
     67          1           0       -0.622381    1.414005   -0.123434
     68          1           0       -5.338103    5.450104    0.804783
     69          1           0       -9.684655    0.842866    0.196014
     70          1           0       -2.299102   -3.069180    0.545166
     71          1           0       -0.706562   -1.154987   -1.181339
     72          1           0        0.719018   -1.569405    0.425037
     73          1           0       -0.579580   -1.779661    1.689646
     74          1           0       -0.048531   -0.180449    1.365804
     75          1           0       -1.763529   -2.596506   -2.411484
     76          1           0       -3.018662   -3.633571   -1.937947
     77          1           0       -0.310082   -4.152563   -2.426071
     78          1           0       -1.459528   -5.215442   -1.556341
     79          1           0        0.044056    4.531508    0.735315
     80          1           0        0.062192    4.921904   -0.988508
     81          1           0        0.273910    3.288859   -0.461060
     82          1           0       -0.971704    6.571268    0.840033
     83          1           0       -1.685807    7.980438    0.521863
     84          1           0       -1.013887    7.244499   -0.855853
     85          1           0       -8.095001    5.257208    0.310472
     86          1           0       -9.631239    3.024798    1.307050
     87          1           0       -8.941489    4.976063    2.602233
     88          1           0       -7.276182    5.440932    2.823429
     89          1           0       -7.746633    3.659870    2.922566
     90          1           0      -10.515410    4.660739   -0.407534
     91          1           0      -10.852644    2.893870   -0.546399
     92          1           0      -10.102409    4.387596   -2.694272
     93          1           0       -9.717937    2.720546   -2.638156
     94          1           0       -8.516581    4.040588   -2.157086
     95          1           0      -10.472462   -1.194630    0.375109
     96          1           0       -9.893586   -2.585144    1.240814
     97          1           0      -10.259952   -2.761704   -0.474242
     98          1           0       -5.068011   -4.365995   -1.033816
     99          1           0       -4.204548   -6.815439    2.453267
    100          1           0       -2.775258   -5.699523    2.455788
    101          1           0       -2.714757   -7.149190    1.409107
    102          1           0        2.206707   -5.342623    0.577535
    103          1           0        1.961771   -3.831384    1.328846
    104          1           0        3.669702   -2.594086    0.475173
    105          1           0        4.195808   -6.082553   -0.832393
    106          1           0        5.401778   -6.158917    0.475525
    107          1           0        5.955080   -5.565137   -1.076948
    108          1           0        6.946441   -3.870856   -0.030447
    109          1           0        6.010540   -2.668792    0.776527
    110          1           0        5.360753   -2.016682   -1.826447
    111          1           0        6.975558   -2.783301   -1.983374
    112          1           0        7.084314   -0.723664    0.179004
    113          1           0        6.344637   -0.077311   -1.239499
    114          1           0        8.949795   -1.443045   -1.653112
    115          1           0        7.830761   -0.754894   -3.804409
    116          1           0        8.963757    0.539338   -3.405982
    117          1           0        7.269880    0.765465   -3.062152
    118          1           0        8.687416    0.796908    0.166525
    119          1           0        9.251413    1.384696   -1.396844
    120          1           0       10.539346   -1.204718   -0.501030
    121          1           0       10.793553    0.191589    0.559828
    122          1           0       11.170624    0.419713   -2.484102
    123          1           0       12.380184   -0.407873   -1.514461
    124          1           0       11.687632    2.182668   -0.165826
    125          1           0       11.644534    2.391576   -3.110777
    126          1           0       12.712840    3.554189   -2.171450
    127          1           0       11.043363    3.496164   -1.790694
    128          1           0       14.233777    1.838617   -1.672967
    129          1           0       13.974757    0.721980   -0.407125
    130          1           0       13.325463    3.362341    0.635361
    131          1           0       14.810295    3.510404   -0.189882
    132          1           0       15.560060    2.656043    1.822237
    133          1           0       15.110549    1.029187    1.190569
    134          1           0       12.694355    2.146493    2.282711
    135          1           0       14.986926    2.643745    4.094888
    136          1           0       13.280418    2.613284    4.504262
    137          1           0       13.888856    3.779400    3.307761
    138          1           0       13.188304    0.191919    3.898875
    139          1           0       14.416243   -0.280603    2.743015
    140          1           0       12.746127   -0.167153    2.196269
 ---------------------------------------------------------------------

 SCF Done:  E(RB-LYP) =  -3007.37406413     A.U. after   20 cycles

 Excitation energies and oscillator strengths:

 Excited State   1:      Singlet-A      1.7856 eV  694.34 nm  f=0.2742  <S**2>=0.000
     244 -> 247       -0.15848
     245 -> 248       -0.16341
     246 -> 247        0.67526
     246 <- 247       -0.14837
 This state for optimization and/or second-order correction.
 Total Energy, E(TD-HF/TD-DFT) =  -3007.30844338
 Copying the excited state density for this state as the 1-particle RhoCI density.

 Excited State   2:      Singlet-A      1.8822 eV  658.73 nm  f=0.0257  <S**2>=0.000
     244 -> 247        0.67500
     245 -> 247        0.12779
     246 -> 247        0.15596

 Excited State   3:      Singlet-A      2.0141 eV  615.59 nm  f=0.0630  <S**2>=0.000
     243 -> 247       -0.26473
     244 -> 247       -0.12782
     245 -> 247        0.59482
     246 -> 248        0.20397

 Excited State   4:      Singlet-A      2.1489 eV  576.96 nm  f=0.0149  <S**2>=0.000
     243 -> 247        0.65134
     245 -> 247        0.22054
     246 -> 248        0.12973

 Excited State   5:      Singlet-A      2.4332 eV  509.54 nm  f=0.0043  <S**2>=0.000
     242 -> 247        0.69533

 The electronic state is 1-A.
 Alpha  occ. eigenvalues --  -46.27027 -18.82885 -18.80181 -18.77708 -18.76196
 Alpha  occ. eigenvalues --  -18.75311 -18.74782 -14.03392 -14.02198 -14.00996
 Alpha  occ. eigenvalues --  -13.99957 -10.04907 -10.03084  -9.99331  -9.98222
 Alpha  occ. eigenvalues --   -9.98003  -9.96961  -9.96536  -9.96264  -9.95960
 Alpha  occ. eigenvalues --   -9.95912  -9.95726  -9.95009  -9.94832  -9.94452
 Alpha  occ. eigenvalues --   -9.94433  -9.94375  -9.93995  -9.93966  -9.93609
 Alpha  occ. eigenvalues --   -9.93520  -9.93499  -9.93489  -9.93457  -9.93334
 Alpha  occ. eigenvalues --   -9.92865  -9.92846  -9.92779  -9.92751  -9.92692
 Alpha  occ. eigenvalues --   -9.92676  -9.92665  -9.92588  -9.92555  -9.92392
 Alpha  occ. eigenvalues --   -9.92086  -9.92079  -9.92047  -9.91969  -9.91868
 Alpha  occ. eigenvalues --   -9.91824  -9.91811  -9.91719  -9.91689  -9.91654
 Alpha  occ. eigenvalues --   -9.91454  -9.91452  -9.91432  -9.91338  -9.91128
 Alpha  occ. eigenvalues --   -9.91047  -9.90949  -9.90918  -9.90766  -9.90724
 Alpha  occ. eigenvalues --   -9.89379  -2.91608  -1.72046  -1.71479  -1.71330
 Alpha  occ. eigenvalues --   -0.97795  -0.96174  -0.92811  -0.92151  -0.90061
 Alpha  occ. eigenvalues --   -0.88777  -0.86019  -0.85603  -0.84869  -0.83506
 Alpha  occ. eigenvalues --   -0.75026  -0.73875  -0.73240  -0.72950  -0.72561
 Alpha  occ. eigenvalues --   -0.71968  -0.71191  -0.70779  -0.70321  -0.70127
 Alpha  occ. eigenvalues --   -0.69089  -0.68692  -0.68324  -0.67220  -0.67008
 Alpha  occ. eigenvalues --   -0.66498  -0.66415  -0.65665  -0.64727  -0.64285
 Alpha  occ. eigenvalues --   -0.64104  -0.62355  -0.62214  -0.61188  -0.61134
 Alpha  occ. eigenvalues --   -0.60656  -0.60096  -0.59707  -0.59382  -0.58502
 Alpha  occ. eigenvalues --   -0.58131  -0.57198  -0.56318  -0.55690  -0.54888
 Alpha  occ. eigenvalues --   -0.53928  -0.53430  -0.52888  -0.52648  -0.51199
 Alpha  occ. eigenvalues --   -0.51034  -0.50573  -0.50324  -0.49860  -0.49636
 Alpha  occ. eigenvalues --   -0.49583  -0.49467  -0.48696  -0.47112  -0.46949
 Alpha  occ. eigenvalues --   -0.46917  -0.45514  -0.45074  -0.44525  -0.44270
 Alpha  occ. eigenvalues --   -0.43600  -0.43237  -0.42930  -0.42553  -0.42302
 Alpha  occ. eigenvalues --   -0.42143  -0.41750  -0.41486  -0.41276  -0.41178
 Alpha  occ. eigenvalues --   -0.41106  -0.40773  -0.40292  -0.40136  -0.40019
 Alpha  occ. eigenvalues --   -0.39892  -0.39778  -0.39490  -0.39359  -0.39282
 Alpha  occ. eigenvalues --   -0.39181  -0.38884  -0.38729  -0.38402  -0.37994
 Alpha  occ. eigenvalues --   -0.37840  -0.37695  -0.37489  -0.37313  -0.37138
 Alpha  occ. eigenvalues --   -0.37032  -0.36864  -0.36782  -0.36471  -0.36422
 Alpha  occ. eigenvalues --   -0.36316  -0.36153  -0.36084  -0.35925  -0.35813
 Alpha  occ. eigenvalues --   -0.35577  -0.35416  -0.35325  -0.34991  -0.34634
 Alpha  occ. eigenvalues --   -0.34399  -0.34116  -0.34057  -0.33980  -0.33867
 Alpha  occ. eigenvalues --   -0.33562  -0.33422  -0.33248  -0.33075  -0.32944
 Alpha  occ. eigenvalues --   -0.32776  -0.32626  -0.32316  -0.32287  -0.32091
 Alpha  occ. eigenvalues --   -0.31946  -0.31629  -0.31500  -0.31301  -0.31230
 Alpha  occ. eigenvalues --   -0.31182  -0.31014  -0.30895  -0.30838  -0.30755
 Alpha  occ. eigenvalues --   -0.30607  -0.30452  -0.30034  -0.30007  -0.29929
 Alpha  occ. eigenvalues --   -0.29852  -0.29417  -0.29362  -0.29236  -0.28831
 Alpha  occ. eigenvalues --   -0.28811  -0.28655  -0.28478  -0.28126  -0.28026
 Alpha  occ. eigenvalues --   -0.27847  -0.27684  -0.27526  -0.26981  -0.26735
 Alpha  occ. eigenvalues --   -0.26619  -0.26282  -0.25828  -0.25732  -0.25710
 Alpha  occ. eigenvalues --   -0.25130  -0.23813  -0.23684  -0.23324  -0.23315
 Alpha  occ. eigenvalues --   -0.22695  -0.22491  -0.21817  -0.21247  -0.20575
 Alpha  occ. eigenvalues --   -0.20434  -0.19667  -0.18945  -0.18065  -0.16992
 Alpha  occ. eigenvalues --   -0.15438
 Alpha virt. eigenvalues --   -0.11240  -0.06545  -0.05660  -0.04230  -0.04097
 Alpha virt. eigenvalues --   -0.03905  -0.01798  -0.01552  -0.01170   0.00525
 Alpha virt. eigenvalues --    0.01284   0.02152   0.02214   0.02407   0.02747

 Mulliken charges:
               1
     1  Mg   0.680601
     2  C   -0.009556
     3  C   -0.089992
     4  C   -0.029167
     5  C   -0.033213
     6  N   -0.292941
     7  C   -0.083828
     8  C    0.015436
     9  C   -0.008681
    10  C    0.017276
    11  C    0.134808
    12  C    0.105568
    13  C    0.185802
    14  C    0.066461
    15  O   -0.210792
    16  O   -0.285948
    17  N   -0.327418
    18  C    0.229858
    19  C   -0.150948
    20  C    0.034359
    21  C    0.080492
    22  C    0.150746
    23  C   -0.082433
    24  O   -0.150471
    25  C    0.171126
    26  N   -0.168591
    27  C   -0.002144
    28  C    0.052463
    29  C    0.005240
    30  C   -0.017346
    31  C    0.135162
    32  C    0.086690
    33  C    0.065177
    34  N   -0.228645
    35  C    0.081680
    36  C   -0.186911
    37  C    0.113223
    38  C    0.098750
    39  C    0.170624
    40  C   -0.118034
    41  O   -0.101408
    42  C    0.122289
    43  C    0.101072
    44  O   -0.158169
    45  O   -0.309340
    46  C    0.226692
    47  C    0.319603
    48  C   -0.067595
    49  C   -0.194648
    50  C    0.170404
    51  C    0.085560
    52  C    0.121170
    53  C    0.101767
    54  C   -0.062647
    55  C    0.081503
    56  C    0.096371
    57  C    0.043578
    58  C    0.130392
    59  C   -0.112323
    60  C    0.122849
    61  C    0.087897
    62  C    0.060240
    63  C    0.102507
    64  C   -0.087094
    65  C    0.095148
    66  C    0.118974
    67  H   -0.067513
    68  H   -0.040751
    69  H   -0.073337
    70  H    0.006165
    71  H   -0.019023
    72  H    0.007459
    73  H   -0.002682
    74  H   -0.007362
    75  H   -0.036418
    76  H   -0.021114
    77  H   -0.014960
    78  H    0.008438
    79  H    0.004076
    80  H    0.000827
    81  H   -0.016901
    82  H   -0.006289
    83  H   -0.028612
    84  H    0.023399
    85  H   -0.033688
    86  H   -0.042659
    87  H   -0.009985
    88  H    0.009922
    89  H    0.004258
    90  H   -0.019081
    91  H   -0.016600
    92  H   -0.022117
    93  H    0.000773
    94  H    0.004563
    95  H   -0.024918
    96  H    0.010424
    97  H    0.006564
    98  H   -0.004595
    99  H    0.017024
   100  H    0.023585
   101  H    0.015209
   102  H   -0.007818
   103  H   -0.010237
   104  H   -0.036870
   105  H    0.006605
   106  H    0.009100
   107  H   -0.008235
   108  H   -0.041663
   109  H   -0.019256
   110  H   -0.020626
   111  H   -0.023891
   112  H   -0.028652
   113  H   -0.041880
   114  H   -0.032134
   115  H   -0.009315
   116  H   -0.015339
   117  H   -0.014786
   118  H   -0.040212
   119  H   -0.034121
   120  H   -0.032732
   121  H   -0.016769
   122  H   -0.038312
   123  H   -0.034823
   124  H   -0.032113
   125  H   -0.007178
   126  H   -0.021460
   127  H   -0.017492
   128  H   -0.039839
   129  H   -0.037705
   130  H   -0.037784
   131  H   -0.036690
   132  H   -0.036589
   133  H   -0.033535
   134  H   -0.032177
   135  H   -0.019168
   136  H   -0.027744
   137  H   -0.014150
   138  H   -0.028111
   139  H   -0.017301
   140  H   -0.002357
 Sum of Mulliken charges =  -0.00000

 Dipole moment (field-independent basis, Debye):
    X=              6.9235    Y=              2.0353    Z=             -1.8548  Tot=              7.4510
 Quadrupole moment (field-independent basis, Debye-Ang):
   XX=           -403.4282   YY=           -421.2638   ZZ=           -407.5157
   XY=            -33.0345   XZ=              6.4889   YZ=             12.7635

 Normal termination of Gaussian 16 at Thu Apr 28 22:57:38 2022.
