 Gaussian 16, Revision A.03,
 Gaussian 16:  ES64L-G16RevA.03 25-Dec-2016

 -----------------------------------
 #p cam-b3lyp/Def2SVP td=(nstates=5)
 -----------------------------------

 --------------------------------------------------------
 step_1751_chromophore_24 TDDFT with cam-b3lyp functional
 --------------------------------------------------------
 Symbolic Z-matrix:
 Charge =  0 Multiplicity = 1

                         Standard orientation:
 ---------------------------------------------------------------------
 Center     Atomic      Atomic             Coordinates (Angstroms)
 Number     Number       Type             X           Y           Z
 ---------------------------------------------------------------------
      1         12           0       -5.001190    1.174404   -0.386776
      2          6           0       -4.890652   -2.328022   -0.165891
      3          6           0       -1.712797    1.413293   -0.173691
      4          6           0       -5.386062    4.461996    0.343975
      5          6           0       -8.603170    0.907713    0.061090
      6          7           0       -3.536640   -0.299068   -0.157886
      7          6           0       -3.663270   -1.696041   -0.234684
      8          6           0       -2.260754   -2.393124   -0.309106
      9          6           0       -1.221875   -1.149298   -0.220933
     10          6           0       -2.185415    0.079321   -0.161445
     11          6           0       -0.173382   -1.155453    0.894180
     12          6           0       -2.054372   -3.256956   -1.595657
     13          6           0       -0.950831   -4.251911   -1.550395
     14          6           0        0.078511   -4.313666   -0.381107
     15          8           0       -0.225710   -4.790698    0.707204
     16          8           0        1.355811   -3.829124   -0.657204
     17          7           0       -3.755319    2.743707   -0.313951
     18          6           0       -2.414729    2.600269   -0.208608
     19          6           0       -1.836740    3.951387   -0.224965
     20          6           0       -2.929844    4.909556   -0.163950
     21          6           0       -4.094941    4.042054   -0.013277
     22          6           0       -0.285737    4.200394   -0.249380
     23          6           0       -2.815072    6.409828   -0.050965
     24          8           0       -3.834919    7.049280    0.037855
     25          6           0       -1.576860    7.005950    0.045958
     26          7           0       -6.860241    2.568308   -0.211250
     27          6           0       -6.607901    3.763901    0.362786
     28          6           0       -7.983535    4.366154    0.927717
     29          6           0       -9.031631    3.349578    0.457016
     30          6           0       -8.158588    2.199243    0.008961
     31          6           0       -7.915279    4.634353    2.464243
     32          6           0      -10.099040    3.676904   -0.626020
     33          6           0       -9.536890    3.658464   -2.114844
     34          7           0       -6.536823   -0.371908   -0.262899
     35          6           0       -7.876093   -0.336665    0.001462
     36          6           0       -8.387696   -1.704285    0.012758
     37          6           0       -7.232688   -2.475665   -0.032015
     38          6           0       -6.142615   -1.665576   -0.143997
     39          6           0       -9.850029   -2.083523    0.274372
     40          6           0       -6.790525   -3.850087    0.014999
     41          8           0       -7.420974   -4.830125    0.274355
     42          6           0       -5.272723   -3.838241   -0.101578
     43          6           0       -4.748854   -4.578532    1.116097
     44          8           0       -4.920554   -4.237277    2.255235
     45          8           0       -4.109510   -5.785481    0.769986
     46          6           0       -3.365260   -6.414497    1.883522
     47          6           0        2.319617   -4.273027    0.399164
     48          6           0        3.635503   -3.649213    0.201377
     49          6           0        4.852045   -4.189983   -0.117762
     50          6           0        5.088769   -5.616355   -0.416919
     51          6           0        6.077798   -3.225605   -0.158368
     52          6           0        6.305827   -2.228489   -1.326412
     53          6           0        7.003571   -0.876045   -0.897764
     54          6           0        8.327323   -0.550496   -1.591868
     55          6           0        8.064891    0.020190   -3.074026
     56          6           0        9.128420    0.492013   -0.783523
     57          6           0       10.563231   -0.115798   -0.459864
     58          6           0       11.567083    0.317256   -1.474023
     59          6           0       12.128565    1.786906   -1.080757
     60          6           0       11.860074    2.875376   -2.158176
     61          6           0       13.678469    1.715131   -0.742281
     62          6           0       14.159103    2.765275    0.266589
     63          6           0       14.744514    2.008379    1.500570
     64          6           0       13.668906    1.760279    2.584158
     65          6           0       13.983997    2.760946    3.684247
     66          6           0       13.489132    0.281259    2.855481
     67          1           0       -0.622381    1.414005   -0.123434
     68          1           0       -5.338103    5.450104    0.804783
     69          1           0       -9.684655    0.842866    0.196014
     70          1           0       -2.299102   -3.069180    0.545166
     71          1           0       -0.706562   -1.154987   -1.181339
     72          1           0        0.719018   -1.569405    0.425037
     73          1           0       -0.579580   -1.779661    1.689646
     74          1           0       -0.048531   -0.180449    1.365804
     75          1           0       -1.763529   -2.596506   -2.411484
     76          1           0       -3.018662   -3.633571   -1.937947
     77          1           0       -0.310082   -4.152563   -2.426071
     78          1           0       -1.459528   -5.215442   -1.556341
     79          1           0        0.044056    4.531508    0.735315
     80          1           0        0.062192    4.921904   -0.988508
     81          1           0        0.273910    3.288859   -0.461060
     82          1           0       -0.971704    6.571268    0.840033
     83          1           0       -1.685807    7.980438    0.521863
     84          1           0       -1.013887    7.244499   -0.855853
     85          1           0       -8.095001    5.257208    0.310472
     86          1           0       -9.631239    3.024798    1.307050
     87          1           0       -8.941489    4.976063    2.602233
     88          1           0       -7.276182    5.440932    2.823429
     89          1           0       -7.746633    3.659870    2.922566
     90          1           0      -10.515410    4.660739   -0.407534
     91          1           0      -10.852644    2.893870   -0.546399
     92          1           0      -10.102409    4.387596   -2.694272
     93          1           0       -9.717937    2.720546   -2.638156
     94          1           0       -8.516581    4.040588   -2.157086
     95          1           0      -10.472462   -1.194630    0.375109
     96          1           0       -9.893586   -2.585144    1.240814
     97          1           0      -10.259952   -2.761704   -0.474242
     98          1           0       -5.068011   -4.365995   -1.033816
     99          1           0       -4.204548   -6.815439    2.453267
    100          1           0       -2.775258   -5.699523    2.455788
    101          1           0       -2.714757   -7.149190    1.409107
    102          1           0        2.206707   -5.342623    0.577535
    103          1           0        1.961771   -3.831384    1.328846
    104          1           0        3.669702   -2.594086    0.475173
    105          1           0        4.195808   -6.082553   -0.832393
    106          1           0        5.401778   -6.158917    0.475525
    107          1           0        5.955080   -5.565137   -1.076948
    108          1           0        6.946441   -3.870856   -0.030447
    109          1           0        6.010540   -2.668792    0.776527
    110          1           0        5.360753   -2.016682   -1.826447
    111          1           0        6.975558   -2.783301   -1.983374
    112          1           0        7.084314   -0.723664    0.179004
    113          1           0        6.344637   -0.077311   -1.239499
    114          1           0        8.949795   -1.443045   -1.653112
    115          1           0        7.830761   -0.754894   -3.804409
    116          1           0        8.963757    0.539338   -3.405982
    117          1           0        7.269880    0.765465   -3.062152
    118          1           0        8.687416    0.796908    0.166525
    119          1           0        9.251413    1.384696   -1.396844
    120          1           0       10.539346   -1.204718   -0.501030
    121          1           0       10.793553    0.191589    0.559828
    122          1           0       11.170624    0.419713   -2.484102
    123          1           0       12.380184   -0.407873   -1.514461
    124          1           0       11.687632    2.182668   -0.165826
    125          1           0       11.644534    2.391576   -3.110777
    126          1           0       12.712840    3.554189   -2.171450
    127          1           0       11.043363    3.496164   -1.790694
    128          1           0       14.233777    1.838617   -1.672967
    129          1           0       13.974757    0.721980   -0.407125
    130          1           0       13.325463    3.362341    0.635361
    131          1           0       14.810295    3.510404   -0.189882
    132          1           0       15.560060    2.656043    1.822237
    133          1           0       15.110549    1.029187    1.190569
    134          1           0       12.694355    2.146493    2.282711
    135          1           0       14.986926    2.643745    4.094888
    136          1           0       13.280418    2.613284    4.504262
    137          1           0       13.888856    3.779400    3.307761
    138          1           0       13.188304    0.191919    3.898875
    139          1           0       14.416243   -0.280603    2.743015
    140          1           0       12.746127   -0.167153    2.196269
 ---------------------------------------------------------------------

 SCF Done:  E(RCAM-B3LYP) =  -3007.16925032     A.U. after   19 cycles

 Excitation energies and oscillator strengths:

 Excited State   1:      Singlet-A      1.6995 eV  729.52 nm  f=0.3649  <S**2>=0.000
     245 -> 248        0.16971
     246 -> 247        0.68811
     245 <- 248        0.10452
 This state for optimization and/or second-order correction.
 Total Energy, E(TD-HF/TD-DFT) =  -3007.10679413
 Copying the excited state density for this state as the 1-particle RhoCI density.

 Excited State   2:      Singlet-A      2.2498 eV  551.09 nm  f=0.1141  <S**2>=0.000
     245 -> 247        0.63935
     246 -> 248       -0.28582

 Excited State   3:      Singlet-A      3.3082 eV  374.77 nm  f=0.0044  <S**2>=0.000
     242 -> 247       -0.11857
     244 -> 247        0.67411

 Excited State   4:      Singlet-A      3.4844 eV  355.83 nm  f=0.1723  <S**2>=0.000
     241 -> 247       -0.33314
     242 -> 247        0.39684
     244 -> 247        0.10549
     245 -> 247        0.13592
     246 -> 248        0.42468

 Excited State   5:      Singlet-A      3.6055 eV  343.87 nm  f=0.5263  <S**2>=0.000
     239 -> 247       -0.10131
     240 -> 247       -0.13561
     241 -> 247        0.25155
     242 -> 247       -0.30174
     243 -> 247        0.14638
     245 -> 247        0.24495
     246 -> 248        0.44789

 The electronic state is 1-A.
 Alpha  occ. eigenvalues --  -46.88583 -19.25776 -19.22869 -19.20675 -19.19154
 Alpha  occ. eigenvalues --  -19.18985 -19.17632 -14.42326 -14.41080 -14.39679
 Alpha  occ. eigenvalues --  -14.38057 -10.40250 -10.38375 -10.34824 -10.33072
 Alpha  occ. eigenvalues --  -10.32155 -10.31965 -10.30803 -10.30797 -10.30737
 Alpha  occ. eigenvalues --  -10.30648 -10.30071 -10.29733 -10.28955 -10.28637
 Alpha  occ. eigenvalues --  -10.28459 -10.28455 -10.28250 -10.27879 -10.27819
 Alpha  occ. eigenvalues --  -10.27760 -10.27602 -10.27574 -10.27538 -10.27342
 Alpha  occ. eigenvalues --  -10.27056 -10.26982 -10.26545 -10.26501 -10.26490
 Alpha  occ. eigenvalues --  -10.26469 -10.26434 -10.26411 -10.26378 -10.26110
 Alpha  occ. eigenvalues --  -10.26102 -10.26022 -10.25982 -10.25906 -10.25902
 Alpha  occ. eigenvalues --  -10.25844 -10.25602 -10.25380 -10.25354 -10.25188
 Alpha  occ. eigenvalues --  -10.25166 -10.25147 -10.25139 -10.24857 -10.24743
 Alpha  occ. eigenvalues --  -10.24695 -10.24634 -10.24553 -10.24458 -10.24439
 Alpha  occ. eigenvalues --  -10.22906  -3.17069  -1.91984  -1.91508  -1.91384
 Alpha  occ. eigenvalues --   -1.16223  -1.14582  -1.11715  -1.10300  -1.07860
 Alpha  occ. eigenvalues --   -1.06465  -1.03964  -1.03012  -1.02407  -1.01036
 Alpha  occ. eigenvalues --   -0.91897  -0.90773  -0.90088  -0.89729  -0.89323
 Alpha  occ. eigenvalues --   -0.88715  -0.87895  -0.87477  -0.87373  -0.86720
 Alpha  occ. eigenvalues --   -0.85499  -0.84844  -0.84559  -0.83788  -0.83230
 Alpha  occ. eigenvalues --   -0.82536  -0.82490  -0.81586  -0.80591  -0.80127
 Alpha  occ. eigenvalues --   -0.79813  -0.78360  -0.77760  -0.76653  -0.76460
 Alpha  occ. eigenvalues --   -0.76024  -0.75298  -0.75029  -0.74658  -0.73699
 Alpha  occ. eigenvalues --   -0.73207  -0.72069  -0.71241  -0.70519  -0.69475
 Alpha  occ. eigenvalues --   -0.68591  -0.68251  -0.67313  -0.67089  -0.65419
 Alpha  occ. eigenvalues --   -0.65262  -0.64599  -0.64414  -0.63736  -0.63664
 Alpha  occ. eigenvalues --   -0.63387  -0.63316  -0.62615  -0.60938  -0.60629
 Alpha  occ. eigenvalues --   -0.60533  -0.58967  -0.58487  -0.57828  -0.57711
 Alpha  occ. eigenvalues --   -0.57206  -0.56441  -0.56220  -0.55679  -0.55552
 Alpha  occ. eigenvalues --   -0.55158  -0.54749  -0.54558  -0.54378  -0.53953
 Alpha  occ. eigenvalues --   -0.53866  -0.53568  -0.53177  -0.52887  -0.52736
 Alpha  occ. eigenvalues --   -0.52540  -0.52456  -0.52317  -0.52033  -0.51885
 Alpha  occ. eigenvalues --   -0.51800  -0.51401  -0.51077  -0.50975  -0.50860
 Alpha  occ. eigenvalues --   -0.50479  -0.50368  -0.50143  -0.49675  -0.49468
 Alpha  occ. eigenvalues --   -0.49260  -0.49035  -0.48925  -0.48829  -0.48522
 Alpha  occ. eigenvalues --   -0.48507  -0.48404  -0.48292  -0.48208  -0.48085
 Alpha  occ. eigenvalues --   -0.47892  -0.47647  -0.47532  -0.47271  -0.46460
 Alpha  occ. eigenvalues --   -0.46189  -0.46011  -0.45694  -0.45675  -0.45571
 Alpha  occ. eigenvalues --   -0.45321  -0.45043  -0.45035  -0.44763  -0.44579
 Alpha  occ. eigenvalues --   -0.44457  -0.44347  -0.44095  -0.44002  -0.43666
 Alpha  occ. eigenvalues --   -0.43497  -0.43232  -0.42989  -0.42918  -0.42759
 Alpha  occ. eigenvalues --   -0.42714  -0.42547  -0.42472  -0.42415  -0.42244
 Alpha  occ. eigenvalues --   -0.42090  -0.41941  -0.41306  -0.41195  -0.41140
 Alpha  occ. eigenvalues --   -0.41063  -0.40886  -0.40724  -0.40454  -0.40376
 Alpha  occ. eigenvalues --   -0.39825  -0.39759  -0.39451  -0.39000  -0.38892
 Alpha  occ. eigenvalues --   -0.38769  -0.38621  -0.38405  -0.37763  -0.37497
 Alpha  occ. eigenvalues --   -0.37439  -0.37268  -0.37145  -0.36457  -0.36380
 Alpha  occ. eigenvalues --   -0.36158  -0.34974  -0.34535  -0.34310  -0.33783
 Alpha  occ. eigenvalues --   -0.33680  -0.33445  -0.32494  -0.31951  -0.30884
 Alpha  occ. eigenvalues --   -0.30310  -0.30240  -0.29873  -0.28516  -0.23848
 Alpha  occ. eigenvalues --   -0.20779
 Alpha virt. eigenvalues --   -0.08342  -0.01232   0.00651   0.03085   0.03326
 Alpha virt. eigenvalues --    0.03541   0.03811   0.05595   0.06328   0.06598
 Alpha virt. eigenvalues --    0.07941   0.08424   0.08582   0.08864   0.09149

 Mulliken charges:
               1
     1  Mg   0.812068
     2  C   -0.034755
     3  C   -0.110864
     4  C   -0.043565
     5  C   -0.036601
     6  N   -0.367259
     7  C   -0.041525
     8  C   -0.033313
     9  C   -0.058112
    10  C    0.044965
    11  C    0.072260
    12  C    0.055694
    13  C    0.121149
    14  C    0.138252
    15  O   -0.249724
    16  O   -0.349529
    17  N   -0.418730
    18  C    0.238060
    19  C   -0.156239
    20  C   -0.026769
    21  C    0.105866
    22  C    0.097970
    23  C    0.004387
    24  O   -0.187421
    25  C    0.066593
    26  N   -0.230587
    27  C    0.017681
    28  C   -0.010284
    29  C   -0.046619
    30  C   -0.007445
    31  C    0.078408
    32  C    0.038628
    33  C    0.001610
    34  N   -0.312240
    35  C    0.081090
    36  C   -0.184175
    37  C    0.029594
    38  C    0.125323
    39  C    0.124470
    40  C   -0.015546
    41  O   -0.141701
    42  C    0.046920
    43  C    0.187928
    44  O   -0.193626
    45  O   -0.373613
    46  C    0.185782
    47  C    0.278421
    48  C   -0.086366
    49  C   -0.206381
    50  C    0.102321
    51  C    0.029078
    52  C    0.065650
    53  C    0.046804
    54  C   -0.115418
    55  C    0.030582
    56  C    0.042894
    57  C   -0.011222
    58  C    0.077603
    59  C   -0.160367
    60  C    0.065058
    61  C    0.036685
    62  C    0.009342
    63  C    0.039466
    64  C   -0.147761
    65  C    0.040978
    66  C    0.063122
    67  H   -0.032941
    68  H   -0.002081
    69  H   -0.040177
    70  H    0.036704
    71  H    0.016295
    72  H    0.029827
    73  H    0.024238
    74  H    0.018912
    75  H   -0.005319
    76  H    0.010405
    77  H    0.019317
    78  H    0.040163
    79  H    0.031527
    80  H    0.028486
    81  H    0.013229
    82  H    0.025391
    83  H    0.011859
    84  H    0.055984
    85  H    0.002235
    86  H   -0.004437
    87  H    0.014442
    88  H    0.033645
    89  H    0.028233
    90  H    0.008081
    91  H    0.010390
    92  H    0.002722
    93  H    0.025119
    94  H    0.024589
    95  H   -0.002999
    96  H    0.034099
    97  H    0.030055
    98  H    0.037700
    99  H    0.041412
   100  H    0.044763
   101  H    0.037589
   102  H    0.023452
   103  H    0.020279
   104  H   -0.006737
   105  H    0.030910
   106  H    0.034275
   107  H    0.015307
   108  H   -0.011720
   109  H    0.009512
   110  H    0.009294
   111  H    0.002848
   112  H   -0.000175
   113  H   -0.013199
   114  H   -0.002959
   115  H    0.014650
   116  H    0.004605
   117  H    0.007903
   118  H   -0.009409
   119  H   -0.007433
   120  H   -0.003949
   121  H    0.007803
   122  H   -0.012911
   123  H   -0.004525
   124  H   -0.004651
   125  H    0.015012
   126  H    0.003016
   127  H    0.005948
   128  H   -0.010000
   129  H   -0.011228
   130  H   -0.011973
   131  H   -0.006502
   132  H   -0.005319
   133  H   -0.005123
   134  H   -0.003465
   135  H    0.004721
   136  H   -0.002927
   137  H    0.009097
   138  H   -0.003090
   139  H    0.006781
   140  H    0.017480
 Sum of Mulliken charges =  -0.00000

 Dipole moment (field-independent basis, Debye):
    X=              8.0380    Y=              3.2168    Z=             -1.8727  Tot=              8.8580
 Quadrupole moment (field-independent basis, Debye-Ang):
   XX=           -410.3614   YY=           -415.9470   ZZ=           -407.6221
   XY=            -36.7267   XZ=              6.9972   YZ=             14.0146

 Normal termination of Gaussian 16 at Thu Apr 28 21:56:30 2022.
