 Gaussian 16, Revision A.03,
 Gaussian 16:  ES64L-G16RevA.03 25-Dec-2016

 ---------------------------------
 #p PBE1PBE/Def2SVP td=(nstates=5)
 ---------------------------------

 ------------------------------------------------------
 step_1751_chromophore_24 TDDFT with PBE1PBE functional
 ------------------------------------------------------
 Symbolic Z-matrix:
 Charge =  0 Multiplicity = 1

                         Standard orientation:
 ---------------------------------------------------------------------
 Center     Atomic      Atomic             Coordinates (Angstroms)
 Number     Number       Type             X           Y           Z
 ---------------------------------------------------------------------
      1         12           0       -5.001190    1.174404   -0.386776
      2          6           0       -4.890652   -2.328022   -0.165891
      3          6           0       -1.712797    1.413293   -0.173691
      4          6           0       -5.386062    4.461996    0.343975
      5          6           0       -8.603170    0.907713    0.061090
      6          7           0       -3.536640   -0.299068   -0.157886
      7          6           0       -3.663270   -1.696041   -0.234684
      8          6           0       -2.260754   -2.393124   -0.309106
      9          6           0       -1.221875   -1.149298   -0.220933
     10          6           0       -2.185415    0.079321   -0.161445
     11          6           0       -0.173382   -1.155453    0.894180
     12          6           0       -2.054372   -3.256956   -1.595657
     13          6           0       -0.950831   -4.251911   -1.550395
     14          6           0        0.078511   -4.313666   -0.381107
     15          8           0       -0.225710   -4.790698    0.707204
     16          8           0        1.355811   -3.829124   -0.657204
     17          7           0       -3.755319    2.743707   -0.313951
     18          6           0       -2.414729    2.600269   -0.208608
     19          6           0       -1.836740    3.951387   -0.224965
     20          6           0       -2.929844    4.909556   -0.163950
     21          6           0       -4.094941    4.042054   -0.013277
     22          6           0       -0.285737    4.200394   -0.249380
     23          6           0       -2.815072    6.409828   -0.050965
     24          8           0       -3.834919    7.049280    0.037855
     25          6           0       -1.576860    7.005950    0.045958
     26          7           0       -6.860241    2.568308   -0.211250
     27          6           0       -6.607901    3.763901    0.362786
     28          6           0       -7.983535    4.366154    0.927717
     29          6           0       -9.031631    3.349578    0.457016
     30          6           0       -8.158588    2.199243    0.008961
     31          6           0       -7.915279    4.634353    2.464243
     32          6           0      -10.099040    3.676904   -0.626020
     33          6           0       -9.536890    3.658464   -2.114844
     34          7           0       -6.536823   -0.371908   -0.262899
     35          6           0       -7.876093   -0.336665    0.001462
     36          6           0       -8.387696   -1.704285    0.012758
     37          6           0       -7.232688   -2.475665   -0.032015
     38          6           0       -6.142615   -1.665576   -0.143997
     39          6           0       -9.850029   -2.083523    0.274372
     40          6           0       -6.790525   -3.850087    0.014999
     41          8           0       -7.420974   -4.830125    0.274355
     42          6           0       -5.272723   -3.838241   -0.101578
     43          6           0       -4.748854   -4.578532    1.116097
     44          8           0       -4.920554   -4.237277    2.255235
     45          8           0       -4.109510   -5.785481    0.769986
     46          6           0       -3.365260   -6.414497    1.883522
     47          6           0        2.319617   -4.273027    0.399164
     48          6           0        3.635503   -3.649213    0.201377
     49          6           0        4.852045   -4.189983   -0.117762
     50          6           0        5.088769   -5.616355   -0.416919
     51          6           0        6.077798   -3.225605   -0.158368
     52          6           0        6.305827   -2.228489   -1.326412
     53          6           0        7.003571   -0.876045   -0.897764
     54          6           0        8.327323   -0.550496   -1.591868
     55          6           0        8.064891    0.020190   -3.074026
     56          6           0        9.128420    0.492013   -0.783523
     57          6           0       10.563231   -0.115798   -0.459864
     58          6           0       11.567083    0.317256   -1.474023
     59          6           0       12.128565    1.786906   -1.080757
     60          6           0       11.860074    2.875376   -2.158176
     61          6           0       13.678469    1.715131   -0.742281
     62          6           0       14.159103    2.765275    0.266589
     63          6           0       14.744514    2.008379    1.500570
     64          6           0       13.668906    1.760279    2.584158
     65          6           0       13.983997    2.760946    3.684247
     66          6           0       13.489132    0.281259    2.855481
     67          1           0       -0.622381    1.414005   -0.123434
     68          1           0       -5.338103    5.450104    0.804783
     69          1           0       -9.684655    0.842866    0.196014
     70          1           0       -2.299102   -3.069180    0.545166
     71          1           0       -0.706562   -1.154987   -1.181339
     72          1           0        0.719018   -1.569405    0.425037
     73          1           0       -0.579580   -1.779661    1.689646
     74          1           0       -0.048531   -0.180449    1.365804
     75          1           0       -1.763529   -2.596506   -2.411484
     76          1           0       -3.018662   -3.633571   -1.937947
     77          1           0       -0.310082   -4.152563   -2.426071
     78          1           0       -1.459528   -5.215442   -1.556341
     79          1           0        0.044056    4.531508    0.735315
     80          1           0        0.062192    4.921904   -0.988508
     81          1           0        0.273910    3.288859   -0.461060
     82          1           0       -0.971704    6.571268    0.840033
     83          1           0       -1.685807    7.980438    0.521863
     84          1           0       -1.013887    7.244499   -0.855853
     85          1           0       -8.095001    5.257208    0.310472
     86          1           0       -9.631239    3.024798    1.307050
     87          1           0       -8.941489    4.976063    2.602233
     88          1           0       -7.276182    5.440932    2.823429
     89          1           0       -7.746633    3.659870    2.922566
     90          1           0      -10.515410    4.660739   -0.407534
     91          1           0      -10.852644    2.893870   -0.546399
     92          1           0      -10.102409    4.387596   -2.694272
     93          1           0       -9.717937    2.720546   -2.638156
     94          1           0       -8.516581    4.040588   -2.157086
     95          1           0      -10.472462   -1.194630    0.375109
     96          1           0       -9.893586   -2.585144    1.240814
     97          1           0      -10.259952   -2.761704   -0.474242
     98          1           0       -5.068011   -4.365995   -1.033816
     99          1           0       -4.204548   -6.815439    2.453267
    100          1           0       -2.775258   -5.699523    2.455788
    101          1           0       -2.714757   -7.149190    1.409107
    102          1           0        2.206707   -5.342623    0.577535
    103          1           0        1.961771   -3.831384    1.328846
    104          1           0        3.669702   -2.594086    0.475173
    105          1           0        4.195808   -6.082553   -0.832393
    106          1           0        5.401778   -6.158917    0.475525
    107          1           0        5.955080   -5.565137   -1.076948
    108          1           0        6.946441   -3.870856   -0.030447
    109          1           0        6.010540   -2.668792    0.776527
    110          1           0        5.360753   -2.016682   -1.826447
    111          1           0        6.975558   -2.783301   -1.983374
    112          1           0        7.084314   -0.723664    0.179004
    113          1           0        6.344637   -0.077311   -1.239499
    114          1           0        8.949795   -1.443045   -1.653112
    115          1           0        7.830761   -0.754894   -3.804409
    116          1           0        8.963757    0.539338   -3.405982
    117          1           0        7.269880    0.765465   -3.062152
    118          1           0        8.687416    0.796908    0.166525
    119          1           0        9.251413    1.384696   -1.396844
    120          1           0       10.539346   -1.204718   -0.501030
    121          1           0       10.793553    0.191589    0.559828
    122          1           0       11.170624    0.419713   -2.484102
    123          1           0       12.380184   -0.407873   -1.514461
    124          1           0       11.687632    2.182668   -0.165826
    125          1           0       11.644534    2.391576   -3.110777
    126          1           0       12.712840    3.554189   -2.171450
    127          1           0       11.043363    3.496164   -1.790694
    128          1           0       14.233777    1.838617   -1.672967
    129          1           0       13.974757    0.721980   -0.407125
    130          1           0       13.325463    3.362341    0.635361
    131          1           0       14.810295    3.510404   -0.189882
    132          1           0       15.560060    2.656043    1.822237
    133          1           0       15.110549    1.029187    1.190569
    134          1           0       12.694355    2.146493    2.282711
    135          1           0       14.986926    2.643745    4.094888
    136          1           0       13.280418    2.613284    4.504262
    137          1           0       13.888856    3.779400    3.307761
    138          1           0       13.188304    0.191919    3.898875
    139          1           0       14.416243   -0.280603    2.743015
    140          1           0       12.746127   -0.167153    2.196269
 ---------------------------------------------------------------------

 SCF Done:  E(RPBE1PBE) =  -3005.35604430     A.U. after   16 cycles

 Excitation energies and oscillator strengths:

 Excited State   1:      Singlet-A      1.8346 eV  675.80 nm  f=0.3551  <S**2>=0.000
     245 -> 248        0.16388
     246 -> 247        0.69495
     246 <- 247       -0.10929
 This state for optimization and/or second-order correction.
 Total Energy, E(TD-HF/TD-DFT) =  -3005.28862245
 Copying the excited state density for this state as the 1-particle RhoCI density.

 Excited State   2:      Singlet-A      2.2532 eV  550.26 nm  f=0.1085  <S**2>=0.000
     245 -> 247        0.64860
     246 -> 248       -0.26398

 Excited State   3:      Singlet-A      2.8996 eV  427.59 nm  f=0.0029  <S**2>=0.000
     244 -> 247        0.69015

 Excited State   4:      Singlet-A      3.0645 eV  404.59 nm  f=0.0012  <S**2>=0.000
     243 -> 247        0.67961

 Excited State   5:      Singlet-A      3.2088 eV  386.39 nm  f=0.0081  <S**2>=0.000
     240 -> 247       -0.10533
     241 -> 247       -0.35831
     242 -> 247        0.52382
     246 -> 248        0.24206

 The electronic state is 1-A.
 Alpha  occ. eigenvalues --  -46.91958 -19.26458 -19.23660 -19.20963 -19.19474
 Alpha  occ. eigenvalues --  -19.18910 -19.18088 -14.41883 -14.40512 -14.39161
 Alpha  occ. eigenvalues --  -14.37891 -10.37345 -10.35527 -10.31606 -10.30439
 Alpha  occ. eigenvalues --  -10.29525 -10.29438 -10.28761 -10.28259 -10.28161
 Alpha  occ. eigenvalues --  -10.27902 -10.27381 -10.27059 -10.26923 -10.26591
 Alpha  occ. eigenvalues --  -10.26358 -10.26333 -10.25894 -10.25547 -10.25533
 Alpha  occ. eigenvalues --  -10.25378 -10.25306 -10.25075 -10.25007 -10.24983
 Alpha  occ. eigenvalues --  -10.24874 -10.24565 -10.24532 -10.24419 -10.24210
 Alpha  occ. eigenvalues --  -10.24090 -10.24047 -10.23957 -10.23828 -10.23638
 Alpha  occ. eigenvalues --  -10.23593 -10.23586 -10.23568 -10.23524 -10.23290
 Alpha  occ. eigenvalues --  -10.23168 -10.23034 -10.23023 -10.22835 -10.22768
 Alpha  occ. eigenvalues --  -10.22753 -10.22745 -10.22689 -10.22332 -10.22183
 Alpha  occ. eigenvalues --  -10.22098 -10.22074 -10.22049 -10.22005 -10.21918
 Alpha  occ. eigenvalues --  -10.20932  -3.14026  -1.86880  -1.86383  -1.86263
 Alpha  occ. eigenvalues --   -1.11014  -1.09441  -1.06178  -1.05297  -1.02733
 Alpha  occ. eigenvalues --   -1.01429  -0.98402  -0.97840  -0.97065  -0.95622
 Alpha  occ. eigenvalues --   -0.86440  -0.84892  -0.84173  -0.83913  -0.83425
 Alpha  occ. eigenvalues --   -0.82978  -0.82160  -0.81472  -0.81388  -0.80990
 Alpha  occ. eigenvalues --   -0.79755  -0.79320  -0.78776  -0.77778  -0.77440
 Alpha  occ. eigenvalues --   -0.76868  -0.76755  -0.75761  -0.74933  -0.74265
 Alpha  occ. eigenvalues --   -0.74223  -0.72430  -0.72114  -0.70797  -0.70726
 Alpha  occ. eigenvalues --   -0.70191  -0.69706  -0.69142  -0.68994  -0.67880
 Alpha  occ. eigenvalues --   -0.67493  -0.66593  -0.65606  -0.64846  -0.63824
 Alpha  occ. eigenvalues --   -0.62817  -0.62507  -0.61871  -0.61299  -0.59820
 Alpha  occ. eigenvalues --   -0.59465  -0.59210  -0.58523  -0.58256  -0.57918
 Alpha  occ. eigenvalues --   -0.57875  -0.57777  -0.56808  -0.55382  -0.55201
 Alpha  occ. eigenvalues --   -0.54878  -0.53542  -0.53102  -0.52475  -0.52256
 Alpha  occ. eigenvalues --   -0.51688  -0.50901  -0.50675  -0.50220  -0.50101
 Alpha  occ. eigenvalues --   -0.49696  -0.49255  -0.48994  -0.48543  -0.48418
 Alpha  occ. eigenvalues --   -0.48265  -0.48024  -0.47706  -0.47401  -0.47254
 Alpha  occ. eigenvalues --   -0.47175  -0.47006  -0.46933  -0.46604  -0.46412
 Alpha  occ. eigenvalues --   -0.46312  -0.46002  -0.45599  -0.45512  -0.45380
 Alpha  occ. eigenvalues --   -0.44947  -0.44733  -0.44662  -0.44274  -0.44158
 Alpha  occ. eigenvalues --   -0.43906  -0.43609  -0.43483  -0.43391  -0.43246
 Alpha  occ. eigenvalues --   -0.43118  -0.42988  -0.42912  -0.42747  -0.42666
 Alpha  occ. eigenvalues --   -0.42541  -0.42246  -0.42191  -0.41857  -0.40995
 Alpha  occ. eigenvalues --   -0.40810  -0.40679  -0.40505  -0.40344  -0.40260
 Alpha  occ. eigenvalues --   -0.40136  -0.39785  -0.39650  -0.39596  -0.39413
 Alpha  occ. eigenvalues --   -0.39197  -0.39145  -0.38955  -0.38806  -0.38480
 Alpha  occ. eigenvalues --   -0.38225  -0.38085  -0.37738  -0.37640  -0.37548
 Alpha  occ. eigenvalues --   -0.37487  -0.37380  -0.37252  -0.37150  -0.36946
 Alpha  occ. eigenvalues --   -0.36836  -0.36705  -0.36177  -0.36074  -0.35967
 Alpha  occ. eigenvalues --   -0.35859  -0.35735  -0.35570  -0.35324  -0.35203
 Alpha  occ. eigenvalues --   -0.34718  -0.34592  -0.34222  -0.33940  -0.33755
 Alpha  occ. eigenvalues --   -0.33675  -0.33558  -0.33110  -0.32570  -0.32478
 Alpha  occ. eigenvalues --   -0.32297  -0.32182  -0.32093  -0.31507  -0.31290
 Alpha  occ. eigenvalues --   -0.31229  -0.29970  -0.29370  -0.29176  -0.29003
 Alpha  occ. eigenvalues --   -0.28643  -0.28519  -0.27970  -0.26674  -0.26192
 Alpha  occ. eigenvalues --   -0.25648  -0.25590  -0.25018  -0.24337  -0.20719
 Alpha  occ. eigenvalues --   -0.18370
 Alpha virt. eigenvalues --   -0.10819  -0.04784  -0.03442  -0.01444  -0.01134
 Alpha virt. eigenvalues --   -0.00892   0.00930   0.01239   0.01523   0.03429
 Alpha virt. eigenvalues --    0.03811   0.05099   0.05291   0.05394   0.05683

 Mulliken charges:
               1
     1  Mg   0.960139
     2  C   -0.043228
     3  C   -0.099478
     4  C   -0.027849
     5  C   -0.036329
     6  N   -0.471428
     7  C    0.031134
     8  C   -0.105530
     9  C   -0.127473
    10  C    0.079180
    11  C    0.008676
    12  C    0.005622
    13  C    0.050003
    14  C    0.198149
    15  O   -0.279200
    16  O   -0.377518
    17  N   -0.532887
    18  C    0.243957
    19  C   -0.176714
    20  C   -0.072140
    21  C    0.121354
    22  C    0.038864
    23  C    0.051560
    24  O   -0.227395
    25  C   -0.002753
    26  N   -0.326164
    27  C    0.046291
    28  C   -0.092267
    29  C   -0.112152
    30  C    0.030694
    31  C    0.016785
    32  C   -0.023151
    33  C   -0.074495
    34  N   -0.433488
    35  C    0.109913
    36  C   -0.189487
    37  C   -0.035666
    38  C    0.177213
    39  C    0.069823
    40  C    0.091687
    41  O   -0.187399
    42  C   -0.064426
    43  C    0.277608
    44  O   -0.227152
    45  O   -0.405028
    46  C    0.130275
    47  C    0.232144
    48  C   -0.098643
    49  C   -0.240358
    50  C    0.034122
    51  C   -0.034987
    52  C    0.002323
    53  C   -0.006051
    54  C   -0.200240
    55  C   -0.030475
    56  C   -0.007635
    57  C   -0.085677
    58  C    0.020282
    59  C   -0.239568
    60  C    0.003979
    61  C   -0.014285
    62  C   -0.051010
    63  C   -0.022852
    64  C   -0.235368
    65  C   -0.021926
    66  C   -0.003349
    67  H   -0.000371
    68  H    0.028952
    69  H   -0.007585
    70  H    0.077764
    71  H    0.052500
    72  H    0.060136
    73  H    0.051730
    74  H    0.046489
    75  H    0.028110
    76  H    0.043845
    77  H    0.051451
    78  H    0.071498
    79  H    0.057877
    80  H    0.054810
    81  H    0.039314
    82  H    0.051653
    83  H    0.038781
    84  H    0.080374
    85  H    0.040363
    86  H    0.033693
    87  H    0.043322
    88  H    0.060857
    89  H    0.055885
    90  H    0.041632
    91  H    0.042693
    92  H    0.032336
    93  H    0.052672
    94  H    0.055592
    95  H    0.026088
    96  H    0.063142
    97  H    0.058674
    98  H    0.074630
    99  H    0.064079
   100  H    0.066410
   101  H    0.059498
   102  H    0.049258
   103  H    0.048428
   104  H    0.022379
   105  H    0.058070
   106  H    0.062568
   107  H    0.043776
   108  H    0.021280
   109  H    0.041900
   110  H    0.041216
   111  H    0.035237
   112  H    0.030595
   113  H    0.020794
   114  H    0.034249
   115  H    0.042242
   116  H    0.032544
   117  H    0.035001
   118  H    0.022002
   119  H    0.028490
   120  H    0.028640
   121  H    0.043009
   122  H    0.021970
   123  H    0.027224
   124  H    0.033257
   125  H    0.041396
   126  H    0.031516
   127  H    0.032913
   128  H    0.023719
   129  H    0.020381
   130  H    0.020581
   131  H    0.025089
   132  H    0.027443
   133  H    0.027641
   134  H    0.034561
   135  H    0.033027
   136  H    0.025509
   137  H    0.037528
   138  H    0.025183
   139  H    0.033899
   140  H    0.048031
 Sum of Mulliken charges =  -0.00000

 Dipole moment (field-independent basis, Debye):
    X=              7.5588    Y=              2.6957    Z=             -1.8365  Tot=              8.2325
 Quadrupole moment (field-independent basis, Debye-Ang):
   XX=           -399.7823   YY=           -414.1152   ZZ=           -405.2045
   XY=            -35.0336   XZ=              6.7399   YZ=             14.1476

 Normal termination of Gaussian 16 at Thu Apr 28 22:17:00 2022.
