 Gaussian 16, Revision A.03,
 Gaussian 16:  ES64L-G16RevA.03 25-Dec-2016

 --------------------------------
 #p wB97XD/Def2SVP td=(nstates=5)
 --------------------------------

 -----------------------------------------------------
 step_1751_chromophore_24 TDDFT with wB97XD functional
 -----------------------------------------------------
 Symbolic Z-matrix:
 Charge =  0 Multiplicity = 1

                         Standard orientation:
 ---------------------------------------------------------------------
 Center     Atomic      Atomic             Coordinates (Angstroms)
 Number     Number       Type             X           Y           Z
 ---------------------------------------------------------------------
      1         12           0       -5.001190    1.174404   -0.386776
      2          6           0       -4.890652   -2.328022   -0.165891
      3          6           0       -1.712797    1.413293   -0.173691
      4          6           0       -5.386062    4.461996    0.343975
      5          6           0       -8.603170    0.907713    0.061090
      6          7           0       -3.536640   -0.299068   -0.157886
      7          6           0       -3.663270   -1.696041   -0.234684
      8          6           0       -2.260754   -2.393124   -0.309106
      9          6           0       -1.221875   -1.149298   -0.220933
     10          6           0       -2.185415    0.079321   -0.161445
     11          6           0       -0.173382   -1.155453    0.894180
     12          6           0       -2.054372   -3.256956   -1.595657
     13          6           0       -0.950831   -4.251911   -1.550395
     14          6           0        0.078511   -4.313666   -0.381107
     15          8           0       -0.225710   -4.790698    0.707204
     16          8           0        1.355811   -3.829124   -0.657204
     17          7           0       -3.755319    2.743707   -0.313951
     18          6           0       -2.414729    2.600269   -0.208608
     19          6           0       -1.836740    3.951387   -0.224965
     20          6           0       -2.929844    4.909556   -0.163950
     21          6           0       -4.094941    4.042054   -0.013277
     22          6           0       -0.285737    4.200394   -0.249380
     23          6           0       -2.815072    6.409828   -0.050965
     24          8           0       -3.834919    7.049280    0.037855
     25          6           0       -1.576860    7.005950    0.045958
     26          7           0       -6.860241    2.568308   -0.211250
     27          6           0       -6.607901    3.763901    0.362786
     28          6           0       -7.983535    4.366154    0.927717
     29          6           0       -9.031631    3.349578    0.457016
     30          6           0       -8.158588    2.199243    0.008961
     31          6           0       -7.915279    4.634353    2.464243
     32          6           0      -10.099040    3.676904   -0.626020
     33          6           0       -9.536890    3.658464   -2.114844
     34          7           0       -6.536823   -0.371908   -0.262899
     35          6           0       -7.876093   -0.336665    0.001462
     36          6           0       -8.387696   -1.704285    0.012758
     37          6           0       -7.232688   -2.475665   -0.032015
     38          6           0       -6.142615   -1.665576   -0.143997
     39          6           0       -9.850029   -2.083523    0.274372
     40          6           0       -6.790525   -3.850087    0.014999
     41          8           0       -7.420974   -4.830125    0.274355
     42          6           0       -5.272723   -3.838241   -0.101578
     43          6           0       -4.748854   -4.578532    1.116097
     44          8           0       -4.920554   -4.237277    2.255235
     45          8           0       -4.109510   -5.785481    0.769986
     46          6           0       -3.365260   -6.414497    1.883522
     47          6           0        2.319617   -4.273027    0.399164
     48          6           0        3.635503   -3.649213    0.201377
     49          6           0        4.852045   -4.189983   -0.117762
     50          6           0        5.088769   -5.616355   -0.416919
     51          6           0        6.077798   -3.225605   -0.158368
     52          6           0        6.305827   -2.228489   -1.326412
     53          6           0        7.003571   -0.876045   -0.897764
     54          6           0        8.327323   -0.550496   -1.591868
     55          6           0        8.064891    0.020190   -3.074026
     56          6           0        9.128420    0.492013   -0.783523
     57          6           0       10.563231   -0.115798   -0.459864
     58          6           0       11.567083    0.317256   -1.474023
     59          6           0       12.128565    1.786906   -1.080757
     60          6           0       11.860074    2.875376   -2.158176
     61          6           0       13.678469    1.715131   -0.742281
     62          6           0       14.159103    2.765275    0.266589
     63          6           0       14.744514    2.008379    1.500570
     64          6           0       13.668906    1.760279    2.584158
     65          6           0       13.983997    2.760946    3.684247
     66          6           0       13.489132    0.281259    2.855481
     67          1           0       -0.622381    1.414005   -0.123434
     68          1           0       -5.338103    5.450104    0.804783
     69          1           0       -9.684655    0.842866    0.196014
     70          1           0       -2.299102   -3.069180    0.545166
     71          1           0       -0.706562   -1.154987   -1.181339
     72          1           0        0.719018   -1.569405    0.425037
     73          1           0       -0.579580   -1.779661    1.689646
     74          1           0       -0.048531   -0.180449    1.365804
     75          1           0       -1.763529   -2.596506   -2.411484
     76          1           0       -3.018662   -3.633571   -1.937947
     77          1           0       -0.310082   -4.152563   -2.426071
     78          1           0       -1.459528   -5.215442   -1.556341
     79          1           0        0.044056    4.531508    0.735315
     80          1           0        0.062192    4.921904   -0.988508
     81          1           0        0.273910    3.288859   -0.461060
     82          1           0       -0.971704    6.571268    0.840033
     83          1           0       -1.685807    7.980438    0.521863
     84          1           0       -1.013887    7.244499   -0.855853
     85          1           0       -8.095001    5.257208    0.310472
     86          1           0       -9.631239    3.024798    1.307050
     87          1           0       -8.941489    4.976063    2.602233
     88          1           0       -7.276182    5.440932    2.823429
     89          1           0       -7.746633    3.659870    2.922566
     90          1           0      -10.515410    4.660739   -0.407534
     91          1           0      -10.852644    2.893870   -0.546399
     92          1           0      -10.102409    4.387596   -2.694272
     93          1           0       -9.717937    2.720546   -2.638156
     94          1           0       -8.516581    4.040588   -2.157086
     95          1           0      -10.472462   -1.194630    0.375109
     96          1           0       -9.893586   -2.585144    1.240814
     97          1           0      -10.259952   -2.761704   -0.474242
     98          1           0       -5.068011   -4.365995   -1.033816
     99          1           0       -4.204548   -6.815439    2.453267
    100          1           0       -2.775258   -5.699523    2.455788
    101          1           0       -2.714757   -7.149190    1.409107
    102          1           0        2.206707   -5.342623    0.577535
    103          1           0        1.961771   -3.831384    1.328846
    104          1           0        3.669702   -2.594086    0.475173
    105          1           0        4.195808   -6.082553   -0.832393
    106          1           0        5.401778   -6.158917    0.475525
    107          1           0        5.955080   -5.565137   -1.076948
    108          1           0        6.946441   -3.870856   -0.030447
    109          1           0        6.010540   -2.668792    0.776527
    110          1           0        5.360753   -2.016682   -1.826447
    111          1           0        6.975558   -2.783301   -1.983374
    112          1           0        7.084314   -0.723664    0.179004
    113          1           0        6.344637   -0.077311   -1.239499
    114          1           0        8.949795   -1.443045   -1.653112
    115          1           0        7.830761   -0.754894   -3.804409
    116          1           0        8.963757    0.539338   -3.405982
    117          1           0        7.269880    0.765465   -3.062152
    118          1           0        8.687416    0.796908    0.166525
    119          1           0        9.251413    1.384696   -1.396844
    120          1           0       10.539346   -1.204718   -0.501030
    121          1           0       10.793553    0.191589    0.559828
    122          1           0       11.170624    0.419713   -2.484102
    123          1           0       12.380184   -0.407873   -1.514461
    124          1           0       11.687632    2.182668   -0.165826
    125          1           0       11.644534    2.391576   -3.110777
    126          1           0       12.712840    3.554189   -2.171450
    127          1           0       11.043363    3.496164   -1.790694
    128          1           0       14.233777    1.838617   -1.672967
    129          1           0       13.974757    0.721980   -0.407125
    130          1           0       13.325463    3.362341    0.635361
    131          1           0       14.810295    3.510404   -0.189882
    132          1           0       15.560060    2.656043    1.822237
    133          1           0       15.110549    1.029187    1.190569
    134          1           0       12.694355    2.146493    2.282711
    135          1           0       14.986926    2.643745    4.094888
    136          1           0       13.280418    2.613284    4.504262
    137          1           0       13.888856    3.779400    3.307761
    138          1           0       13.188304    0.191919    3.898875
    139          1           0       14.416243   -0.280603    2.743015
    140          1           0       12.746127   -0.167153    2.196269
 ---------------------------------------------------------------------

 SCF Done:  E(RwB97XD) =  -3007.86980951     A.U. after   19 cycles

 Excitation energies and oscillator strengths:

 Excited State   1:      Singlet-A      1.6595 eV  747.10 nm  f=0.3642  <S**2>=0.000
     245 -> 248        0.17350
     246 -> 247        0.68599
     245 <- 248        0.11218
 This state for optimization and/or second-order correction.
 Total Energy, E(TD-HF/TD-DFT) =  -3007.80882244
 Copying the excited state density for this state as the 1-particle RhoCI density.

 Excited State   2:      Singlet-A      2.1999 eV  563.58 nm  f=0.1112  <S**2>=0.000
     245 -> 247        0.63713
     246 -> 248       -0.28779

 Excited State   3:      Singlet-A      3.3547 eV  369.59 nm  f=0.0062  <S**2>=0.000
     241 -> 247       -0.21803
     244 -> 247        0.64837

 Excited State   4:      Singlet-A      3.4912 eV  355.14 nm  f=0.1593  <S**2>=0.000
     241 -> 247        0.49769
     244 -> 247        0.16909
     245 -> 247        0.12369
     246 -> 248        0.41295

 Excited State   5:      Singlet-A      3.6301 eV  341.55 nm  f=0.5426  <S**2>=0.000
     239 -> 247       -0.12888
     239 -> 249        0.10946
     240 -> 247       -0.19293
     241 -> 247       -0.34366
     243 -> 247        0.12899
     245 -> 247        0.24812
     246 -> 248        0.44131

 The electronic state is 1-A.
 Alpha  occ. eigenvalues --  -46.94912 -19.30993 -19.28083 -19.25571 -19.24073
 Alpha  occ. eigenvalues --  -19.24044 -19.22587 -14.46953 -14.45688 -14.44336
 Alpha  occ. eigenvalues --  -14.42594 -10.44073 -10.42205 -10.38800 -10.36984
 Alpha  occ. eigenvalues --  -10.36087 -10.36053 -10.34937 -10.34821 -10.34788
 Alpha  occ. eigenvalues --  -10.34784 -10.34020 -10.33777 -10.32893 -10.32698
 Alpha  occ. eigenvalues --  -10.32519 -10.32364 -10.32261 -10.31840 -10.31771
 Alpha  occ. eigenvalues --  -10.31757 -10.31736 -10.31689 -10.31617 -10.31281
 Alpha  occ. eigenvalues --  -10.31054 -10.30947 -10.30564 -10.30445 -10.30444
 Alpha  occ. eigenvalues --  -10.30423 -10.30383 -10.30359 -10.30288 -10.30219
 Alpha  occ. eigenvalues --  -10.29969 -10.29967 -10.29920 -10.29874 -10.29833
 Alpha  occ. eigenvalues --  -10.29791 -10.29558 -10.29322 -10.29225 -10.29123
 Alpha  occ. eigenvalues --  -10.29113 -10.29056 -10.28947 -10.28676 -10.28553
 Alpha  occ. eigenvalues --  -10.28549 -10.28529 -10.28392 -10.28379 -10.28376
 Alpha  occ. eigenvalues --  -10.26827  -3.20847  -1.94452  -1.93954  -1.93826
 Alpha  occ. eigenvalues --   -1.18361  -1.16697  -1.13990  -1.12457  -1.10042
 Alpha  occ. eigenvalues --   -1.08648  -1.06067  -1.04993  -1.04396  -1.03040
 Alpha  occ. eigenvalues --   -0.93826  -0.92586  -0.91855  -0.91545  -0.91103
 Alpha  occ. eigenvalues --   -0.90645  -0.89822  -0.89470  -0.89159  -0.88631
 Alpha  occ. eigenvalues --   -0.87393  -0.86708  -0.86397  -0.85778  -0.85109
 Alpha  occ. eigenvalues --   -0.84457  -0.84338  -0.83442  -0.82512  -0.81951
 Alpha  occ. eigenvalues --   -0.81762  -0.80360  -0.79643  -0.78442  -0.78337
 Alpha  occ. eigenvalues --   -0.77880  -0.77201  -0.76856  -0.76622  -0.75552
 Alpha  occ. eigenvalues --   -0.75112  -0.74019  -0.73203  -0.72458  -0.71374
 Alpha  occ. eigenvalues --   -0.70539  -0.70220  -0.69303  -0.68959  -0.67386
 Alpha  occ. eigenvalues --   -0.67126  -0.66598  -0.66231  -0.65702  -0.65471
 Alpha  occ. eigenvalues --   -0.65344  -0.65292  -0.64454  -0.62979  -0.62607
 Alpha  occ. eigenvalues --   -0.62421  -0.60907  -0.60474  -0.59771  -0.59664
 Alpha  occ. eigenvalues --   -0.59215  -0.58332  -0.58150  -0.57658  -0.57476
 Alpha  occ. eigenvalues --   -0.57077  -0.56676  -0.56462  -0.56334  -0.55837
 Alpha  occ. eigenvalues --   -0.55742  -0.55466  -0.55137  -0.54780  -0.54632
 Alpha  occ. eigenvalues --   -0.54439  -0.54359  -0.54230  -0.53919  -0.53768
 Alpha  occ. eigenvalues --   -0.53679  -0.53295  -0.52995  -0.52895  -0.52789
 Alpha  occ. eigenvalues --   -0.52496  -0.52290  -0.52024  -0.51560  -0.51345
 Alpha  occ. eigenvalues --   -0.51139  -0.50983  -0.50806  -0.50726  -0.50429
 Alpha  occ. eigenvalues --   -0.50393  -0.50318  -0.50195  -0.50156  -0.49991
 Alpha  occ. eigenvalues --   -0.49796  -0.49570  -0.49441  -0.49241  -0.48298
 Alpha  occ. eigenvalues --   -0.48080  -0.47923  -0.47590  -0.47561  -0.47464
 Alpha  occ. eigenvalues --   -0.47223  -0.46961  -0.46891  -0.46690  -0.46471
 Alpha  occ. eigenvalues --   -0.46341  -0.46258  -0.46024  -0.45922  -0.45579
 Alpha  occ. eigenvalues --   -0.45395  -0.45166  -0.44978  -0.44807  -0.44699
 Alpha  occ. eigenvalues --   -0.44621  -0.44497  -0.44403  -0.44322  -0.44131
 Alpha  occ. eigenvalues --   -0.43963  -0.43825  -0.43208  -0.43077  -0.43056
 Alpha  occ. eigenvalues --   -0.42956  -0.42796  -0.42643  -0.42309  -0.42278
 Alpha  occ. eigenvalues --   -0.41679  -0.41640  -0.41307  -0.40921  -0.40751
 Alpha  occ. eigenvalues --   -0.40663  -0.40514  -0.40230  -0.39600  -0.39461
 Alpha  occ. eigenvalues --   -0.39295  -0.39148  -0.39086  -0.38570  -0.38243
 Alpha  occ. eigenvalues --   -0.38078  -0.36951  -0.36435  -0.36143  -0.35801
 Alpha  occ. eigenvalues --   -0.35529  -0.35397  -0.34641  -0.33960  -0.33091
 Alpha  occ. eigenvalues --   -0.32518  -0.32316  -0.31785  -0.30599  -0.25789
 Alpha  occ. eigenvalues --   -0.22594
 Alpha virt. eigenvalues --   -0.06663   0.00697   0.02686   0.05237   0.05519
 Alpha virt. eigenvalues --    0.05975   0.06787   0.07919   0.08491   0.09524
 Alpha virt. eigenvalues --    0.10392   0.11709   0.12046   0.12305   0.12387

 Mulliken charges:
               1
     1  Mg   0.950909
     2  C   -0.047092
     3  C   -0.121780
     4  C   -0.048474
     5  C   -0.045159
     6  N   -0.441073
     7  C    0.000154
     8  C   -0.077073
     9  C   -0.104927
    10  C    0.072641
    11  C    0.024023
    12  C    0.017620
    13  C    0.063742
    14  C    0.183921
    15  O   -0.276338
    16  O   -0.376307
    17  N   -0.504553
    18  C    0.249170
    19  C   -0.171462
    20  C   -0.065082
    21  C    0.122712
    22  C    0.052116
    23  C    0.053939
    24  O   -0.219299
    25  C   -0.000644
    26  N   -0.293193
    27  C    0.035808
    28  C   -0.066201
    29  C   -0.089568
    30  C    0.014747
    31  C    0.027617
    32  C   -0.010882
    33  C   -0.054004
    34  N   -0.396389
    35  C    0.095489
    36  C   -0.194284
    37  C   -0.024357
    38  C    0.156645
    39  C    0.084097
    40  C    0.069189
    41  O   -0.180003
    42  C   -0.025623
    43  C    0.254718
    44  O   -0.222787
    45  O   -0.404459
    46  C    0.144605
    47  C    0.245773
    48  C   -0.105614
    49  C   -0.229195
    50  C    0.047502
    51  C   -0.014750
    52  C    0.016995
    53  C    0.009467
    54  C   -0.172289
    55  C   -0.013287
    56  C    0.006097
    57  C   -0.058115
    58  C    0.038650
    59  C   -0.209753
    60  C    0.016086
    61  C    0.000692
    62  C   -0.033417
    63  C   -0.002805
    64  C   -0.209737
    65  C   -0.007282
    66  C    0.014110
    67  H   -0.010143
    68  H    0.024636
    69  H   -0.016840
    70  H    0.061184
    71  H    0.042107
    72  H    0.049988
    73  H    0.047260
    74  H    0.040650
    75  H    0.019310
    76  H    0.034600
    77  H    0.046454
    78  H    0.067486
    79  H    0.054013
    80  H    0.051079
    81  H    0.036879
    82  H    0.046584
    83  H    0.038630
    84  H    0.079817
    85  H    0.030477
    86  H    0.023501
    87  H    0.036721
    88  H    0.056409
    89  H    0.050217
    90  H    0.033787
    91  H    0.035422
    92  H    0.026078
    93  H    0.047053
    94  H    0.044096
    95  H    0.018200
    96  H    0.056247
    97  H    0.052564
    98  H    0.068246
    99  H    0.059948
   100  H    0.062587
   101  H    0.056449
   102  H    0.044909
   103  H    0.042232
   104  H    0.018450
   105  H    0.053075
   106  H    0.057615
   107  H    0.037051
   108  H    0.013677
   109  H    0.032237
   110  H    0.034297
   111  H    0.026366
   112  H    0.021492
   113  H    0.010198
   114  H    0.019553
   115  H    0.037151
   116  H    0.023169
   117  H    0.028047
   118  H    0.015378
   119  H    0.013536
   120  H    0.019860
   121  H    0.030288
   122  H    0.007031
   123  H    0.020436
   124  H    0.014461
   125  H    0.035528
   126  H    0.024958
   127  H    0.027844
   128  H    0.015178
   129  H    0.007193
   130  H    0.007452
   131  H    0.019459
   132  H    0.019572
   133  H    0.015981
   134  H    0.020443
   135  H    0.026111
   136  H    0.019515
   137  H    0.030657
   138  H    0.019282
   139  H    0.027683
   140  H    0.038960
 Sum of Mulliken charges =  -0.00000

 Dipole moment (field-independent basis, Debye):
    X=              8.2590    Y=              3.4480    Z=             -1.8736  Tot=              9.1438
 Quadrupole moment (field-independent basis, Debye-Ang):
   XX=           -406.9055   YY=           -411.1144   ZZ=           -404.7503
   XY=            -37.5201   XZ=              7.0680   YZ=             14.2819

 Normal termination of Gaussian 16 at Thu Apr 28 22:45:26 2022.
