 Gaussian 16, Revision A.03,
 Gaussian 16:  ES64L-G16RevA.03 25-Dec-2016

 --------------------
 #p ZINDO=(nstates=5)
 --------------------

 ------------------------------
 step_1751_chromophore_24 ZINDO
 ------------------------------
 Symbolic Z-matrix:
 Charge =  0 Multiplicity = 1

                         Standard orientation:
 ---------------------------------------------------------------------
 Center     Atomic      Atomic             Coordinates (Angstroms)
 Number     Number       Type             X           Y           Z
 ---------------------------------------------------------------------
      1         12           0       -5.001190    1.174404   -0.386776
      2          6           0       -4.890652   -2.328022   -0.165891
      3          6           0       -1.712797    1.413293   -0.173691
      4          6           0       -5.386062    4.461996    0.343975
      5          6           0       -8.603170    0.907713    0.061090
      6          7           0       -3.536640   -0.299068   -0.157886
      7          6           0       -3.663270   -1.696041   -0.234684
      8          6           0       -2.260754   -2.393124   -0.309106
      9          6           0       -1.221875   -1.149298   -0.220933
     10          6           0       -2.185415    0.079321   -0.161445
     11          6           0       -0.173382   -1.155453    0.894180
     12          6           0       -2.054372   -3.256956   -1.595657
     13          6           0       -0.950831   -4.251911   -1.550395
     14          6           0        0.078511   -4.313666   -0.381107
     15          8           0       -0.225710   -4.790698    0.707204
     16          8           0        1.355811   -3.829124   -0.657204
     17          7           0       -3.755319    2.743707   -0.313951
     18          6           0       -2.414729    2.600269   -0.208608
     19          6           0       -1.836740    3.951387   -0.224965
     20          6           0       -2.929844    4.909556   -0.163950
     21          6           0       -4.094941    4.042054   -0.013277
     22          6           0       -0.285737    4.200394   -0.249380
     23          6           0       -2.815072    6.409828   -0.050965
     24          8           0       -3.834919    7.049280    0.037855
     25          6           0       -1.576860    7.005950    0.045958
     26          7           0       -6.860241    2.568308   -0.211250
     27          6           0       -6.607901    3.763901    0.362786
     28          6           0       -7.983535    4.366154    0.927717
     29          6           0       -9.031631    3.349578    0.457016
     30          6           0       -8.158588    2.199243    0.008961
     31          6           0       -7.915279    4.634353    2.464243
     32          6           0      -10.099040    3.676904   -0.626020
     33          6           0       -9.536890    3.658464   -2.114844
     34          7           0       -6.536823   -0.371908   -0.262899
     35          6           0       -7.876093   -0.336665    0.001462
     36          6           0       -8.387696   -1.704285    0.012758
     37          6           0       -7.232688   -2.475665   -0.032015
     38          6           0       -6.142615   -1.665576   -0.143997
     39          6           0       -9.850029   -2.083523    0.274372
     40          6           0       -6.790525   -3.850087    0.014999
     41          8           0       -7.420974   -4.830125    0.274355
     42          6           0       -5.272723   -3.838241   -0.101578
     43          6           0       -4.748854   -4.578532    1.116097
     44          8           0       -4.920554   -4.237277    2.255235
     45          8           0       -4.109510   -5.785481    0.769986
     46          6           0       -3.365260   -6.414497    1.883522
     47          6           0        2.319617   -4.273027    0.399164
     48          6           0        3.635503   -3.649213    0.201377
     49          6           0        4.852045   -4.189983   -0.117762
     50          6           0        5.088769   -5.616355   -0.416919
     51          6           0        6.077798   -3.225605   -0.158368
     52          6           0        6.305827   -2.228489   -1.326412
     53          6           0        7.003571   -0.876045   -0.897764
     54          6           0        8.327323   -0.550496   -1.591868
     55          6           0        8.064891    0.020190   -3.074026
     56          6           0        9.128420    0.492013   -0.783523
     57          6           0       10.563231   -0.115798   -0.459864
     58          6           0       11.567083    0.317256   -1.474023
     59          6           0       12.128565    1.786906   -1.080757
     60          6           0       11.860074    2.875376   -2.158176
     61          6           0       13.678469    1.715131   -0.742281
     62          6           0       14.159103    2.765275    0.266589
     63          6           0       14.744514    2.008379    1.500570
     64          6           0       13.668906    1.760279    2.584158
     65          6           0       13.983997    2.760946    3.684247
     66          6           0       13.489132    0.281259    2.855481
     67          1           0       -0.622381    1.414005   -0.123434
     68          1           0       -5.338103    5.450104    0.804783
     69          1           0       -9.684655    0.842866    0.196014
     70          1           0       -2.299102   -3.069180    0.545166
     71          1           0       -0.706562   -1.154987   -1.181339
     72          1           0        0.719018   -1.569405    0.425037
     73          1           0       -0.579580   -1.779661    1.689646
     74          1           0       -0.048531   -0.180449    1.365804
     75          1           0       -1.763529   -2.596506   -2.411484
     76          1           0       -3.018662   -3.633571   -1.937947
     77          1           0       -0.310082   -4.152563   -2.426071
     78          1           0       -1.459528   -5.215442   -1.556341
     79          1           0        0.044056    4.531508    0.735315
     80          1           0        0.062192    4.921904   -0.988508
     81          1           0        0.273910    3.288859   -0.461060
     82          1           0       -0.971704    6.571268    0.840033
     83          1           0       -1.685807    7.980438    0.521863
     84          1           0       -1.013887    7.244499   -0.855853
     85          1           0       -8.095001    5.257208    0.310472
     86          1           0       -9.631239    3.024798    1.307050
     87          1           0       -8.941489    4.976063    2.602233
     88          1           0       -7.276182    5.440932    2.823429
     89          1           0       -7.746633    3.659870    2.922566
     90          1           0      -10.515410    4.660739   -0.407534
     91          1           0      -10.852644    2.893870   -0.546399
     92          1           0      -10.102409    4.387596   -2.694272
     93          1           0       -9.717937    2.720546   -2.638156
     94          1           0       -8.516581    4.040588   -2.157086
     95          1           0      -10.472462   -1.194630    0.375109
     96          1           0       -9.893586   -2.585144    1.240814
     97          1           0      -10.259952   -2.761704   -0.474242
     98          1           0       -5.068011   -4.365995   -1.033816
     99          1           0       -4.204548   -6.815439    2.453267
    100          1           0       -2.775258   -5.699523    2.455788
    101          1           0       -2.714757   -7.149190    1.409107
    102          1           0        2.206707   -5.342623    0.577535
    103          1           0        1.961771   -3.831384    1.328846
    104          1           0        3.669702   -2.594086    0.475173
    105          1           0        4.195808   -6.082553   -0.832393
    106          1           0        5.401778   -6.158917    0.475525
    107          1           0        5.955080   -5.565137   -1.076948
    108          1           0        6.946441   -3.870856   -0.030447
    109          1           0        6.010540   -2.668792    0.776527
    110          1           0        5.360753   -2.016682   -1.826447
    111          1           0        6.975558   -2.783301   -1.983374
    112          1           0        7.084314   -0.723664    0.179004
    113          1           0        6.344637   -0.077311   -1.239499
    114          1           0        8.949795   -1.443045   -1.653112
    115          1           0        7.830761   -0.754894   -3.804409
    116          1           0        8.963757    0.539338   -3.405982
    117          1           0        7.269880    0.765465   -3.062152
    118          1           0        8.687416    0.796908    0.166525
    119          1           0        9.251413    1.384696   -1.396844
    120          1           0       10.539346   -1.204718   -0.501030
    121          1           0       10.793553    0.191589    0.559828
    122          1           0       11.170624    0.419713   -2.484102
    123          1           0       12.380184   -0.407873   -1.514461
    124          1           0       11.687632    2.182668   -0.165826
    125          1           0       11.644534    2.391576   -3.110777
    126          1           0       12.712840    3.554189   -2.171450
    127          1           0       11.043363    3.496164   -1.790694
    128          1           0       14.233777    1.838617   -1.672967
    129          1           0       13.974757    0.721980   -0.407125
    130          1           0       13.325463    3.362341    0.635361
    131          1           0       14.810295    3.510404   -0.189882
    132          1           0       15.560060    2.656043    1.822237
    133          1           0       15.110549    1.029187    1.190569
    134          1           0       12.694355    2.146493    2.282711
    135          1           0       14.986926    2.643745    4.094888
    136          1           0       13.280418    2.613284    4.504262
    137          1           0       13.888856    3.779400    3.307761
    138          1           0       13.188304    0.191919    3.898875
    139          1           0       14.416243   -0.280603    2.743015
    140          1           0       12.746127   -0.167153    2.196269
 ---------------------------------------------------------------------

 SCF Done:  E(RZINDO/S) =  -474.242521042     A.U. after   20 cycles

 Excitation energies and oscillator strengths:

 Excited State   1:      Singlet-A      1.2556 eV  987.44 nm  f=0.5602  <S**2>=0.000
     175 ->178         0.16768
     176 ->177         0.67028
 This state for optimization and/or second-order correction.
 Total Energy, E(CIS/TDA) =  -474.196377974
 Copying the excited state density for this state as the 1-particle RhoCI density.

 Excited State   2:      Singlet-A      1.9429 eV  638.14 nm  f=0.0389  <S**2>=0.000
     175 ->177         0.53970
     176 ->178        -0.42650

 Excited State   3:      Singlet-A      2.9142 eV  425.45 nm  f=0.0752  <S**2>=0.000
     168 ->177        -0.31077
     168 ->178         0.11319
     168 ->179         0.44024
     168 ->181        -0.13945
     168 ->183        -0.13566
     168 ->185        -0.11639
     168 ->186         0.19791
     175 ->177         0.10200
     176 ->178         0.14257

 Excited State   4:      Singlet-A      2.9966 eV  413.76 nm  f=0.8214  <S**2>=0.000
     168 ->179        -0.12077
     171 ->177         0.13853
     175 ->177         0.34907
     176 ->178         0.47961
     176 ->179         0.20523

 Excited State   5:      Singlet-A      3.0116 eV  411.69 nm  f=0.0084  <S**2>=0.000
     170 ->177         0.17760
     170 ->179         0.12908
     170 ->181         0.29148
     170 ->186         0.12759
     171 ->177         0.17068
     171 ->179         0.14674
     171 ->181         0.31112
     171 ->186         0.14074
     173 ->177        -0.10734
     173 ->181        -0.10342
     176 ->179        -0.11960

 The electronic state is 1-A.
 Alpha  occ. eigenvalues --   -1.83181  -1.81746  -1.78178  -1.73249  -1.70599
 Alpha  occ. eigenvalues --   -1.69072  -1.66272  -1.63991  -1.61665  -1.59515
 Alpha  occ. eigenvalues --   -1.55059  -1.51218  -1.48717  -1.47056  -1.44880
 Alpha  occ. eigenvalues --   -1.43161  -1.42931  -1.39418  -1.38588  -1.38243
 Alpha  occ. eigenvalues --   -1.36090  -1.33110  -1.31357  -1.30826  -1.28666
 Alpha  occ. eigenvalues --   -1.26729  -1.24763  -1.23153  -1.22117  -1.18868
 Alpha  occ. eigenvalues --   -1.18509  -1.16483  -1.14418  -1.14206  -1.13000
 Alpha  occ. eigenvalues --   -1.12526  -1.11398  -1.08500  -1.03664  -1.02846
 Alpha  occ. eigenvalues --   -1.02529  -1.00117  -0.99262  -0.97725  -0.96852
 Alpha  occ. eigenvalues --   -0.95848  -0.94771  -0.94347  -0.92681  -0.92376
 Alpha  occ. eigenvalues --   -0.91578  -0.90086  -0.89206  -0.87978  -0.86402
 Alpha  occ. eigenvalues --   -0.85777  -0.83324  -0.82250  -0.81430  -0.80063
 Alpha  occ. eigenvalues --   -0.79326  -0.78167  -0.77239  -0.76769  -0.75972
 Alpha  occ. eigenvalues --   -0.75561  -0.75163  -0.74660  -0.74383  -0.73686
 Alpha  occ. eigenvalues --   -0.73314  -0.72490  -0.71852  -0.71303  -0.70602
 Alpha  occ. eigenvalues --   -0.70313  -0.69637  -0.69333  -0.68524  -0.68366
 Alpha  occ. eigenvalues --   -0.68034  -0.66926  -0.66289  -0.66072  -0.65192
 Alpha  occ. eigenvalues --   -0.65092  -0.64333  -0.63844  -0.63480  -0.63144
 Alpha  occ. eigenvalues --   -0.63011  -0.62742  -0.62338  -0.62162  -0.61781
 Alpha  occ. eigenvalues --   -0.61768  -0.61357  -0.60667  -0.60518  -0.59842
 Alpha  occ. eigenvalues --   -0.59680  -0.59542  -0.59383  -0.58718  -0.58383
 Alpha  occ. eigenvalues --   -0.58106  -0.57591  -0.57319  -0.56572  -0.56409
 Alpha  occ. eigenvalues --   -0.55849  -0.55688  -0.55652  -0.55284  -0.55004
 Alpha  occ. eigenvalues --   -0.54549  -0.54531  -0.54233  -0.53469  -0.52850
 Alpha  occ. eigenvalues --   -0.52266  -0.51919  -0.51761  -0.51699  -0.51327
 Alpha  occ. eigenvalues --   -0.51222  -0.50889  -0.50540  -0.50163  -0.49917
 Alpha  occ. eigenvalues --   -0.49648  -0.49328  -0.49257  -0.49101  -0.48798
 Alpha  occ. eigenvalues --   -0.48406  -0.48337  -0.48082  -0.47979  -0.47832
 Alpha  occ. eigenvalues --   -0.47509  -0.46929  -0.46622  -0.46592  -0.46464
 Alpha  occ. eigenvalues --   -0.46164  -0.45983  -0.45908  -0.45613  -0.45557
 Alpha  occ. eigenvalues --   -0.45439  -0.45132  -0.44918  -0.44727  -0.44451
 Alpha  occ. eigenvalues --   -0.43965  -0.43075  -0.42834  -0.42517  -0.41726
 Alpha  occ. eigenvalues --   -0.41443  -0.41230  -0.40750  -0.39223  -0.38617
 Alpha  occ. eigenvalues --   -0.37431  -0.36801  -0.36137  -0.34153  -0.33451
 Alpha  occ. eigenvalues --   -0.33180  -0.32493  -0.32223  -0.31060  -0.26619
 Alpha  occ. eigenvalues --   -0.21379
 Alpha virt. eigenvalues --   -0.08178  -0.01607  -0.00365   0.01253   0.01990
 Alpha virt. eigenvalues --    0.02905   0.03203   0.03899   0.04132   0.05067
 Alpha virt. eigenvalues --    0.06507   0.06903   0.07223   0.07815   0.08206

 Mulliken charges:
               1
     1  Mg   0.426623
     2  C   -0.030792
     3  C   -0.088026
     4  C   -0.074758
     5  C   -0.063171
     6  N   -0.288537
     7  C    0.083011
     8  C   -0.004667
     9  C    0.004964
    10  C    0.150586
    11  C   -0.050286
    12  C   -0.012727
    13  C    0.014493
    14  C    0.460413
    15  O   -0.516736
    16  O   -0.273096
    17  N   -0.328250
    18  C    0.152299
    19  C    0.005465
    20  C   -0.046198
    21  C    0.163803
    22  C   -0.045765
    23  C    0.358812
    24  O   -0.516110
    25  C   -0.025853
    26  N   -0.280439
    27  C    0.158424
    28  C    0.008460
    29  C    0.006531
    30  C    0.104584
    31  C   -0.050172
    32  C   -0.026265
    33  C   -0.061203
    34  N   -0.324352
    35  C    0.073052
    36  C   -0.002541
    37  C   -0.045135
    38  C    0.095851
    39  C   -0.040185
    40  C    0.336903
    41  O   -0.517649
    42  C    0.055547
    43  C    0.489532
    44  O   -0.501694
    45  O   -0.292804
    46  C    0.073259
    47  C    0.109639
    48  C   -0.093978
    49  C   -0.004418
    50  C   -0.038683
    51  C   -0.027470
    52  C   -0.027672
    53  C   -0.035908
    54  C   -0.010742
    55  C   -0.062129
    56  C   -0.040920
    57  C   -0.034149
    58  C   -0.030512
    59  C   -0.029433
    60  C   -0.060468
    61  C   -0.039158
    62  C   -0.040670
    63  C   -0.036360
    64  C   -0.008810
    65  C   -0.048587
    66  C   -0.049661
    67  H    0.024236
    68  H    0.042622
    69  H    0.019241
    70  H    0.049441
    71  H    0.029560
    72  H    0.031209
    73  H    0.030235
    74  H    0.025975
    75  H    0.012582
    76  H    0.030060
    77  H    0.026975
    78  H    0.044222
    79  H    0.031496
    80  H    0.030133
    81  H    0.022370
    82  H    0.034265
    83  H    0.023264
    84  H    0.053176
    85  H    0.031047
    86  H    0.017072
    87  H    0.015280
    88  H    0.034999
    89  H    0.033705
    90  H    0.020064
    91  H    0.024808
    92  H    0.005327
    93  H    0.030904
    94  H    0.028967
    95  H    0.018191
    96  H    0.031668
    97  H    0.033500
    98  H    0.051381
    99  H    0.050565
   100  H    0.050835
   101  H    0.034410
   102  H    0.055094
   103  H    0.039181
   104  H    0.022648
   105  H    0.031326
   106  H    0.034026
   107  H    0.025444
   108  H    0.014248
   109  H    0.018006
   110  H    0.027241
   111  H    0.020822
   112  H    0.024431
   113  H    0.011101
   114  H    0.025580
   115  H    0.018997
   116  H    0.015482
   117  H    0.021175
   118  H    0.018911
   119  H    0.021516
   120  H    0.014661
   121  H    0.019501
   122  H    0.023310
   123  H    0.016191
   124  H    0.022895
   125  H    0.028651
   126  H    0.020317
   127  H    0.015093
   128  H    0.010355
   129  H    0.017886
   130  H    0.015108
   131  H    0.018442
   132  H    0.017540
   133  H    0.021331
   134  H    0.015751
   135  H    0.016199
   136  H    0.006846
   137  H    0.020149
   138  H    0.013610
   139  H    0.019182
   140  H    0.022856
 Sum of Mulliken charges =  -0.00000

 Dipole moment (field-independent basis, Debye):
    X=             11.1727    Y=              5.2309    Z=             -2.8000  Tot=             12.6504
 N-N= 4.299774588605D+03 E-N= 0.000000000000D+00  KE=-9.274165866884D+03
 Leave Link  601 at Thu Apr 28 22:57:46 2022, MaxMem=  6710886400 cpu:               0.8 elap:               0.0
 (Enter /sw/apps/gaussian-16.0/g16/l9999.exe)
 1\1\GINC-BP1-COMPUTE156\SP\RZINDO CIS\STO-3G\C55H74Mg1N4O6\OF15641\28-
 Apr-2022\0\\#p ZINDO=(nstates=5)\\step_1751_chromophore_24 ZINDO\\0,1\
 Mg,0,-0.496,44.002,25.203\C,0,2.051,43.353,27.531\C,0,-2.854,43.228,27
 .384\C,0,-2.669,43.746,22.614\C,0,2.113,44.184,22.672\N,0,-0.363,43.34
 ,27.181\C,0,0.761,43.273,28.021\C,0,0.346,43.01,29.51\C,0,-1.27,42.883
 ,29.429\C,0,-1.544,43.144,27.913\C,0,-1.926,41.604,29.955\C,0,0.811,44
 .127,30.5\C,0,0.821,43.766,31.942\C,0,0.221,42.431,32.479\O,0,0.815,41

 Normal termination of Gaussian 16 at Thu Apr 28 22:57:46 2022.
