 Gaussian 16, Revision A.03,
 Gaussian 16:  ES64L-G16RevA.03 25-Dec-2016

 ------------------------------
 #p blyp/Def2SVP td=(nstates=5)
 ------------------------------

 ---------------------------------------------------
 step_1251_chromophore_10 TDDFT with blyp functional
 ---------------------------------------------------
 Symbolic Z-matrix:
 Charge =  0 Multiplicity = 1

                         Standard orientation:
 ---------------------------------------------------------------------
 Center     Atomic      Atomic             Coordinates (Angstroms)
 Number     Number       Type             X           Y           Z
 ---------------------------------------------------------------------
      1         12           0        5.718107    0.718668    0.077874
      2          6           0        4.105479   -2.350331    0.155780
      3          6           0        3.066137    2.041446   -1.638959
      4          6           0        7.490506    3.596520   -0.264859
      5          6           0        8.613519   -0.736664    1.570526
      6          7           0        3.762437   -0.121555   -0.618528
      7          6           0        3.299185   -1.345347   -0.412929
      8          6           0        1.872043   -1.544529   -0.879887
      9          6           0        1.611647   -0.174084   -1.643233
     10          6           0        2.865788    0.659106   -1.312618
     11          6           0        1.237083   -0.357184   -3.156887
     12          6           0        0.903522   -1.703836    0.320137
     13          6           0        0.008388   -2.924776    0.202887
     14          6           0       -1.477289   -2.539917    0.256937
     15          8           0       -2.016632   -1.521461    0.742549
     16          8           0       -2.228254   -3.531672   -0.240952
     17          7           0        5.277598    2.628163   -0.692327
     18          6           0        4.121506    2.958538   -1.425424
     19          6           0        4.205855    4.382039   -1.784931
     20          6           0        5.458919    4.826027   -1.283503
     21          6           0        6.160661    3.648306   -0.749675
     22          6           0        3.153472    5.103227   -2.607643
     23          6           0        6.142519    6.244368   -1.482874
     24          8           0        7.262632    6.484747   -1.041793
     25          6           0        5.353372    7.363796   -2.099963
     26          7           0        7.776374    1.352151    0.516792
     27          6           0        8.215332    2.567146    0.371645
     28          6           0        9.663972    2.740104    0.719741
     29          6           0        9.952070    1.392089    1.399951
     30          6           0        8.701553    0.603905    1.205113
     31          6           0       10.477256    3.111445   -0.575448
     32          6           0       10.449478    1.453002    2.809611
     33          6           0        9.484581    1.975202    3.791454
     34          7           0        6.243576   -1.057522    0.855694
     35          6           0        7.409154   -1.493762    1.489475
     36          6           0        7.275465   -2.872556    1.814386
     37          6           0        5.988105   -3.201335    1.278293
     38          6           0        5.424097   -2.135355    0.662564
     39          6           0        8.233513   -3.802832    2.601747
     40          6           0        5.052779   -4.255264    1.217019
     41          8           0        5.252805   -5.388283    1.638128
     42          6           0        3.853888   -3.804642    0.523393
     43          6           0        3.670828   -4.695435   -0.676846
     44          8           0        4.074943   -4.438276   -1.749291
     45          8           0        2.772831   -5.678146   -0.471753
     46          6           0        1.964851   -6.193935   -1.550763
     47          6           0       -3.604509   -3.786354    0.238543
     48          6           0       -4.553916   -2.890301   -0.558827
     49          6           0       -5.826090   -3.225850   -0.937385
     50          6           0       -6.659528   -4.491042   -0.609329
     51          6           0       -6.565135   -2.306326   -1.879748
     52          6           0       -7.793457   -1.615102   -1.377188
     53          6           0       -8.987776   -1.859033   -2.185469
     54          6           0      -10.289165   -1.545554   -1.489140
     55          6           0      -11.475845   -2.211774   -2.177895
     56          6           0      -10.452451   -0.056020   -1.426840
     57          6           0      -11.020366    0.423423   -0.014359
     58          6           0       -9.991766    1.258516    0.782372
     59          6           0      -10.511471    2.608493    1.134069
     60          6           0       -9.481533    3.437592    1.953144
     61          6           0      -11.770501    2.391729    2.068544
     62          6           0      -12.985529    3.223093    1.737445
     63          6           0      -14.225439    2.570388    1.147740
     64          6           0      -15.529232    2.871815    2.016861
     65          6           0      -16.461535    1.718069    1.943401
     66          6           0      -16.177612    4.225135    1.682814
     67          1           0        2.207499    2.296651   -2.263376
     68          1           0        8.139802    4.459172   -0.430648
     69          1           0        9.433625   -1.274773    2.050433
     70          1           0        1.938996   -2.344331   -1.617029
     71          1           0        0.754593    0.269311   -1.136833
     72          1           0        2.114601   -0.201656   -3.783795
     73          1           0        0.421303    0.313454   -3.427504
     74          1           0        0.945544   -1.389617   -3.350167
     75          1           0        0.345801   -0.800613    0.568151
     76          1           0        1.460569   -1.815939    1.250007
     77          1           0        0.205890   -3.658171    0.986073
     78          1           0        0.186843   -3.420957   -0.750925
     79          1           0        2.858313    5.983691   -2.036275
     80          1           0        2.217469    4.591073   -2.833383
     81          1           0        3.635087    5.515388   -3.494348
     82          1           0        5.257798    7.168339   -3.167892
     83          1           0        5.820014    8.321126   -1.869692
     84          1           0        4.358596    7.504737   -1.676646
     85          1           0        9.778712    3.544355    1.446479
     86          1           0       10.717871    0.872654    0.822589
     87          1           0        9.816522    2.977731   -1.431366
     88          1           0       11.293808    2.399416   -0.696024
     89          1           0       10.731623    4.157874   -0.743925
     90          1           0       11.305063    2.107924    2.972844
     91          1           0       10.732088    0.433385    3.069168
     92          1           0        9.789406    2.969033    4.118182
     93          1           0        9.270516    1.346852    4.656419
     94          1           0        8.445187    1.944027    3.463279
     95          1           0        7.555941   -4.500038    3.093987
     96          1           0        8.829570   -3.212655    3.297643
     97          1           0        8.892225   -4.296712    1.888131
     98          1           0        2.974356   -4.033111    1.124502
     99          1           0        2.085820   -5.753763   -2.540871
    100          1           0        0.935827   -5.962602   -1.275329
    101          1           0        2.152144   -7.244170   -1.770513
    102          1           0       -3.640071   -3.656626    1.319474
    103          1           0       -3.855408   -4.821883    0.004719
    104          1           0       -4.047905   -2.047259   -1.028617
    105          1           0       -7.681475   -4.187429   -0.384881
    106          1           0       -6.261646   -5.040203    0.243362
    107          1           0       -6.604639   -5.207165   -1.429279
    108          1           0       -6.713041   -2.865337   -2.804598
    109          1           0       -5.882106   -1.487095   -2.100333
    110          1           0       -7.693269   -0.555268   -1.142678
    111          1           0       -8.101290   -2.103443   -0.452047
    112          1           0       -8.906163   -2.923562   -2.401829
    113          1           0       -8.935301   -1.371080   -3.158301
    114          1           0      -10.182957   -1.997870   -0.503050
    115          1           0      -12.378558   -1.615947   -2.041528
    116          1           0      -11.584784   -3.258059   -1.892958
    117          1           0      -11.254559   -2.321615   -3.239508
    118          1           0      -11.202581    0.261614   -2.151730
    119          1           0       -9.552974    0.448359   -1.779076
    120          1           0      -11.372927   -0.464936    0.509361
    121          1           0      -11.818464    1.095436   -0.327958
    122          1           0       -9.058852    1.471543    0.259358
    123          1           0       -9.692363    0.844944    1.745042
    124          1           0      -10.764096    3.199291    0.253638
    125          1           0       -8.475076    3.263054    1.573551
    126          1           0       -9.250575    3.029557    2.937599
    127          1           0       -9.617182    4.518435    2.001548
    128          1           0      -11.400270    2.744204    3.030880
    129          1           0      -12.102652    1.361087    2.190823
    130          1           0      -12.606964    3.962292    1.030828
    131          1           0      -13.212976    3.814523    2.623431
    132          1           0      -14.079345    1.494991    1.043781
    133          1           0      -14.301897    3.094300    0.194513
    134          1           0      -15.179406    2.900556    3.047670
    135          1           0      -16.629307    1.450982    2.986588
    136          1           0      -16.085768    0.881219    1.353754
    137          1           0      -17.445103    1.881115    1.501928
    138          1           0      -16.226349    4.853294    2.571439
    139          1           0      -17.124053    4.013833    1.184264
    140          1           0      -15.548721    4.772839    0.980640
 ---------------------------------------------------------------------

 SCF Done:  E(RB-LYP) =  -3007.35670991     A.U. after   22 cycles

 Excitation energies and oscillator strengths:

 Excited State   1:      Singlet-A      1.7341 eV  714.99 nm  f=0.0067  <S**2>=0.000
     244 -> 247        0.66861
     245 -> 247       -0.19070
     246 -> 247       -0.12099
 This state for optimization and/or second-order correction.
 Total Energy, E(TD-HF/TD-DFT) =  -3007.29298449
 Copying the excited state density for this state as the 1-particle RhoCI density.

 Excited State   2:      Singlet-A      1.8638 eV  665.24 nm  f=0.2889  <S**2>=0.000
     244 -> 247        0.12954
     245 -> 248        0.21004
     246 -> 247        0.67108
     246 <- 247       -0.13554

 Excited State   3:      Singlet-A      2.0351 eV  609.23 nm  f=0.0848  <S**2>=0.000
     244 -> 247        0.17983
     245 -> 247        0.62649
     246 -> 248       -0.24091

 Excited State   4:      Singlet-A      2.1531 eV  575.83 nm  f=0.0003  <S**2>=0.000
     243 -> 247        0.70376

 Excited State   5:      Singlet-A      2.3925 eV  518.21 nm  f=0.0052  <S**2>=0.000
     242 -> 247        0.69627

 The electronic state is 1-A.
 Alpha  occ. eigenvalues --  -46.26547 -18.82006 -18.81506 -18.76956 -18.76342
 Alpha  occ. eigenvalues --  -18.76123 -18.73963 -14.03136 -14.02576 -14.01009
 Alpha  occ. eigenvalues --  -14.00022 -10.04730 -10.03557 -10.00562  -9.99095
 Alpha  occ. eigenvalues --   -9.98045  -9.97561  -9.96867  -9.96211  -9.96175
 Alpha  occ. eigenvalues --   -9.95781  -9.95697  -9.95484  -9.94773  -9.94519
 Alpha  occ. eigenvalues --   -9.94405  -9.94176  -9.94015  -9.93656  -9.93625
 Alpha  occ. eigenvalues --   -9.93590  -9.93511  -9.93503  -9.93390  -9.93165
 Alpha  occ. eigenvalues --   -9.93118  -9.93043  -9.92966  -9.92745  -9.92710
 Alpha  occ. eigenvalues --   -9.92627  -9.92562  -9.92362  -9.92262  -9.92074
 Alpha  occ. eigenvalues --   -9.92031  -9.91835  -9.91656  -9.91654  -9.91502
 Alpha  occ. eigenvalues --   -9.91419  -9.91413  -9.91213  -9.90871  -9.90848
 Alpha  occ. eigenvalues --   -9.90825  -9.90816  -9.90735  -9.90732  -9.90695
 Alpha  occ. eigenvalues --   -9.90668  -9.90438  -9.90117  -9.90111  -9.89937
 Alpha  occ. eigenvalues --   -9.89211  -2.91163  -1.71605  -1.71053  -1.70857
 Alpha  occ. eigenvalues --   -0.99441  -0.98258  -0.91678  -0.91199  -0.90361
 Alpha  occ. eigenvalues --   -0.88810  -0.87348  -0.86507  -0.84889  -0.84565
 Alpha  occ. eigenvalues --   -0.76143  -0.74946  -0.73401  -0.73334  -0.73175
 Alpha  occ. eigenvalues --   -0.72386  -0.71444  -0.71402  -0.70629  -0.70141
 Alpha  occ. eigenvalues --   -0.69542  -0.68691  -0.68302  -0.67773  -0.67256
 Alpha  occ. eigenvalues --   -0.66873  -0.66129  -0.65607  -0.65282  -0.64622
 Alpha  occ. eigenvalues --   -0.64340  -0.62467  -0.62285  -0.62122  -0.61364
 Alpha  occ. eigenvalues --   -0.61250  -0.60285  -0.59827  -0.59666  -0.58943
 Alpha  occ. eigenvalues --   -0.58613  -0.57553  -0.56891  -0.55835  -0.55384
 Alpha  occ. eigenvalues --   -0.53860  -0.53665  -0.52390  -0.52133  -0.51454
 Alpha  occ. eigenvalues --   -0.51145  -0.50814  -0.50587  -0.50314  -0.50151
 Alpha  occ. eigenvalues --   -0.49392  -0.49303  -0.48869  -0.48637  -0.46858
 Alpha  occ. eigenvalues --   -0.46529  -0.46136  -0.45867  -0.45074  -0.44882
 Alpha  occ. eigenvalues --   -0.44571  -0.43946  -0.43318  -0.43226  -0.42893
 Alpha  occ. eigenvalues --   -0.42797  -0.42522  -0.41831  -0.41547  -0.41333
 Alpha  occ. eigenvalues --   -0.40932  -0.40889  -0.40765  -0.40527  -0.40287
 Alpha  occ. eigenvalues --   -0.40058  -0.39962  -0.39707  -0.39372  -0.39359
 Alpha  occ. eigenvalues --   -0.39104  -0.39019  -0.38505  -0.38390  -0.38365
 Alpha  occ. eigenvalues --   -0.38019  -0.37620  -0.37526  -0.37345  -0.37127
 Alpha  occ. eigenvalues --   -0.37085  -0.36911  -0.36748  -0.36545  -0.36454
 Alpha  occ. eigenvalues --   -0.36407  -0.36260  -0.36070  -0.35980  -0.35813
 Alpha  occ. eigenvalues --   -0.35319  -0.35086  -0.35035  -0.34947  -0.34584
 Alpha  occ. eigenvalues --   -0.34404  -0.34304  -0.34291  -0.34147  -0.34086
 Alpha  occ. eigenvalues --   -0.33863  -0.33647  -0.33552  -0.33268  -0.33151
 Alpha  occ. eigenvalues --   -0.32803  -0.32588  -0.32470  -0.32158  -0.32103
 Alpha  occ. eigenvalues --   -0.31911  -0.31807  -0.31580  -0.31517  -0.31295
 Alpha  occ. eigenvalues --   -0.31196  -0.31131  -0.30980  -0.30920  -0.30626
 Alpha  occ. eigenvalues --   -0.30531  -0.30398  -0.30246  -0.29737  -0.29707
 Alpha  occ. eigenvalues --   -0.29497  -0.29114  -0.29055  -0.28850  -0.28749
 Alpha  occ. eigenvalues --   -0.28728  -0.28435  -0.28063  -0.27807  -0.27677
 Alpha  occ. eigenvalues --   -0.27629  -0.27073  -0.27037  -0.26856  -0.26202
 Alpha  occ. eigenvalues --   -0.26020  -0.25780  -0.25705  -0.25562  -0.25320
 Alpha  occ. eigenvalues --   -0.25041  -0.24893  -0.24548  -0.23812  -0.23476
 Alpha  occ. eigenvalues --   -0.23227  -0.22017  -0.21919  -0.21553  -0.20502
 Alpha  occ. eigenvalues --   -0.20469  -0.19506  -0.19036  -0.17545  -0.16847
 Alpha  occ. eigenvalues --   -0.15783
 Alpha virt. eigenvalues --   -0.11235  -0.06461  -0.05777  -0.04306  -0.03814
 Alpha virt. eigenvalues --   -0.02439  -0.01934  -0.01207  -0.00823  -0.00261
 Alpha virt. eigenvalues --    0.01075   0.01476   0.02335   0.02561   0.02763

 Mulliken charges:
               1
     1  Mg   0.687364
     2  C    0.035235
     3  C   -0.046928
     4  C   -0.034854
     5  C   -0.088407
     6  N   -0.178601
     7  C   -0.127459
     8  C    0.005070
     9  C    0.003570
    10  C   -0.034733
    11  C    0.126824
    12  C    0.148869
    13  C    0.100246
    14  C    0.067770
    15  O   -0.214728
    16  O   -0.266783
    17  N   -0.298795
    18  C    0.174810
    19  C   -0.129663
    20  C   -0.008376
    21  C    0.123451
    22  C    0.188067
    23  C   -0.043078
    24  O   -0.162926
    25  C    0.124467
    26  N   -0.159616
    27  C   -0.056181
    28  C    0.040654
    29  C    0.084211
    30  C    0.041016
    31  C    0.126166
    32  C    0.115612
    33  C    0.050792
    34  N   -0.326723
    35  C    0.096962
    36  C   -0.202953
    37  C    0.124753
    38  C    0.096870
    39  C    0.181288
    40  C   -0.141663
    41  O   -0.148825
    42  C    0.124144
    43  C    0.060307
    44  O   -0.130671
    45  O   -0.250450
    46  C    0.207115
    47  C    0.308667
    48  C   -0.088838
    49  C   -0.157370
    50  C    0.133123
    51  C    0.181418
    52  C    0.086113
    53  C    0.049017
    54  C   -0.061959
    55  C    0.142227
    56  C    0.105695
    57  C    0.092167
    58  C    0.104002
    59  C   -0.084515
    60  C    0.107414
    61  C    0.106356
    62  C    0.064525
    63  C    0.107987
    64  C   -0.111157
    65  C    0.113462
    66  C    0.133853
    67  H   -0.070031
    68  H   -0.051022
    69  H   -0.058585
    70  H   -0.009914
    71  H   -0.017746
    72  H   -0.003285
    73  H    0.001272
    74  H   -0.011032
    75  H   -0.005552
    76  H   -0.027855
    77  H    0.024934
    78  H    0.003059
    79  H   -0.009909
    80  H   -0.002388
    81  H   -0.000023
    82  H    0.014228
    83  H   -0.005122
    84  H    0.002747
    85  H   -0.024552
    86  H   -0.039935
    87  H   -0.011625
    88  H   -0.009669
    89  H    0.006093
    90  H   -0.024551
    91  H   -0.030032
    92  H   -0.003228
    93  H   -0.023381
    94  H   -0.014447
    95  H    0.018936
    96  H   -0.010418
    97  H    0.007437
    98  H   -0.013448
    99  H    0.003964
   100  H    0.014940
   101  H    0.020202
   102  H    0.010845
   103  H   -0.001879
   104  H   -0.014953
   105  H    0.004625
   106  H   -0.017935
   107  H    0.005199
   108  H   -0.023726
   109  H   -0.049353
   110  H   -0.024599
   111  H   -0.043399
   112  H   -0.055988
   113  H   -0.038611
   114  H   -0.044686
   115  H   -0.013687
   116  H   -0.026755
   117  H   -0.029785
   118  H   -0.052599
   119  H   -0.033459
   120  H   -0.013060
   121  H   -0.016849
   122  H   -0.035296
   123  H   -0.039587
   124  H   -0.036262
   125  H   -0.044660
   126  H   -0.026407
   127  H   -0.007226
   128  H   -0.048914
   129  H   -0.033195
   130  H   -0.054197
   131  H   -0.041828
   132  H   -0.023972
   133  H   -0.032391
   134  H   -0.034094
   135  H   -0.016161
   136  H   -0.022690
   137  H   -0.028371
   138  H   -0.010266
   139  H   -0.013611
   140  H   -0.025684
 Sum of Mulliken charges =  -0.00000

 Dipole moment (field-independent basis, Debye):
    X=             -4.0516    Y=              1.2216    Z=             -1.8530  Tot=              4.6197
 Quadrupole moment (field-independent basis, Debye-Ang):
   XX=           -400.8321   YY=           -416.6293   ZZ=           -399.5795
   XY=             23.7448   XZ=              8.4421   YZ=              1.5116

 Normal termination of Gaussian 16 at Wed Apr 27 16:11:58 2022.
