 Gaussian 16, Revision A.03,
 Gaussian 16:  ES64L-G16RevA.03 25-Dec-2016

 -----------------------------------
 #p cam-b3lyp/Def2SVP td=(nstates=5)
 -----------------------------------

 --------------------------------------------------------
 step_1251_chromophore_10 TDDFT with cam-b3lyp functional
 --------------------------------------------------------
 Symbolic Z-matrix:
 Charge =  0 Multiplicity = 1

                         Standard orientation:
 ---------------------------------------------------------------------
 Center     Atomic      Atomic             Coordinates (Angstroms)
 Number     Number       Type             X           Y           Z
 ---------------------------------------------------------------------
      1         12           0        5.718107    0.718668    0.077874
      2          6           0        4.105479   -2.350331    0.155780
      3          6           0        3.066137    2.041446   -1.638959
      4          6           0        7.490506    3.596520   -0.264859
      5          6           0        8.613519   -0.736664    1.570526
      6          7           0        3.762437   -0.121555   -0.618528
      7          6           0        3.299185   -1.345347   -0.412929
      8          6           0        1.872043   -1.544529   -0.879887
      9          6           0        1.611647   -0.174084   -1.643233
     10          6           0        2.865788    0.659106   -1.312618
     11          6           0        1.237083   -0.357184   -3.156887
     12          6           0        0.903522   -1.703836    0.320137
     13          6           0        0.008388   -2.924776    0.202887
     14          6           0       -1.477289   -2.539917    0.256937
     15          8           0       -2.016632   -1.521461    0.742549
     16          8           0       -2.228254   -3.531672   -0.240952
     17          7           0        5.277598    2.628163   -0.692327
     18          6           0        4.121506    2.958538   -1.425424
     19          6           0        4.205855    4.382039   -1.784931
     20          6           0        5.458919    4.826027   -1.283503
     21          6           0        6.160661    3.648306   -0.749675
     22          6           0        3.153472    5.103227   -2.607643
     23          6           0        6.142519    6.244368   -1.482874
     24          8           0        7.262632    6.484747   -1.041793
     25          6           0        5.353372    7.363796   -2.099963
     26          7           0        7.776374    1.352151    0.516792
     27          6           0        8.215332    2.567146    0.371645
     28          6           0        9.663972    2.740104    0.719741
     29          6           0        9.952070    1.392089    1.399951
     30          6           0        8.701553    0.603905    1.205113
     31          6           0       10.477256    3.111445   -0.575448
     32          6           0       10.449478    1.453002    2.809611
     33          6           0        9.484581    1.975202    3.791454
     34          7           0        6.243576   -1.057522    0.855694
     35          6           0        7.409154   -1.493762    1.489475
     36          6           0        7.275465   -2.872556    1.814386
     37          6           0        5.988105   -3.201335    1.278293
     38          6           0        5.424097   -2.135355    0.662564
     39          6           0        8.233513   -3.802832    2.601747
     40          6           0        5.052779   -4.255264    1.217019
     41          8           0        5.252805   -5.388283    1.638128
     42          6           0        3.853888   -3.804642    0.523393
     43          6           0        3.670828   -4.695435   -0.676846
     44          8           0        4.074943   -4.438276   -1.749291
     45          8           0        2.772831   -5.678146   -0.471753
     46          6           0        1.964851   -6.193935   -1.550763
     47          6           0       -3.604509   -3.786354    0.238543
     48          6           0       -4.553916   -2.890301   -0.558827
     49          6           0       -5.826090   -3.225850   -0.937385
     50          6           0       -6.659528   -4.491042   -0.609329
     51          6           0       -6.565135   -2.306326   -1.879748
     52          6           0       -7.793457   -1.615102   -1.377188
     53          6           0       -8.987776   -1.859033   -2.185469
     54          6           0      -10.289165   -1.545554   -1.489140
     55          6           0      -11.475845   -2.211774   -2.177895
     56          6           0      -10.452451   -0.056020   -1.426840
     57          6           0      -11.020366    0.423423   -0.014359
     58          6           0       -9.991766    1.258516    0.782372
     59          6           0      -10.511471    2.608493    1.134069
     60          6           0       -9.481533    3.437592    1.953144
     61          6           0      -11.770501    2.391729    2.068544
     62          6           0      -12.985529    3.223093    1.737445
     63          6           0      -14.225439    2.570388    1.147740
     64          6           0      -15.529232    2.871815    2.016861
     65          6           0      -16.461535    1.718069    1.943401
     66          6           0      -16.177612    4.225135    1.682814
     67          1           0        2.207499    2.296651   -2.263376
     68          1           0        8.139802    4.459172   -0.430648
     69          1           0        9.433625   -1.274773    2.050433
     70          1           0        1.938996   -2.344331   -1.617029
     71          1           0        0.754593    0.269311   -1.136833
     72          1           0        2.114601   -0.201656   -3.783795
     73          1           0        0.421303    0.313454   -3.427504
     74          1           0        0.945544   -1.389617   -3.350167
     75          1           0        0.345801   -0.800613    0.568151
     76          1           0        1.460569   -1.815939    1.250007
     77          1           0        0.205890   -3.658171    0.986073
     78          1           0        0.186843   -3.420957   -0.750925
     79          1           0        2.858313    5.983691   -2.036275
     80          1           0        2.217469    4.591073   -2.833383
     81          1           0        3.635087    5.515388   -3.494348
     82          1           0        5.257798    7.168339   -3.167892
     83          1           0        5.820014    8.321126   -1.869692
     84          1           0        4.358596    7.504737   -1.676646
     85          1           0        9.778712    3.544355    1.446479
     86          1           0       10.717871    0.872654    0.822589
     87          1           0        9.816522    2.977731   -1.431366
     88          1           0       11.293808    2.399416   -0.696024
     89          1           0       10.731623    4.157874   -0.743925
     90          1           0       11.305063    2.107924    2.972844
     91          1           0       10.732088    0.433385    3.069168
     92          1           0        9.789406    2.969033    4.118182
     93          1           0        9.270516    1.346852    4.656419
     94          1           0        8.445187    1.944027    3.463279
     95          1           0        7.555941   -4.500038    3.093987
     96          1           0        8.829570   -3.212655    3.297643
     97          1           0        8.892225   -4.296712    1.888131
     98          1           0        2.974356   -4.033111    1.124502
     99          1           0        2.085820   -5.753763   -2.540871
    100          1           0        0.935827   -5.962602   -1.275329
    101          1           0        2.152144   -7.244170   -1.770513
    102          1           0       -3.640071   -3.656626    1.319474
    103          1           0       -3.855408   -4.821883    0.004719
    104          1           0       -4.047905   -2.047259   -1.028617
    105          1           0       -7.681475   -4.187429   -0.384881
    106          1           0       -6.261646   -5.040203    0.243362
    107          1           0       -6.604639   -5.207165   -1.429279
    108          1           0       -6.713041   -2.865337   -2.804598
    109          1           0       -5.882106   -1.487095   -2.100333
    110          1           0       -7.693269   -0.555268   -1.142678
    111          1           0       -8.101290   -2.103443   -0.452047
    112          1           0       -8.906163   -2.923562   -2.401829
    113          1           0       -8.935301   -1.371080   -3.158301
    114          1           0      -10.182957   -1.997870   -0.503050
    115          1           0      -12.378558   -1.615947   -2.041528
    116          1           0      -11.584784   -3.258059   -1.892958
    117          1           0      -11.254559   -2.321615   -3.239508
    118          1           0      -11.202581    0.261614   -2.151730
    119          1           0       -9.552974    0.448359   -1.779076
    120          1           0      -11.372927   -0.464936    0.509361
    121          1           0      -11.818464    1.095436   -0.327958
    122          1           0       -9.058852    1.471543    0.259358
    123          1           0       -9.692363    0.844944    1.745042
    124          1           0      -10.764096    3.199291    0.253638
    125          1           0       -8.475076    3.263054    1.573551
    126          1           0       -9.250575    3.029557    2.937599
    127          1           0       -9.617182    4.518435    2.001548
    128          1           0      -11.400270    2.744204    3.030880
    129          1           0      -12.102652    1.361087    2.190823
    130          1           0      -12.606964    3.962292    1.030828
    131          1           0      -13.212976    3.814523    2.623431
    132          1           0      -14.079345    1.494991    1.043781
    133          1           0      -14.301897    3.094300    0.194513
    134          1           0      -15.179406    2.900556    3.047670
    135          1           0      -16.629307    1.450982    2.986588
    136          1           0      -16.085768    0.881219    1.353754
    137          1           0      -17.445103    1.881115    1.501928
    138          1           0      -16.226349    4.853294    2.571439
    139          1           0      -17.124053    4.013833    1.184264
    140          1           0      -15.548721    4.772839    0.980640
 ---------------------------------------------------------------------

 SCF Done:  E(RCAM-B3LYP) =  -3007.17084294     A.U. after   18 cycles

 Excitation energies and oscillator strengths:

 Excited State   1:      Singlet-A      1.7871 eV  693.79 nm  f=0.3653  <S**2>=0.000
     245 -> 248        0.19524
     246 -> 247        0.68134
     245 <- 248        0.10963
 This state for optimization and/or second-order correction.
 Total Energy, E(TD-HF/TD-DFT) =  -3007.10517005
 Copying the excited state density for this state as the 1-particle RhoCI density.

 Excited State   2:      Singlet-A      2.2269 eV  556.76 nm  f=0.1378  <S**2>=0.000
     245 -> 247        0.64683
     246 -> 248       -0.27188

 Excited State   3:      Singlet-A      3.2602 eV  380.30 nm  f=0.0092  <S**2>=0.000
     242 -> 247       -0.13647
     244 -> 247        0.67553

 Excited State   4:      Singlet-A      3.4736 eV  356.93 nm  f=0.0103  <S**2>=0.000
     240 -> 247        0.16633
     242 -> 247        0.18223
     243 -> 247        0.57084
     243 -> 249       -0.15689
     243 -> 250        0.17845
     246 -> 248        0.12550

 Excited State   5:      Singlet-A      3.5279 eV  351.44 nm  f=0.0724  <S**2>=0.000
     240 -> 247        0.21066
     242 -> 247        0.48382
     243 -> 247       -0.19847
     243 -> 249        0.13394
     243 -> 250       -0.14621
     244 -> 247        0.11650
     246 -> 248        0.31730

 The electronic state is 1-A.
 Alpha  occ. eigenvalues --  -46.88057 -19.24824 -19.24255 -19.19865 -19.19735
 Alpha  occ. eigenvalues --  -19.19285 -19.16847 -14.42112 -14.41345 -14.39641
 Alpha  occ. eigenvalues --  -14.38146 -10.39977 -10.38683 -10.36193 -10.33190
 Alpha  occ. eigenvalues --  -10.32463 -10.31931 -10.31775 -10.31123 -10.30593
 Alpha  occ. eigenvalues --  -10.30450 -10.30111 -10.29784 -10.29679 -10.28515
 Alpha  occ. eigenvalues --  -10.28394 -10.28334 -10.28057 -10.28007 -10.27838
 Alpha  occ. eigenvalues --  -10.27771 -10.27754 -10.27715 -10.27673 -10.27565
 Alpha  occ. eigenvalues --  -10.27019 -10.26861 -10.26827 -10.26713 -10.26602
 Alpha  occ. eigenvalues --  -10.26594 -10.26517 -10.26257 -10.26248 -10.25737
 Alpha  occ. eigenvalues --  -10.25533 -10.25498 -10.25358 -10.25356 -10.25350
 Alpha  occ. eigenvalues --  -10.25157 -10.25086 -10.24851 -10.24526 -10.24434
 Alpha  occ. eigenvalues --  -10.24413 -10.24362 -10.24353 -10.24297 -10.24294
 Alpha  occ. eigenvalues --  -10.24276 -10.24034 -10.23764 -10.23647 -10.23537
 Alpha  occ. eigenvalues --  -10.22796  -3.16579  -1.91498  -1.91034  -1.90875
 Alpha  occ. eigenvalues --   -1.17953  -1.16661  -1.10450  -1.09036  -1.08503
 Alpha  occ. eigenvalues --   -1.06583  -1.05090  -1.04313  -1.02552  -1.02014
 Alpha  occ. eigenvalues --   -0.93126  -0.91886  -0.90225  -0.89996  -0.89977
 Alpha  occ. eigenvalues --   -0.89116  -0.88262  -0.88028  -0.87241  -0.87082
 Alpha  occ. eigenvalues --   -0.85934  -0.84933  -0.84551  -0.83811  -0.83398
 Alpha  occ. eigenvalues --   -0.82951  -0.82260  -0.81773  -0.81121  -0.80504
 Alpha  occ. eigenvalues --   -0.80152  -0.78387  -0.77918  -0.77657  -0.76769
 Alpha  occ. eigenvalues --   -0.76616  -0.75654  -0.75098  -0.74950  -0.74189
 Alpha  occ. eigenvalues --   -0.73671  -0.72475  -0.71833  -0.70668  -0.70007
 Alpha  occ. eigenvalues --   -0.68399  -0.68182  -0.66817  -0.66434  -0.65756
 Alpha  occ. eigenvalues --   -0.65470  -0.64927  -0.64463  -0.64340  -0.64185
 Alpha  occ. eigenvalues --   -0.63340  -0.62960  -0.62516  -0.62448  -0.60437
 Alpha  occ. eigenvalues --   -0.60411  -0.59778  -0.59499  -0.58597  -0.58291
 Alpha  occ. eigenvalues --   -0.58042  -0.57377  -0.56404  -0.56274  -0.56152
 Alpha  occ. eigenvalues --   -0.55795  -0.55582  -0.54924  -0.54346  -0.54257
 Alpha  occ. eigenvalues --   -0.53969  -0.53552  -0.53410  -0.53344  -0.53189
 Alpha  occ. eigenvalues --   -0.53078  -0.52793  -0.52389  -0.52158  -0.51910
 Alpha  occ. eigenvalues --   -0.51695  -0.51553  -0.51162  -0.50961  -0.50647
 Alpha  occ. eigenvalues --   -0.50556  -0.50407  -0.49762  -0.49634  -0.49528
 Alpha  occ. eigenvalues --   -0.49293  -0.49225  -0.48983  -0.48848  -0.48735
 Alpha  occ. eigenvalues --   -0.48588  -0.48559  -0.48316  -0.48130  -0.47994
 Alpha  occ. eigenvalues --   -0.47568  -0.47366  -0.47196  -0.46796  -0.46658
 Alpha  occ. eigenvalues --   -0.46264  -0.46119  -0.46096  -0.46004  -0.45943
 Alpha  occ. eigenvalues --   -0.45762  -0.45488  -0.45299  -0.45112  -0.44973
 Alpha  occ. eigenvalues --   -0.44356  -0.44187  -0.44024  -0.43773  -0.43676
 Alpha  occ. eigenvalues --   -0.43573  -0.43506  -0.43192  -0.42972  -0.42885
 Alpha  occ. eigenvalues --   -0.42733  -0.42696  -0.42602  -0.42491  -0.42320
 Alpha  occ. eigenvalues --   -0.41775  -0.41751  -0.41499  -0.41181  -0.40965
 Alpha  occ. eigenvalues --   -0.40724  -0.40612  -0.40376  -0.40234  -0.40155
 Alpha  occ. eigenvalues --   -0.39793  -0.39446  -0.38943  -0.38767  -0.38728
 Alpha  occ. eigenvalues --   -0.38564  -0.37917  -0.37834  -0.37647  -0.37302
 Alpha  occ. eigenvalues --   -0.36886  -0.36745  -0.36560  -0.36448  -0.36385
 Alpha  occ. eigenvalues --   -0.36115  -0.35836  -0.35051  -0.34291  -0.34198
 Alpha  occ. eigenvalues --   -0.33959  -0.33870  -0.33209  -0.31638  -0.30942
 Alpha  occ. eigenvalues --   -0.30159  -0.30046  -0.29646  -0.28385  -0.23532
 Alpha  occ. eigenvalues --   -0.21217
 Alpha virt. eigenvalues --   -0.08361  -0.01361   0.00733   0.02856   0.03865
 Alpha virt. eigenvalues --    0.04134   0.05082   0.05392   0.06163   0.06683
 Alpha virt. eigenvalues --    0.07523   0.08420   0.08620   0.08817   0.09161

 Mulliken charges:
               1
     1  Mg   0.820646
     2  C    0.009984
     3  C   -0.064112
     4  C   -0.059306
     5  C   -0.088656
     6  N   -0.250465
     7  C   -0.079859
     8  C   -0.047424
     9  C   -0.048092
    10  C   -0.009304
    11  C    0.067969
    12  C    0.089071
    13  C    0.031622
    14  C    0.152754
    15  O   -0.258084
    16  O   -0.332429
    17  N   -0.387574
    18  C    0.185282
    19  C   -0.136298
    20  C   -0.063475
    21  C    0.148607
    22  C    0.129641
    23  C    0.036442
    24  O   -0.200431
    25  C    0.040042
    26  N   -0.230242
    27  C   -0.026073
    28  C   -0.019315
    29  C    0.022882
    30  C    0.049607
    31  C    0.065707
    32  C    0.060995
    33  C   -0.015792
    34  N   -0.418721
    35  C    0.101755
    36  C   -0.198611
    37  C    0.040916
    38  C    0.129583
    39  C    0.133720
    40  C   -0.048773
    41  O   -0.189919
    42  C    0.043527
    43  C    0.152338
    44  O   -0.167576
    45  O   -0.315369
    46  C    0.171511
    47  C    0.277484
    48  C   -0.106865
    49  C   -0.178399
    50  C    0.076765
    51  C    0.111516
    52  C    0.034503
    53  C   -0.003029
    54  C   -0.119759
    55  C    0.083944
    56  C    0.051184
    57  C    0.033274
    58  C    0.054226
    59  C   -0.139562
    60  C    0.046802
    61  C    0.045683
    62  C    0.015136
    63  C    0.050960
    64  C   -0.168037
    65  C    0.051575
    66  C    0.072845
    67  H   -0.035817
    68  H   -0.010282
    69  H   -0.023067
    70  H    0.022728
    71  H    0.018024
    72  H    0.022778
    73  H    0.024806
    74  H    0.014237
    75  H    0.030564
    76  H    0.006535
    77  H    0.055026
    78  H    0.032529
    79  H    0.017556
    80  H    0.028153
    81  H    0.026969
    82  H    0.041199
    83  H    0.031418
    84  H    0.031271
    85  H    0.011738
    86  H   -0.001954
    87  H    0.015060
    88  H    0.016336
    89  H    0.030456
    90  H    0.004922
    91  H   -0.000857
    92  H    0.019537
    93  H    0.004126
    94  H    0.009369
    95  H    0.044261
    96  H    0.011245
    97  H    0.032091
    98  H    0.029357
    99  H    0.029004
   100  H    0.033537
   101  H    0.042199
   102  H    0.039568
   103  H    0.026129
   104  H    0.017882
   105  H    0.025828
   106  H    0.006287
   107  H    0.030435
   108  H    0.007296
   109  H   -0.015555
   110  H    0.002547
   111  H   -0.016559
   112  H   -0.027010
   113  H   -0.010566
   114  H   -0.013460
   115  H    0.010280
   116  H   -0.000939
   117  H   -0.004630
   118  H   -0.020377
   119  H   -0.004396
   120  H    0.013826
   121  H    0.010008
   122  H   -0.008445
   123  H   -0.010796
   124  H   -0.005914
   125  H   -0.017629
   126  H   -0.001324
   127  H    0.018431
   128  H   -0.016390
   129  H   -0.004699
   130  H   -0.025266
   131  H   -0.012938
   132  H    0.001592
   133  H   -0.003777
   134  H   -0.002069
   135  H    0.007830
   136  H    0.002435
   137  H   -0.003291
   138  H    0.013738
   139  H    0.009927
   140  H   -0.002004
 Sum of Mulliken charges =  -0.00000

 Dipole moment (field-independent basis, Debye):
    X=             -4.3730    Y=              2.3905    Z=             -2.4531  Tot=              5.5548
 Quadrupole moment (field-independent basis, Debye-Ang):
   XX=           -404.8811   YY=           -411.1220   ZZ=           -398.4839
   XY=             30.7634   XZ=              6.8275   YZ=             -0.4867

 Normal termination of Gaussian 16 at Wed Apr 27 15:15:51 2022.
