 Gaussian 16, Revision A.03,
 Gaussian 16:  ES64L-G16RevA.03 25-Dec-2016

 ---------------------------------
 #p PBE1PBE/Def2SVP td=(nstates=5)
 ---------------------------------

 ------------------------------------------------------
 step_1251_chromophore_10 TDDFT with PBE1PBE functional
 ------------------------------------------------------
 Symbolic Z-matrix:
 Charge =  0 Multiplicity = 1

                         Standard orientation:
 ---------------------------------------------------------------------
 Center     Atomic      Atomic             Coordinates (Angstroms)
 Number     Number       Type             X           Y           Z
 ---------------------------------------------------------------------
      1         12           0        5.718107    0.718668    0.077874
      2          6           0        4.105479   -2.350331    0.155780
      3          6           0        3.066137    2.041446   -1.638959
      4          6           0        7.490506    3.596520   -0.264859
      5          6           0        8.613519   -0.736664    1.570526
      6          7           0        3.762437   -0.121555   -0.618528
      7          6           0        3.299185   -1.345347   -0.412929
      8          6           0        1.872043   -1.544529   -0.879887
      9          6           0        1.611647   -0.174084   -1.643233
     10          6           0        2.865788    0.659106   -1.312618
     11          6           0        1.237083   -0.357184   -3.156887
     12          6           0        0.903522   -1.703836    0.320137
     13          6           0        0.008388   -2.924776    0.202887
     14          6           0       -1.477289   -2.539917    0.256937
     15          8           0       -2.016632   -1.521461    0.742549
     16          8           0       -2.228254   -3.531672   -0.240952
     17          7           0        5.277598    2.628163   -0.692327
     18          6           0        4.121506    2.958538   -1.425424
     19          6           0        4.205855    4.382039   -1.784931
     20          6           0        5.458919    4.826027   -1.283503
     21          6           0        6.160661    3.648306   -0.749675
     22          6           0        3.153472    5.103227   -2.607643
     23          6           0        6.142519    6.244368   -1.482874
     24          8           0        7.262632    6.484747   -1.041793
     25          6           0        5.353372    7.363796   -2.099963
     26          7           0        7.776374    1.352151    0.516792
     27          6           0        8.215332    2.567146    0.371645
     28          6           0        9.663972    2.740104    0.719741
     29          6           0        9.952070    1.392089    1.399951
     30          6           0        8.701553    0.603905    1.205113
     31          6           0       10.477256    3.111445   -0.575448
     32          6           0       10.449478    1.453002    2.809611
     33          6           0        9.484581    1.975202    3.791454
     34          7           0        6.243576   -1.057522    0.855694
     35          6           0        7.409154   -1.493762    1.489475
     36          6           0        7.275465   -2.872556    1.814386
     37          6           0        5.988105   -3.201335    1.278293
     38          6           0        5.424097   -2.135355    0.662564
     39          6           0        8.233513   -3.802832    2.601747
     40          6           0        5.052779   -4.255264    1.217019
     41          8           0        5.252805   -5.388283    1.638128
     42          6           0        3.853888   -3.804642    0.523393
     43          6           0        3.670828   -4.695435   -0.676846
     44          8           0        4.074943   -4.438276   -1.749291
     45          8           0        2.772831   -5.678146   -0.471753
     46          6           0        1.964851   -6.193935   -1.550763
     47          6           0       -3.604509   -3.786354    0.238543
     48          6           0       -4.553916   -2.890301   -0.558827
     49          6           0       -5.826090   -3.225850   -0.937385
     50          6           0       -6.659528   -4.491042   -0.609329
     51          6           0       -6.565135   -2.306326   -1.879748
     52          6           0       -7.793457   -1.615102   -1.377188
     53          6           0       -8.987776   -1.859033   -2.185469
     54          6           0      -10.289165   -1.545554   -1.489140
     55          6           0      -11.475845   -2.211774   -2.177895
     56          6           0      -10.452451   -0.056020   -1.426840
     57          6           0      -11.020366    0.423423   -0.014359
     58          6           0       -9.991766    1.258516    0.782372
     59          6           0      -10.511471    2.608493    1.134069
     60          6           0       -9.481533    3.437592    1.953144
     61          6           0      -11.770501    2.391729    2.068544
     62          6           0      -12.985529    3.223093    1.737445
     63          6           0      -14.225439    2.570388    1.147740
     64          6           0      -15.529232    2.871815    2.016861
     65          6           0      -16.461535    1.718069    1.943401
     66          6           0      -16.177612    4.225135    1.682814
     67          1           0        2.207499    2.296651   -2.263376
     68          1           0        8.139802    4.459172   -0.430648
     69          1           0        9.433625   -1.274773    2.050433
     70          1           0        1.938996   -2.344331   -1.617029
     71          1           0        0.754593    0.269311   -1.136833
     72          1           0        2.114601   -0.201656   -3.783795
     73          1           0        0.421303    0.313454   -3.427504
     74          1           0        0.945544   -1.389617   -3.350167
     75          1           0        0.345801   -0.800613    0.568151
     76          1           0        1.460569   -1.815939    1.250007
     77          1           0        0.205890   -3.658171    0.986073
     78          1           0        0.186843   -3.420957   -0.750925
     79          1           0        2.858313    5.983691   -2.036275
     80          1           0        2.217469    4.591073   -2.833383
     81          1           0        3.635087    5.515388   -3.494348
     82          1           0        5.257798    7.168339   -3.167892
     83          1           0        5.820014    8.321126   -1.869692
     84          1           0        4.358596    7.504737   -1.676646
     85          1           0        9.778712    3.544355    1.446479
     86          1           0       10.717871    0.872654    0.822589
     87          1           0        9.816522    2.977731   -1.431366
     88          1           0       11.293808    2.399416   -0.696024
     89          1           0       10.731623    4.157874   -0.743925
     90          1           0       11.305063    2.107924    2.972844
     91          1           0       10.732088    0.433385    3.069168
     92          1           0        9.789406    2.969033    4.118182
     93          1           0        9.270516    1.346852    4.656419
     94          1           0        8.445187    1.944027    3.463279
     95          1           0        7.555941   -4.500038    3.093987
     96          1           0        8.829570   -3.212655    3.297643
     97          1           0        8.892225   -4.296712    1.888131
     98          1           0        2.974356   -4.033111    1.124502
     99          1           0        2.085820   -5.753763   -2.540871
    100          1           0        0.935827   -5.962602   -1.275329
    101          1           0        2.152144   -7.244170   -1.770513
    102          1           0       -3.640071   -3.656626    1.319474
    103          1           0       -3.855408   -4.821883    0.004719
    104          1           0       -4.047905   -2.047259   -1.028617
    105          1           0       -7.681475   -4.187429   -0.384881
    106          1           0       -6.261646   -5.040203    0.243362
    107          1           0       -6.604639   -5.207165   -1.429279
    108          1           0       -6.713041   -2.865337   -2.804598
    109          1           0       -5.882106   -1.487095   -2.100333
    110          1           0       -7.693269   -0.555268   -1.142678
    111          1           0       -8.101290   -2.103443   -0.452047
    112          1           0       -8.906163   -2.923562   -2.401829
    113          1           0       -8.935301   -1.371080   -3.158301
    114          1           0      -10.182957   -1.997870   -0.503050
    115          1           0      -12.378558   -1.615947   -2.041528
    116          1           0      -11.584784   -3.258059   -1.892958
    117          1           0      -11.254559   -2.321615   -3.239508
    118          1           0      -11.202581    0.261614   -2.151730
    119          1           0       -9.552974    0.448359   -1.779076
    120          1           0      -11.372927   -0.464936    0.509361
    121          1           0      -11.818464    1.095436   -0.327958
    122          1           0       -9.058852    1.471543    0.259358
    123          1           0       -9.692363    0.844944    1.745042
    124          1           0      -10.764096    3.199291    0.253638
    125          1           0       -8.475076    3.263054    1.573551
    126          1           0       -9.250575    3.029557    2.937599
    127          1           0       -9.617182    4.518435    2.001548
    128          1           0      -11.400270    2.744204    3.030880
    129          1           0      -12.102652    1.361087    2.190823
    130          1           0      -12.606964    3.962292    1.030828
    131          1           0      -13.212976    3.814523    2.623431
    132          1           0      -14.079345    1.494991    1.043781
    133          1           0      -14.301897    3.094300    0.194513
    134          1           0      -15.179406    2.900556    3.047670
    135          1           0      -16.629307    1.450982    2.986588
    136          1           0      -16.085768    0.881219    1.353754
    137          1           0      -17.445103    1.881115    1.501928
    138          1           0      -16.226349    4.853294    2.571439
    139          1           0      -17.124053    4.013833    1.184264
    140          1           0      -15.548721    4.772839    0.980640
 ---------------------------------------------------------------------

 SCF Done:  E(RPBE1PBE) =  -3005.35951944     A.U. after   15 cycles

 Excitation energies and oscillator strengths:

 Excited State   1:      Singlet-A      1.9172 eV  646.68 nm  f=0.3532  <S**2>=0.000
     245 -> 248       -0.19283
     246 -> 247        0.68638
 This state for optimization and/or second-order correction.
 Total Energy, E(TD-HF/TD-DFT) =  -3005.28906241
 Copying the excited state density for this state as the 1-particle RhoCI density.

 Excited State   2:      Singlet-A      2.2393 eV  553.68 nm  f=0.1298  <S**2>=0.000
     245 -> 247        0.65607
     246 -> 248        0.25289

 Excited State   3:      Singlet-A      2.8190 eV  439.81 nm  f=0.0032  <S**2>=0.000
     243 -> 247        0.23340
     244 -> 247        0.64648

 Excited State   4:      Singlet-A      2.9516 eV  420.06 nm  f=0.0033  <S**2>=0.000
     243 -> 247        0.64608
     244 -> 247       -0.24878

 Excited State   5:      Singlet-A      3.2109 eV  386.14 nm  f=0.0051  <S**2>=0.000
     240 -> 247        0.49034
     240 -> 249        0.12870
     241 -> 247       -0.46284

 The electronic state is 1-A.
 Alpha  occ. eigenvalues --  -46.91461 -19.25557 -19.24983 -19.20213 -19.19726
 Alpha  occ. eigenvalues --  -19.19560 -19.17285 -14.41553 -14.40867 -14.39202
 Alpha  occ. eigenvalues --  -14.38009 -10.37070 -10.35767 -10.33128 -10.30590
 Alpha  occ. eigenvalues --  -10.29751 -10.29274 -10.29217 -10.28495 -10.28298
 Alpha  occ. eigenvalues --  -10.27992 -10.27717 -10.27610 -10.27021 -10.26577
 Alpha  occ. eigenvalues --  -10.26086 -10.25922 -10.25916 -10.25726 -10.25500
 Alpha  occ. eigenvalues --  -10.25424 -10.25418 -10.25360 -10.25287 -10.24972
 Alpha  occ. eigenvalues --  -10.24788 -10.24696 -10.24513 -10.24295 -10.24261
 Alpha  occ. eigenvalues --  -10.24115 -10.23999 -10.23833 -10.23820 -10.23219
 Alpha  occ. eigenvalues --  -10.23176 -10.23164 -10.23042 -10.23005 -10.22912
 Alpha  occ. eigenvalues --  -10.22739 -10.22715 -10.22528 -10.22116 -10.21932
 Alpha  occ. eigenvalues --  -10.21920 -10.21883 -10.21819 -10.21712 -10.21711
 Alpha  occ. eigenvalues --  -10.21661 -10.21564 -10.21329 -10.21041 -10.21013
 Alpha  occ. eigenvalues --  -10.20788  -3.13566  -1.86427  -1.85939  -1.85786
 Alpha  occ. eigenvalues --   -1.12822  -1.11528  -1.04965  -1.03961  -1.03418
 Alpha  occ. eigenvalues --   -1.01473  -0.99728  -0.98893  -0.97119  -0.96815
 Alpha  occ. eigenvalues --   -0.87664  -0.86008  -0.84393  -0.84331  -0.84148
 Alpha  occ. eigenvalues --   -0.83264  -0.82479  -0.82138  -0.81542  -0.81150
 Alpha  occ. eigenvalues --   -0.80162  -0.79388  -0.78816  -0.78205  -0.77661
 Alpha  occ. eigenvalues --   -0.77140  -0.76407  -0.75909  -0.75447  -0.74839
 Alpha  occ. eigenvalues --   -0.74299  -0.72522  -0.72217  -0.72019  -0.71029
 Alpha  occ. eigenvalues --   -0.70900  -0.69735  -0.69463  -0.69094  -0.68359
 Alpha  occ. eigenvalues --   -0.68002  -0.67006  -0.66238  -0.64970  -0.64375
 Alpha  occ. eigenvalues --   -0.62789  -0.62577  -0.61225  -0.60666  -0.60160
 Alpha  occ. eigenvalues --   -0.59637  -0.59480  -0.58970  -0.58932  -0.58297
 Alpha  occ. eigenvalues --   -0.57558  -0.57445  -0.57126  -0.56661  -0.54812
 Alpha  occ. eigenvalues --   -0.54797  -0.54353  -0.53995  -0.53146  -0.52886
 Alpha  occ. eigenvalues --   -0.52490  -0.52004  -0.50944  -0.50681  -0.50637
 Alpha  occ. eigenvalues --   -0.50350  -0.50132  -0.49591  -0.48815  -0.48761
 Alpha  occ. eigenvalues --   -0.48595  -0.48061  -0.47987  -0.47856  -0.47752
 Alpha  occ. eigenvalues --   -0.47373  -0.47222  -0.46813  -0.46781  -0.46450
 Alpha  occ. eigenvalues --   -0.46185  -0.46093  -0.45786  -0.45625  -0.45231
 Alpha  occ. eigenvalues --   -0.45166  -0.44781  -0.44360  -0.44197  -0.44102
 Alpha  occ. eigenvalues --   -0.43872  -0.43779  -0.43567  -0.43506  -0.43284
 Alpha  occ. eigenvalues --   -0.43231  -0.43130  -0.42804  -0.42764  -0.42567
 Alpha  occ. eigenvalues --   -0.42355  -0.41957  -0.41755  -0.41377  -0.41294
 Alpha  occ. eigenvalues --   -0.41009  -0.40907  -0.40743  -0.40690  -0.40594
 Alpha  occ. eigenvalues --   -0.40483  -0.40301  -0.40151  -0.39912  -0.39740
 Alpha  occ. eigenvalues --   -0.39039  -0.39032  -0.38771  -0.38560  -0.38387
 Alpha  occ. eigenvalues --   -0.38344  -0.38312  -0.37937  -0.37756  -0.37632
 Alpha  occ. eigenvalues --   -0.37558  -0.37520  -0.37400  -0.37324  -0.37063
 Alpha  occ. eigenvalues --   -0.36679  -0.36506  -0.36332  -0.36038  -0.35822
 Alpha  occ. eigenvalues --   -0.35644  -0.35346  -0.35290  -0.35095  -0.34885
 Alpha  occ. eigenvalues --   -0.34666  -0.34227  -0.33702  -0.33694  -0.33545
 Alpha  occ. eigenvalues --   -0.33406  -0.32842  -0.32564  -0.32424  -0.32298
 Alpha  occ. eigenvalues --   -0.31915  -0.31614  -0.31572  -0.31445  -0.31314
 Alpha  occ. eigenvalues --   -0.30995  -0.30690  -0.29996  -0.29415  -0.29079
 Alpha  occ. eigenvalues --   -0.29015  -0.28768  -0.28668  -0.26654  -0.26058
 Alpha  occ. eigenvalues --   -0.25540  -0.25452  -0.24723  -0.24154  -0.20507
 Alpha  occ. eigenvalues --   -0.18784
 Alpha virt. eigenvalues --   -0.10842  -0.04845  -0.03461  -0.01610  -0.00605
 Alpha virt. eigenvalues --    0.00592   0.01144   0.01401   0.01782   0.02506
 Alpha virt. eigenvalues --    0.03837   0.04395   0.05323   0.05471   0.05703

 Mulliken charges:
               1
     1  Mg   0.971169
     2  C    0.003964
     3  C   -0.061897
     4  C   -0.049598
     5  C   -0.071589
     6  N   -0.358969
     7  C   -0.003666
     8  C   -0.126914
     9  C   -0.120408
    10  C    0.031715
    11  C    0.008461
    12  C    0.049094
    13  C   -0.050026
    14  C    0.223282
    15  O   -0.289726
    16  O   -0.363743
    17  N   -0.497084
    18  C    0.199443
    19  C   -0.170188
    20  C   -0.101553
    21  C    0.173763
    22  C    0.069926
    23  C    0.084062
    24  O   -0.238313
    25  C   -0.032543
    26  N   -0.337283
    27  C    0.010558
    28  C   -0.091993
    29  C   -0.061494
    30  C    0.084493
    31  C    0.007398
    32  C   -0.005698
    33  C   -0.082339
    34  N   -0.548572
    35  C    0.124853
    36  C   -0.199257
    37  C   -0.017564
    38  C    0.187431
    39  C    0.075983
    40  C    0.043568
    41  O   -0.236336
    42  C   -0.072730
    43  C    0.256938
    44  O   -0.203866
    45  O   -0.352498
    46  C    0.117346
    47  C    0.236172
    48  C   -0.118286
    49  C   -0.218590
    50  C    0.014061
    51  C    0.044439
    52  C   -0.024589
    53  C   -0.063775
    54  C   -0.209809
    55  C    0.024564
    56  C    0.005062
    57  C   -0.037959
    58  C    0.004223
    59  C   -0.232560
    60  C   -0.011167
    61  C   -0.007844
    62  C   -0.039941
    63  C   -0.009822
    64  C   -0.260321
    65  C   -0.005541
    66  C    0.012804
    67  H   -0.001416
    68  H    0.022964
    69  H    0.008219
    70  H    0.060878
    71  H    0.054921
    72  H    0.050508
    73  H    0.051170
    74  H    0.041044
    75  H    0.059938
    76  H    0.040031
    77  H    0.085654
    78  H    0.066439
    79  H    0.045222
    80  H    0.053100
    81  H    0.054445
    82  H    0.067457
    83  H    0.057671
    84  H    0.057084
    85  H    0.049361
    86  H    0.037145
    87  H    0.044558
    88  H    0.043662
    89  H    0.056864
    90  H    0.038984
    91  H    0.032284
    92  H    0.046430
    93  H    0.032077
    94  H    0.039130
    95  H    0.072521
    96  H    0.039103
    97  H    0.061643
    98  H    0.068378
    99  H    0.049818
   100  H    0.055687
   101  H    0.064025
   102  H    0.065549
   103  H    0.052471
   104  H    0.045814
   105  H    0.052441
   106  H    0.034220
   107  H    0.057851
   108  H    0.039807
   109  H    0.018601
   110  H    0.034822
   111  H    0.018531
   112  H    0.008101
   113  H    0.023160
   114  H    0.023741
   115  H    0.037698
   116  H    0.027275
   117  H    0.023469
   118  H    0.013345
   119  H    0.026296
   120  H    0.044319
   121  H    0.046304
   122  H    0.023858
   123  H    0.022455
   124  H    0.030554
   125  H    0.010827
   126  H    0.025693
   127  H    0.046360
   128  H    0.018031
   129  H    0.027956
   130  H    0.008060
   131  H    0.018618
   132  H    0.031883
   133  H    0.029434
   134  H    0.036301
   135  H    0.034982
   136  H    0.029036
   137  H    0.023497
   138  H    0.040715
   139  H    0.036675
   140  H    0.025526
 Sum of Mulliken charges =  -0.00000

 Dipole moment (field-independent basis, Debye):
    X=             -4.1640    Y=              1.8179    Z=             -2.2065  Tot=              5.0510
 Quadrupole moment (field-independent basis, Debye-Ang):
   XX=           -397.9143   YY=           -409.2307   ZZ=           -395.6426
   XY=             28.0172   XZ=              9.4478   YZ=             -0.2352

 Normal termination of Gaussian 16 at Wed Apr 27 15:34:46 2022.
