 Gaussian 16, Revision A.03,
 Gaussian 16:  ES64L-G16RevA.03 25-Dec-2016

 --------------------------------
 #p wB97XD/Def2SVP td=(nstates=5)
 --------------------------------

 -----------------------------------------------------
 step_1251_chromophore_10 TDDFT with wB97XD functional
 -----------------------------------------------------
 Symbolic Z-matrix:
 Charge =  0 Multiplicity = 1

                         Standard orientation:
 ---------------------------------------------------------------------
 Center     Atomic      Atomic             Coordinates (Angstroms)
 Number     Number       Type             X           Y           Z
 ---------------------------------------------------------------------
      1         12           0        5.718107    0.718668    0.077874
      2          6           0        4.105479   -2.350331    0.155780
      3          6           0        3.066137    2.041446   -1.638959
      4          6           0        7.490506    3.596520   -0.264859
      5          6           0        8.613519   -0.736664    1.570526
      6          7           0        3.762437   -0.121555   -0.618528
      7          6           0        3.299185   -1.345347   -0.412929
      8          6           0        1.872043   -1.544529   -0.879887
      9          6           0        1.611647   -0.174084   -1.643233
     10          6           0        2.865788    0.659106   -1.312618
     11          6           0        1.237083   -0.357184   -3.156887
     12          6           0        0.903522   -1.703836    0.320137
     13          6           0        0.008388   -2.924776    0.202887
     14          6           0       -1.477289   -2.539917    0.256937
     15          8           0       -2.016632   -1.521461    0.742549
     16          8           0       -2.228254   -3.531672   -0.240952
     17          7           0        5.277598    2.628163   -0.692327
     18          6           0        4.121506    2.958538   -1.425424
     19          6           0        4.205855    4.382039   -1.784931
     20          6           0        5.458919    4.826027   -1.283503
     21          6           0        6.160661    3.648306   -0.749675
     22          6           0        3.153472    5.103227   -2.607643
     23          6           0        6.142519    6.244368   -1.482874
     24          8           0        7.262632    6.484747   -1.041793
     25          6           0        5.353372    7.363796   -2.099963
     26          7           0        7.776374    1.352151    0.516792
     27          6           0        8.215332    2.567146    0.371645
     28          6           0        9.663972    2.740104    0.719741
     29          6           0        9.952070    1.392089    1.399951
     30          6           0        8.701553    0.603905    1.205113
     31          6           0       10.477256    3.111445   -0.575448
     32          6           0       10.449478    1.453002    2.809611
     33          6           0        9.484581    1.975202    3.791454
     34          7           0        6.243576   -1.057522    0.855694
     35          6           0        7.409154   -1.493762    1.489475
     36          6           0        7.275465   -2.872556    1.814386
     37          6           0        5.988105   -3.201335    1.278293
     38          6           0        5.424097   -2.135355    0.662564
     39          6           0        8.233513   -3.802832    2.601747
     40          6           0        5.052779   -4.255264    1.217019
     41          8           0        5.252805   -5.388283    1.638128
     42          6           0        3.853888   -3.804642    0.523393
     43          6           0        3.670828   -4.695435   -0.676846
     44          8           0        4.074943   -4.438276   -1.749291
     45          8           0        2.772831   -5.678146   -0.471753
     46          6           0        1.964851   -6.193935   -1.550763
     47          6           0       -3.604509   -3.786354    0.238543
     48          6           0       -4.553916   -2.890301   -0.558827
     49          6           0       -5.826090   -3.225850   -0.937385
     50          6           0       -6.659528   -4.491042   -0.609329
     51          6           0       -6.565135   -2.306326   -1.879748
     52          6           0       -7.793457   -1.615102   -1.377188
     53          6           0       -8.987776   -1.859033   -2.185469
     54          6           0      -10.289165   -1.545554   -1.489140
     55          6           0      -11.475845   -2.211774   -2.177895
     56          6           0      -10.452451   -0.056020   -1.426840
     57          6           0      -11.020366    0.423423   -0.014359
     58          6           0       -9.991766    1.258516    0.782372
     59          6           0      -10.511471    2.608493    1.134069
     60          6           0       -9.481533    3.437592    1.953144
     61          6           0      -11.770501    2.391729    2.068544
     62          6           0      -12.985529    3.223093    1.737445
     63          6           0      -14.225439    2.570388    1.147740
     64          6           0      -15.529232    2.871815    2.016861
     65          6           0      -16.461535    1.718069    1.943401
     66          6           0      -16.177612    4.225135    1.682814
     67          1           0        2.207499    2.296651   -2.263376
     68          1           0        8.139802    4.459172   -0.430648
     69          1           0        9.433625   -1.274773    2.050433
     70          1           0        1.938996   -2.344331   -1.617029
     71          1           0        0.754593    0.269311   -1.136833
     72          1           0        2.114601   -0.201656   -3.783795
     73          1           0        0.421303    0.313454   -3.427504
     74          1           0        0.945544   -1.389617   -3.350167
     75          1           0        0.345801   -0.800613    0.568151
     76          1           0        1.460569   -1.815939    1.250007
     77          1           0        0.205890   -3.658171    0.986073
     78          1           0        0.186843   -3.420957   -0.750925
     79          1           0        2.858313    5.983691   -2.036275
     80          1           0        2.217469    4.591073   -2.833383
     81          1           0        3.635087    5.515388   -3.494348
     82          1           0        5.257798    7.168339   -3.167892
     83          1           0        5.820014    8.321126   -1.869692
     84          1           0        4.358596    7.504737   -1.676646
     85          1           0        9.778712    3.544355    1.446479
     86          1           0       10.717871    0.872654    0.822589
     87          1           0        9.816522    2.977731   -1.431366
     88          1           0       11.293808    2.399416   -0.696024
     89          1           0       10.731623    4.157874   -0.743925
     90          1           0       11.305063    2.107924    2.972844
     91          1           0       10.732088    0.433385    3.069168
     92          1           0        9.789406    2.969033    4.118182
     93          1           0        9.270516    1.346852    4.656419
     94          1           0        8.445187    1.944027    3.463279
     95          1           0        7.555941   -4.500038    3.093987
     96          1           0        8.829570   -3.212655    3.297643
     97          1           0        8.892225   -4.296712    1.888131
     98          1           0        2.974356   -4.033111    1.124502
     99          1           0        2.085820   -5.753763   -2.540871
    100          1           0        0.935827   -5.962602   -1.275329
    101          1           0        2.152144   -7.244170   -1.770513
    102          1           0       -3.640071   -3.656626    1.319474
    103          1           0       -3.855408   -4.821883    0.004719
    104          1           0       -4.047905   -2.047259   -1.028617
    105          1           0       -7.681475   -4.187429   -0.384881
    106          1           0       -6.261646   -5.040203    0.243362
    107          1           0       -6.604639   -5.207165   -1.429279
    108          1           0       -6.713041   -2.865337   -2.804598
    109          1           0       -5.882106   -1.487095   -2.100333
    110          1           0       -7.693269   -0.555268   -1.142678
    111          1           0       -8.101290   -2.103443   -0.452047
    112          1           0       -8.906163   -2.923562   -2.401829
    113          1           0       -8.935301   -1.371080   -3.158301
    114          1           0      -10.182957   -1.997870   -0.503050
    115          1           0      -12.378558   -1.615947   -2.041528
    116          1           0      -11.584784   -3.258059   -1.892958
    117          1           0      -11.254559   -2.321615   -3.239508
    118          1           0      -11.202581    0.261614   -2.151730
    119          1           0       -9.552974    0.448359   -1.779076
    120          1           0      -11.372927   -0.464936    0.509361
    121          1           0      -11.818464    1.095436   -0.327958
    122          1           0       -9.058852    1.471543    0.259358
    123          1           0       -9.692363    0.844944    1.745042
    124          1           0      -10.764096    3.199291    0.253638
    125          1           0       -8.475076    3.263054    1.573551
    126          1           0       -9.250575    3.029557    2.937599
    127          1           0       -9.617182    4.518435    2.001548
    128          1           0      -11.400270    2.744204    3.030880
    129          1           0      -12.102652    1.361087    2.190823
    130          1           0      -12.606964    3.962292    1.030828
    131          1           0      -13.212976    3.814523    2.623431
    132          1           0      -14.079345    1.494991    1.043781
    133          1           0      -14.301897    3.094300    0.194513
    134          1           0      -15.179406    2.900556    3.047670
    135          1           0      -16.629307    1.450982    2.986588
    136          1           0      -16.085768    0.881219    1.353754
    137          1           0      -17.445103    1.881115    1.501928
    138          1           0      -16.226349    4.853294    2.571439
    139          1           0      -17.124053    4.013833    1.184264
    140          1           0      -15.548721    4.772839    0.980640
 ---------------------------------------------------------------------

 SCF Done:  E(RwB97XD) =  -3007.86784043     A.U. after   19 cycles

 Excitation energies and oscillator strengths:

 Excited State   1:      Singlet-A      1.7432 eV  711.26 nm  f=0.3641  <S**2>=0.000
     245 -> 248        0.19875
     246 -> 247        0.67983
     245 <- 248        0.11790
 This state for optimization and/or second-order correction.
 Total Energy, E(TD-HF/TD-DFT) =  -3007.80378064
 Copying the excited state density for this state as the 1-particle RhoCI density.

 Excited State   2:      Singlet-A      2.1736 eV  570.41 nm  f=0.1339  <S**2>=0.000
     245 -> 247        0.64416
     246 -> 248       -0.27425

 Excited State   3:      Singlet-A      3.2978 eV  375.96 nm  f=0.0089  <S**2>=0.000
     241 -> 247       -0.16662
     244 -> 247        0.66124
     244 -> 249       -0.10890

 Excited State   4:      Singlet-A      3.4931 eV  354.94 nm  f=0.0396  <S**2>=0.000
     240 -> 247       -0.22840
     241 -> 247        0.40108
     243 -> 247        0.37510
     243 -> 249       -0.11525
     243 -> 250        0.13656
     244 -> 247        0.11143
     246 -> 248        0.24340

 Excited State   5:      Singlet-A      3.5518 eV  349.07 nm  f=0.0624  <S**2>=0.000
     240 -> 247        0.13331
     241 -> 247       -0.27947
     243 -> 247        0.44135
     243 -> 249       -0.20131
     243 -> 250        0.22800
     246 -> 248       -0.27188

 The electronic state is 1-A.
 Alpha  occ. eigenvalues --  -46.94387 -19.30083 -19.29471 -19.24833 -19.24821
 Alpha  occ. eigenvalues --  -19.24180 -19.21826 -14.46704 -14.45918 -14.44288
 Alpha  occ. eigenvalues --  -14.42726 -10.43803 -10.42493 -10.40237 -10.37079
 Alpha  occ. eigenvalues --  -10.36373 -10.35894 -10.35662 -10.35294 -10.34716
 Alpha  occ. eigenvalues --  -10.34428 -10.34150 -10.33921 -10.33744 -10.32456
 Alpha  occ. eigenvalues --  -10.32415 -10.32303 -10.32204 -10.32138 -10.31969
 Alpha  occ. eigenvalues --  -10.31850 -10.31766 -10.31722 -10.31699 -10.31498
 Alpha  occ. eigenvalues --  -10.31058 -10.30815 -10.30712 -10.30644 -10.30631
 Alpha  occ. eigenvalues --  -10.30509 -10.30474 -10.30249 -10.30220 -10.29629
 Alpha  occ. eigenvalues --  -10.29628 -10.29327 -10.29321 -10.29291 -10.29248
 Alpha  occ. eigenvalues --  -10.29093 -10.29017 -10.28817 -10.28470 -10.28322
 Alpha  occ. eigenvalues --  -10.28284 -10.28264 -10.28262 -10.28139 -10.28096
 Alpha  occ. eigenvalues --  -10.28055 -10.27948 -10.27682 -10.27438 -10.27423
 Alpha  occ. eigenvalues --  -10.26735  -3.20350  -1.93961  -1.93472  -1.93315
 Alpha  occ. eigenvalues --   -1.20107  -1.18872  -1.12725  -1.11218  -1.10654
 Alpha  occ. eigenvalues --   -1.08788  -1.07087  -1.06320  -1.04654  -1.04017
 Alpha  occ. eigenvalues --   -0.95097  -0.93662  -0.92032  -0.91833  -0.91791
 Alpha  occ. eigenvalues --   -0.90922  -0.90227  -0.89794  -0.89173  -0.89062
 Alpha  occ. eigenvalues --   -0.87835  -0.86840  -0.86412  -0.85697  -0.85303
 Alpha  occ. eigenvalues --   -0.84783  -0.84199  -0.83678  -0.83050  -0.82454
 Alpha  occ. eigenvalues --   -0.81975  -0.80396  -0.79823  -0.79587  -0.78612
 Alpha  occ. eigenvalues --   -0.78515  -0.77432  -0.77048  -0.76770  -0.76018
 Alpha  occ. eigenvalues --   -0.75597  -0.74443  -0.73803  -0.72592  -0.71899
 Alpha  occ. eigenvalues --   -0.70315  -0.70129  -0.68823  -0.68299  -0.67769
 Alpha  occ. eigenvalues --   -0.67298  -0.66949  -0.66380  -0.66342  -0.65985
 Alpha  occ. eigenvalues --   -0.65149  -0.64953  -0.64408  -0.64321  -0.62469
 Alpha  occ. eigenvalues --   -0.62321  -0.61743  -0.61449  -0.60537  -0.60278
 Alpha  occ. eigenvalues --   -0.59937  -0.59369  -0.58309  -0.58170  -0.58149
 Alpha  occ. eigenvalues --   -0.57729  -0.57506  -0.56902  -0.56226  -0.56186
 Alpha  occ. eigenvalues --   -0.55908  -0.55441  -0.55291  -0.55242  -0.55125
 Alpha  occ. eigenvalues --   -0.54997  -0.54710  -0.54362  -0.54071  -0.53797
 Alpha  occ. eigenvalues --   -0.53557  -0.53449  -0.53074  -0.52887  -0.52517
 Alpha  occ. eigenvalues --   -0.52466  -0.52391  -0.51698  -0.51572  -0.51440
 Alpha  occ. eigenvalues --   -0.51207  -0.51133  -0.50855  -0.50762  -0.50699
 Alpha  occ. eigenvalues --   -0.50465  -0.50431  -0.50291  -0.50050  -0.49855
 Alpha  occ. eigenvalues --   -0.49533  -0.49342  -0.49050  -0.48660  -0.48637
 Alpha  occ. eigenvalues --   -0.48201  -0.48039  -0.47950  -0.47908  -0.47809
 Alpha  occ. eigenvalues --   -0.47678  -0.47411  -0.47196  -0.47046  -0.46878
 Alpha  occ. eigenvalues --   -0.46217  -0.46082  -0.45926  -0.45703  -0.45541
 Alpha  occ. eigenvalues --   -0.45491  -0.45468  -0.45145  -0.44862  -0.44747
 Alpha  occ. eigenvalues --   -0.44712  -0.44620  -0.44506  -0.44468  -0.44222
 Alpha  occ. eigenvalues --   -0.43718  -0.43623  -0.43395  -0.43084  -0.42888
 Alpha  occ. eigenvalues --   -0.42676  -0.42460  -0.42278  -0.42110  -0.42013
 Alpha  occ. eigenvalues --   -0.41664  -0.41280  -0.40772  -0.40642  -0.40605
 Alpha  occ. eigenvalues --   -0.40447  -0.39795  -0.39650  -0.39497  -0.39249
 Alpha  occ. eigenvalues --   -0.38935  -0.38609  -0.38508  -0.38492  -0.38314
 Alpha  occ. eigenvalues --   -0.37989  -0.37680  -0.36892  -0.36223  -0.36149
 Alpha  occ. eigenvalues --   -0.35919  -0.35700  -0.35436  -0.33678  -0.33137
 Alpha  occ. eigenvalues --   -0.32274  -0.32194  -0.31559  -0.30483  -0.25464
 Alpha  occ. eigenvalues --   -0.23040
 Alpha virt. eigenvalues --   -0.06710   0.00540   0.02765   0.05002   0.06305
 Alpha virt. eigenvalues --    0.07006   0.07293   0.08057   0.08513   0.09009
 Alpha virt. eigenvalues --    0.10417   0.11160   0.12067   0.12211   0.12547

 Mulliken charges:
               1
     1  Mg   0.961299
     2  C    0.000151
     3  C   -0.078313
     4  C   -0.070322
     5  C   -0.091244
     6  N   -0.322351
     7  C   -0.034097
     8  C   -0.098234
     9  C   -0.095572
    10  C    0.016939
    11  C    0.019345
    12  C    0.055616
    13  C   -0.030515
    14  C    0.210564
    15  O   -0.286740
    16  O   -0.363005
    17  N   -0.469421
    18  C    0.200355
    19  C   -0.157123
    20  C   -0.097785
    21  C    0.170241
    22  C    0.083191
    23  C    0.082222
    24  O   -0.230800
    25  C   -0.022853
    26  N   -0.301685
    27  C    0.003644
    28  C   -0.075297
    29  C   -0.027793
    30  C    0.068381
    31  C    0.018542
    32  C    0.009807
    33  C   -0.069271
    34  N   -0.512228
    35  C    0.114543
    36  C   -0.205566
    37  C   -0.007955
    38  C    0.163419
    39  C    0.090001
    40  C    0.022995
    41  O   -0.226791
    42  C   -0.029426
    43  C    0.227268
    44  O   -0.198480
    45  O   -0.349667
    46  C    0.133293
    47  C    0.251227
    48  C   -0.126804
    49  C   -0.206998
    50  C    0.027745
    51  C    0.061893
    52  C   -0.005387
    53  C   -0.040542
    54  C   -0.177400
    55  C    0.035304
    56  C    0.015740
    57  C   -0.016413
    58  C    0.019812
    59  C   -0.198796
    60  C   -0.000273
    61  C    0.006695
    62  C   -0.025267
    63  C    0.009192
    64  C   -0.229470
    65  C    0.004937
    66  C    0.024053
    67  H   -0.009348
    68  H    0.016468
    69  H    0.002285
    70  H    0.045996
    71  H    0.044909
    72  H    0.044785
    73  H    0.046584
    74  H    0.036028
    75  H    0.052762
    76  H    0.031893
    77  H    0.080937
    78  H    0.056534
    79  H    0.039284
    80  H    0.052023
    81  H    0.049265
    82  H    0.063071
    83  H    0.057795
    84  H    0.052114
    85  H    0.039878
    86  H    0.026230
    87  H    0.035880
    88  H    0.039247
    89  H    0.052527
    90  H    0.031408
    91  H    0.024066
    92  H    0.041409
    93  H    0.027510
    94  H    0.028890
    95  H    0.067062
    96  H    0.032014
    97  H    0.055441
    98  H    0.059939
    99  H    0.045475
   100  H    0.051131
   101  H    0.060438
   102  H    0.062199
   103  H    0.047574
   104  H    0.042359
   105  H    0.045605
   106  H    0.028659
   107  H    0.052991
   108  H    0.031741
   109  H    0.011477
   110  H    0.026025
   111  H    0.002340
   112  H   -0.004822
   113  H    0.013182
   114  H    0.009371
   115  H    0.031827
   116  H    0.022293
   117  H    0.016744
   118  H    0.004933
   119  H    0.016229
   120  H    0.036500
   121  H    0.032119
   122  H    0.012252
   123  H    0.012940
   124  H    0.018699
   125  H    0.004073
   126  H    0.018408
   127  H    0.041912
   128  H    0.008167
   129  H    0.016941
   130  H   -0.002313
   131  H    0.009945
   132  H    0.020091
   133  H    0.020288
   134  H    0.023752
   135  H    0.029709
   136  H    0.023147
   137  H    0.017434
   138  H    0.036059
   139  H    0.030303
   140  H    0.018385
 Sum of Mulliken charges =  -0.00000

 Dipole moment (field-independent basis, Debye):
    X=             -4.4337    Y=              2.5711    Z=             -2.5689  Tot=              5.7330
 Quadrupole moment (field-independent basis, Debye-Ang):
   XX=           -400.9612   YY=           -406.3420   ZZ=           -395.2370
   XY=             32.2319   XZ=              7.2960   YZ=             -1.0078

 Normal termination of Gaussian 16 at Wed Apr 27 15:59:54 2022.
