 Gaussian 16, Revision A.03,
 Gaussian 16:  ES64L-G16RevA.03 25-Dec-2016

 --------------------
 #p ZINDO=(nstates=5)
 --------------------

 ------------------------------
 step_1251_chromophore_10 ZINDO
 ------------------------------
 Symbolic Z-matrix:
 Charge =  0 Multiplicity = 1

                         Standard orientation:
 ---------------------------------------------------------------------
 Center     Atomic      Atomic             Coordinates (Angstroms)
 Number     Number       Type             X           Y           Z
 ---------------------------------------------------------------------
      1         12           0        5.718107    0.718668    0.077874
      2          6           0        4.105479   -2.350331    0.155780
      3          6           0        3.066137    2.041446   -1.638959
      4          6           0        7.490506    3.596520   -0.264859
      5          6           0        8.613519   -0.736664    1.570526
      6          7           0        3.762437   -0.121555   -0.618528
      7          6           0        3.299185   -1.345347   -0.412929
      8          6           0        1.872043   -1.544529   -0.879887
      9          6           0        1.611647   -0.174084   -1.643233
     10          6           0        2.865788    0.659106   -1.312618
     11          6           0        1.237083   -0.357184   -3.156887
     12          6           0        0.903522   -1.703836    0.320137
     13          6           0        0.008388   -2.924776    0.202887
     14          6           0       -1.477289   -2.539917    0.256937
     15          8           0       -2.016632   -1.521461    0.742549
     16          8           0       -2.228254   -3.531672   -0.240952
     17          7           0        5.277598    2.628163   -0.692327
     18          6           0        4.121506    2.958538   -1.425424
     19          6           0        4.205855    4.382039   -1.784931
     20          6           0        5.458919    4.826027   -1.283503
     21          6           0        6.160661    3.648306   -0.749675
     22          6           0        3.153472    5.103227   -2.607643
     23          6           0        6.142519    6.244368   -1.482874
     24          8           0        7.262632    6.484747   -1.041793
     25          6           0        5.353372    7.363796   -2.099963
     26          7           0        7.776374    1.352151    0.516792
     27          6           0        8.215332    2.567146    0.371645
     28          6           0        9.663972    2.740104    0.719741
     29          6           0        9.952070    1.392089    1.399951
     30          6           0        8.701553    0.603905    1.205113
     31          6           0       10.477256    3.111445   -0.575448
     32          6           0       10.449478    1.453002    2.809611
     33          6           0        9.484581    1.975202    3.791454
     34          7           0        6.243576   -1.057522    0.855694
     35          6           0        7.409154   -1.493762    1.489475
     36          6           0        7.275465   -2.872556    1.814386
     37          6           0        5.988105   -3.201335    1.278293
     38          6           0        5.424097   -2.135355    0.662564
     39          6           0        8.233513   -3.802832    2.601747
     40          6           0        5.052779   -4.255264    1.217019
     41          8           0        5.252805   -5.388283    1.638128
     42          6           0        3.853888   -3.804642    0.523393
     43          6           0        3.670828   -4.695435   -0.676846
     44          8           0        4.074943   -4.438276   -1.749291
     45          8           0        2.772831   -5.678146   -0.471753
     46          6           0        1.964851   -6.193935   -1.550763
     47          6           0       -3.604509   -3.786354    0.238543
     48          6           0       -4.553916   -2.890301   -0.558827
     49          6           0       -5.826090   -3.225850   -0.937385
     50          6           0       -6.659528   -4.491042   -0.609329
     51          6           0       -6.565135   -2.306326   -1.879748
     52          6           0       -7.793457   -1.615102   -1.377188
     53          6           0       -8.987776   -1.859033   -2.185469
     54          6           0      -10.289165   -1.545554   -1.489140
     55          6           0      -11.475845   -2.211774   -2.177895
     56          6           0      -10.452451   -0.056020   -1.426840
     57          6           0      -11.020366    0.423423   -0.014359
     58          6           0       -9.991766    1.258516    0.782372
     59          6           0      -10.511471    2.608493    1.134069
     60          6           0       -9.481533    3.437592    1.953144
     61          6           0      -11.770501    2.391729    2.068544
     62          6           0      -12.985529    3.223093    1.737445
     63          6           0      -14.225439    2.570388    1.147740
     64          6           0      -15.529232    2.871815    2.016861
     65          6           0      -16.461535    1.718069    1.943401
     66          6           0      -16.177612    4.225135    1.682814
     67          1           0        2.207499    2.296651   -2.263376
     68          1           0        8.139802    4.459172   -0.430648
     69          1           0        9.433625   -1.274773    2.050433
     70          1           0        1.938996   -2.344331   -1.617029
     71          1           0        0.754593    0.269311   -1.136833
     72          1           0        2.114601   -0.201656   -3.783795
     73          1           0        0.421303    0.313454   -3.427504
     74          1           0        0.945544   -1.389617   -3.350167
     75          1           0        0.345801   -0.800613    0.568151
     76          1           0        1.460569   -1.815939    1.250007
     77          1           0        0.205890   -3.658171    0.986073
     78          1           0        0.186843   -3.420957   -0.750925
     79          1           0        2.858313    5.983691   -2.036275
     80          1           0        2.217469    4.591073   -2.833383
     81          1           0        3.635087    5.515388   -3.494348
     82          1           0        5.257798    7.168339   -3.167892
     83          1           0        5.820014    8.321126   -1.869692
     84          1           0        4.358596    7.504737   -1.676646
     85          1           0        9.778712    3.544355    1.446479
     86          1           0       10.717871    0.872654    0.822589
     87          1           0        9.816522    2.977731   -1.431366
     88          1           0       11.293808    2.399416   -0.696024
     89          1           0       10.731623    4.157874   -0.743925
     90          1           0       11.305063    2.107924    2.972844
     91          1           0       10.732088    0.433385    3.069168
     92          1           0        9.789406    2.969033    4.118182
     93          1           0        9.270516    1.346852    4.656419
     94          1           0        8.445187    1.944027    3.463279
     95          1           0        7.555941   -4.500038    3.093987
     96          1           0        8.829570   -3.212655    3.297643
     97          1           0        8.892225   -4.296712    1.888131
     98          1           0        2.974356   -4.033111    1.124502
     99          1           0        2.085820   -5.753763   -2.540871
    100          1           0        0.935827   -5.962602   -1.275329
    101          1           0        2.152144   -7.244170   -1.770513
    102          1           0       -3.640071   -3.656626    1.319474
    103          1           0       -3.855408   -4.821883    0.004719
    104          1           0       -4.047905   -2.047259   -1.028617
    105          1           0       -7.681475   -4.187429   -0.384881
    106          1           0       -6.261646   -5.040203    0.243362
    107          1           0       -6.604639   -5.207165   -1.429279
    108          1           0       -6.713041   -2.865337   -2.804598
    109          1           0       -5.882106   -1.487095   -2.100333
    110          1           0       -7.693269   -0.555268   -1.142678
    111          1           0       -8.101290   -2.103443   -0.452047
    112          1           0       -8.906163   -2.923562   -2.401829
    113          1           0       -8.935301   -1.371080   -3.158301
    114          1           0      -10.182957   -1.997870   -0.503050
    115          1           0      -12.378558   -1.615947   -2.041528
    116          1           0      -11.584784   -3.258059   -1.892958
    117          1           0      -11.254559   -2.321615   -3.239508
    118          1           0      -11.202581    0.261614   -2.151730
    119          1           0       -9.552974    0.448359   -1.779076
    120          1           0      -11.372927   -0.464936    0.509361
    121          1           0      -11.818464    1.095436   -0.327958
    122          1           0       -9.058852    1.471543    0.259358
    123          1           0       -9.692363    0.844944    1.745042
    124          1           0      -10.764096    3.199291    0.253638
    125          1           0       -8.475076    3.263054    1.573551
    126          1           0       -9.250575    3.029557    2.937599
    127          1           0       -9.617182    4.518435    2.001548
    128          1           0      -11.400270    2.744204    3.030880
    129          1           0      -12.102652    1.361087    2.190823
    130          1           0      -12.606964    3.962292    1.030828
    131          1           0      -13.212976    3.814523    2.623431
    132          1           0      -14.079345    1.494991    1.043781
    133          1           0      -14.301897    3.094300    0.194513
    134          1           0      -15.179406    2.900556    3.047670
    135          1           0      -16.629307    1.450982    2.986588
    136          1           0      -16.085768    0.881219    1.353754
    137          1           0      -17.445103    1.881115    1.501928
    138          1           0      -16.226349    4.853294    2.571439
    139          1           0      -17.124053    4.013833    1.184264
    140          1           0      -15.548721    4.772839    0.980640
 ---------------------------------------------------------------------

 SCF Done:  E(RZINDO/S) =  -474.832412373     A.U. after   19 cycles

 Excitation energies and oscillator strengths:

 Excited State   1:      Singlet-A      1.3465 eV  920.80 nm  f=0.5383  <S**2>=0.000
     175 ->178         0.17733
     176 ->177         0.66804
 This state for optimization and/or second-order correction.
 Total Energy, E(CIS/TDA) =  -474.782930002
 Copying the excited state density for this state as the 1-particle RhoCI density.

 Excited State   2:      Singlet-A      1.9196 eV  645.90 nm  f=0.0822  <S**2>=0.000
     175 ->177         0.56854
     176 ->178        -0.38271

 Excited State   3:      Singlet-A      2.9122 eV  425.75 nm  f=0.0035  <S**2>=0.000
     171 ->177         0.30687
     171 ->178        -0.16016
     171 ->179         0.19548
     171 ->181         0.40191
     171 ->186         0.20334
     171 ->188         0.10949
     171 ->189        -0.14221
     174 ->177        -0.15419

 Excited State   4:      Singlet-A      2.9924 eV  414.33 nm  f=0.0008  <S**2>=0.000
     167 ->177        -0.18745
     167 ->179         0.31309
     167 ->181        -0.13474
     167 ->186         0.12840
     168 ->177        -0.24471
     168 ->179         0.36148
     168 ->181        -0.15871
     168 ->182         0.11391
     168 ->186         0.14665

 Excited State   5:      Singlet-A      3.0491 eV  406.63 nm  f=1.1147  <S**2>=0.000
     170 ->177         0.13321
     175 ->177         0.35567
     176 ->178         0.55694
     176 ->181        -0.11365

 The electronic state is 1-A.
 Alpha  occ. eigenvalues --   -1.85563  -1.83997  -1.79626  -1.74995  -1.73431
 Alpha  occ. eigenvalues --   -1.71792  -1.69488  -1.64373  -1.60514  -1.58684
 Alpha  occ. eigenvalues --   -1.56589  -1.52512  -1.50155  -1.49336  -1.48981
 Alpha  occ. eigenvalues --   -1.43939  -1.42193  -1.40011  -1.38809  -1.37675
 Alpha  occ. eigenvalues --   -1.36212  -1.34383  -1.32184  -1.30657  -1.28935
 Alpha  occ. eigenvalues --   -1.28466  -1.25103  -1.22273  -1.20953  -1.18052
 Alpha  occ. eigenvalues --   -1.17548  -1.16782  -1.16565  -1.14758  -1.13167
 Alpha  occ. eigenvalues --   -1.12691  -1.11405  -1.10965  -1.05714  -1.04519
 Alpha  occ. eigenvalues --   -1.03322  -1.01157  -0.99168  -0.97735  -0.97146
 Alpha  occ. eigenvalues --   -0.95186  -0.94425  -0.93581  -0.92972  -0.92678
 Alpha  occ. eigenvalues --   -0.91670  -0.90586  -0.89780  -0.88537  -0.88233
 Alpha  occ. eigenvalues --   -0.85107  -0.84202  -0.81758  -0.81525  -0.80803
 Alpha  occ. eigenvalues --   -0.79966  -0.79634  -0.77984  -0.77055  -0.76644
 Alpha  occ. eigenvalues --   -0.76358  -0.76109  -0.75438  -0.74913  -0.73816
 Alpha  occ. eigenvalues --   -0.73064  -0.72478  -0.72160  -0.71734  -0.70908
 Alpha  occ. eigenvalues --   -0.70627  -0.70036  -0.69246  -0.69063  -0.68364
 Alpha  occ. eigenvalues --   -0.67879  -0.67514  -0.67225  -0.66993  -0.65112
 Alpha  occ. eigenvalues --   -0.64945  -0.64649  -0.64230  -0.64032  -0.63713
 Alpha  occ. eigenvalues --   -0.62781  -0.62295  -0.62084  -0.61848  -0.61381
 Alpha  occ. eigenvalues --   -0.61189  -0.60665  -0.60370  -0.60310  -0.59941
 Alpha  occ. eigenvalues --   -0.59861  -0.59586  -0.59425  -0.59195  -0.58276
 Alpha  occ. eigenvalues --   -0.58147  -0.57832  -0.56857  -0.56414  -0.55923
 Alpha  occ. eigenvalues --   -0.55560  -0.55119  -0.54813  -0.54382  -0.54156
 Alpha  occ. eigenvalues --   -0.53721  -0.53419  -0.53201  -0.52880  -0.52703
 Alpha  occ. eigenvalues --   -0.52227  -0.52175  -0.51517  -0.51226  -0.51037
 Alpha  occ. eigenvalues --   -0.50982  -0.50805  -0.50289  -0.50083  -0.50021
 Alpha  occ. eigenvalues --   -0.49633  -0.49430  -0.49034  -0.48881  -0.48426
 Alpha  occ. eigenvalues --   -0.48252  -0.48223  -0.48036  -0.47532  -0.47031
 Alpha  occ. eigenvalues --   -0.46984  -0.46893  -0.46592  -0.46384  -0.46308
 Alpha  occ. eigenvalues --   -0.46098  -0.45666  -0.45359  -0.45224  -0.45017
 Alpha  occ. eigenvalues --   -0.44628  -0.44129  -0.43944  -0.43645  -0.43442
 Alpha  occ. eigenvalues --   -0.43356  -0.42716  -0.42488  -0.42241  -0.41653
 Alpha  occ. eigenvalues --   -0.41426  -0.41278  -0.41114  -0.39116  -0.38581
 Alpha  occ. eigenvalues --   -0.37528  -0.36708  -0.36116  -0.34738  -0.34045
 Alpha  occ. eigenvalues --   -0.32844  -0.32220  -0.31870  -0.30698  -0.26197
 Alpha  occ. eigenvalues --   -0.21905
 Alpha virt. eigenvalues --   -0.08210  -0.01799  -0.00339   0.01411   0.01709
 Alpha virt. eigenvalues --    0.03276   0.03528   0.03801   0.04394   0.04876
 Alpha virt. eigenvalues --    0.05829   0.06584   0.06789   0.07818   0.08078

 Mulliken charges:
               1
     1  Mg   0.419028
     2  C   -0.048364
     3  C   -0.082110
     4  C   -0.089444
     5  C   -0.063474
     6  N   -0.268773
     7  C    0.118800
     8  C   -0.003246
     9  C    0.000668
    10  C    0.152472
    11  C   -0.049362
    12  C   -0.021655
    13  C    0.011947
    14  C    0.470715
    15  O   -0.535574
    16  O   -0.283236
    17  N   -0.337934
    18  C    0.131174
    19  C    0.031392
    20  C   -0.040145
    21  C    0.162782
    22  C   -0.039395
    23  C    0.326585
    24  O   -0.506770
    25  C   -0.027724
    26  N   -0.260650
    27  C    0.192365
    28  C    0.006542
    29  C    0.013635
    30  C    0.093299
    31  C   -0.055652
    32  C   -0.015564
    33  C   -0.058620
    34  N   -0.334216
    35  C    0.066569
    36  C   -0.009239
    37  C   -0.057128
    38  C    0.099012
    39  C   -0.040532
    40  C    0.334838
    41  O   -0.562499
    42  C    0.068254
    43  C    0.498490
    44  O   -0.516428
    45  O   -0.276914
    46  C    0.079355
    47  C    0.110226
    48  C   -0.086841
    49  C   -0.010046
    50  C   -0.043067
    51  C   -0.017991
    52  C   -0.025334
    53  C   -0.025183
    54  C   -0.004867
    55  C   -0.058925
    56  C   -0.039126
    57  C   -0.040272
    58  C   -0.026541
    59  C   -0.004763
    60  C   -0.067233
    61  C   -0.041362
    62  C   -0.040064
    63  C   -0.037518
    64  C   -0.009810
    65  C   -0.054945
    66  C   -0.056255
    67  H    0.019660
    68  H    0.041275
    69  H    0.035147
    70  H    0.045677
    71  H    0.033731
    72  H    0.025280
    73  H    0.024702
    74  H    0.022778
    75  H    0.042654
    76  H    0.017862
    77  H    0.052180
    78  H    0.040678
    79  H    0.026120
    80  H    0.035291
    81  H    0.033492
    82  H    0.042446
    83  H    0.037310
    84  H    0.032502
    85  H    0.032296
    86  H    0.018594
    87  H    0.017926
    88  H    0.025725
    89  H    0.034595
    90  H    0.015493
    91  H    0.016581
    92  H    0.019553
    93  H    0.015144
    94  H    0.017823
    95  H    0.040108
    96  H    0.022639
    97  H    0.035403
    98  H    0.054181
    99  H    0.039721
   100  H    0.028292
   101  H    0.044685
   102  H    0.053786
   103  H    0.036519
   104  H    0.048238
   105  H    0.032107
   106  H    0.015748
   107  H    0.032130
   108  H    0.027301
   109  H    0.010139
   110  H    0.024486
   111  H    0.011843
   112  H    0.002591
   113  H    0.012601
   114  H    0.018999
   115  H    0.022684
   116  H    0.014228
   117  H    0.013896
   118  H    0.009260
   119  H    0.023478
   120  H    0.031636
   121  H    0.022542
   122  H    0.014063
   123  H    0.019624
   124  H    0.024949
   125  H    0.002592
   126  H    0.018974
   127  H    0.024231
   128  H    0.013257
   129  H    0.021522
   130  H    0.007956
   131  H    0.013903
   132  H    0.025889
   133  H    0.021152
   134  H    0.017733
   135  H    0.014434
   136  H    0.016975
   137  H    0.014327
   138  H    0.023373
   139  H    0.025470
   140  H    0.014467
 Sum of Mulliken charges =  -0.00000

 Dipole moment (field-independent basis, Debye):
    X=             -6.3067    Y=              5.1045    Z=             -4.5488  Tot=              9.3017
 N-N= 4.234514980249D+03 E-N= 0.000000000000D+00  KE=-9.144219179968D+03
 Leave Link  601 at Wed Apr 27 16:12:05 2022, MaxMem=  6710886400 cpu:               0.8 elap:               0.1
 (Enter /sw/apps/gaussian-16.0/g16/l9999.exe)
 1\1\GINC-BP1-COMPUTE142\SP\RZINDO CIS\STO-3G\C55H74Mg1N4O6\OF15641\27-
 Apr-2022\0\\#p ZINDO=(nstates=5)\\step_1251_chromophore_10 ZINDO\\0,1\
 Mg,0,40.915,8.165,29.691\C,0,42.681,9.646,32.282\C,0,38.741,6.823,31.9
 72\C,0,39.436,6.466,27.148\C,0,43.362,9.286,27.349\N,0,40.752,8.292,31
 .921\C,0,41.518,8.997,32.74\C,0,41.042,8.991,34.178\C,0,39.879,7.909,3
 4.105\C,0,39.754,7.625,32.595\C,0,40.098,6.683,35.061\C,0,40.485,10.37
 7,34.593\C,0,41.084,10.894,35.889\C,0,39.997,11.185,36.934\O,0,38.781,

 Normal termination of Gaussian 16 at Wed Apr 27 16:12:05 2022.
