 Gaussian 16, Revision A.03,
 Gaussian 16:  ES64L-G16RevA.03 25-Dec-2016

 ------------------------------
 #p blyp/Def2SVP td=(nstates=5)
 ------------------------------

 -------------------------------------------------
 step_651_chromophore_3 TDDFT with blyp functional
 -------------------------------------------------
 Symbolic Z-matrix:
 Charge =  0 Multiplicity = 1

                         Standard orientation:
 ---------------------------------------------------------------------
 Center     Atomic      Atomic             Coordinates (Angstroms)
 Number     Number       Type             X           Y           Z
 ---------------------------------------------------------------------
      1         12           0       -5.529512    0.834023   -0.029339
      2          6           0       -4.015949   -2.281905    0.018257
      3          6           0       -2.456933    2.275411   -0.041595
      4          6           0       -7.117099    3.600787    0.326161
      5          6           0       -8.702660   -0.883616    0.321958
      6          7           0       -3.474173    0.034609    0.053802
      7          6           0       -3.076787   -1.277804   -0.198709
      8          6           0       -1.635021   -1.382965   -0.476112
      9          6           0       -1.135709    0.072110   -0.123325
     10          6           0       -2.432639    0.871049    0.010809
     11          6           0       -0.179116    0.193107    1.122878
     12          6           0       -1.275613   -1.987304   -1.839793
     13          6           0       -0.211824   -3.154916   -1.974121
     14          6           0        0.817603   -3.159723   -0.805414
     15          8           0        0.712697   -3.552710    0.330121
     16          8           0        2.007199   -2.752361   -1.340511
     17          7           0       -4.910317    2.729870    0.112752
     18          6           0       -3.591411    3.128596   -0.023691
     19          6           0       -3.564244    4.523134   -0.012092
     20          6           0       -4.929385    4.975322    0.109364
     21          6           0       -5.730939    3.796902    0.212757
     22          6           0       -2.254596    5.247346   -0.207797
     23          6           0       -5.408790    6.371869    0.217057
     24          8           0       -6.601218    6.588624    0.434575
     25          6           0       -4.431934    7.574991    0.042190
     26          7           0       -7.603210    1.241183    0.034221
     27          6           0       -8.030365    2.526360    0.305252
     28          6           0       -9.576066    2.656949    0.348403
     29          6           0       -9.962048    1.243175   -0.131946
     30          6           0       -8.692940    0.483500    0.206224
     31          6           0       -9.996136    2.979208    1.815448
     32          6           0      -10.209654    1.157181   -1.654813
     33          6           0      -11.670310    1.183741   -2.125136
     34          7           0       -6.252568   -1.172453    0.334989
     35          6           0       -7.546293   -1.657892    0.466889
     36          6           0       -7.413326   -3.117214    0.544896
     37          6           0       -6.045275   -3.348943    0.423987
     38          6           0       -5.404297   -2.168666    0.325963
     39          6           0       -8.563309   -4.122545    0.810922
     40          6           0       -5.080928   -4.421679    0.441052
     41          8           0       -5.236180   -5.613099    0.544042
     42          6           0       -3.685669   -3.731253    0.121985
     43          6           0       -2.767908   -4.111441    1.241764
     44          8           0       -2.666559   -3.547697    2.359958
     45          8           0       -2.069843   -5.270757    0.882052
     46          6           0       -1.307820   -5.907764    1.893090
     47          6           0        3.252907   -2.940397   -0.642696
     48          6           0        4.310747   -2.435064   -1.534472
     49          6           0        5.606395   -2.678237   -1.427741
     50          6           0        6.356280   -3.299900   -0.198157
     51          6           0        6.540191   -2.488448   -2.659514
     52          6           0        6.982292   -1.023527   -2.896991
     53          6           0        8.481031   -0.867677   -3.148748
     54          6           0        9.127449    0.127997   -2.109914
     55          6           0        9.207421   -0.557028   -0.707560
     56          6           0       10.594639    0.502377   -2.763619
     57          6           0       11.088925    1.924336   -2.379813
     58          6           0       12.632177    2.030198   -2.093695
     59          6           0       12.961206    2.817271   -0.741142
     60          6           0       13.920690    4.036891   -1.030035
     61          6           0       13.528744    1.827953    0.332568
     62          6           0       12.689664    1.890707    1.651540
     63          6           0       12.765849    0.716828    2.645786
     64          6           0       12.388605    1.078346    4.128280
     65          6           0       13.357430    0.360848    5.130351
     66          6           0       10.975632    0.566647    4.490463
     67          1           0       -1.464431    2.716230    0.067087
     68          1           0       -7.544678    4.595890    0.466573
     69          1           0       -9.671847   -1.374396    0.438774
     70          1           0       -1.213540   -1.973441    0.338318
     71          1           0       -0.599197    0.460128   -0.988238
     72          1           0        0.599467    0.903649    0.845562
     73          1           0        0.156897   -0.770596    1.504456
     74          1           0       -0.691361    0.681574    1.951433
     75          1           0       -0.912113   -1.250259   -2.555691
     76          1           0       -2.194177   -2.413820   -2.241096
     77          1           0        0.270034   -2.999197   -2.938491
     78          1           0       -0.693124   -4.131823   -2.028875
     79          1           0       -2.258854    5.752714   -1.172702
     80          1           0       -1.312067    4.700055   -0.228061
     81          1           0       -2.192776    5.917022    0.649951
     82          1           0       -4.322984    7.528313   -1.041214
     83          1           0       -3.464555    7.437161    0.524454
     84          1           0       -5.055112    8.425089    0.319848
     85          1           0       -9.898294    3.460809   -0.313255
     86          1           0      -10.858700    1.000057    0.438516
     87          1           0       -9.799710    4.041968    1.955999
     88          1           0       -9.308150    2.409238    2.440523
     89          1           0      -11.035892    2.731804    2.027127
     90          1           0       -9.891519    0.182205   -2.024423
     91          1           0       -9.512739    1.810498   -2.180925
     92          1           0      -11.871840    2.251597   -2.210871
     93          1           0      -12.161837    0.523871   -1.409683
     94          1           0      -11.624604    0.782317   -3.137519
     95          1           0       -9.394155   -3.591585    0.346144
     96          1           0       -8.683132   -4.244018    1.887335
     97          1           0       -8.341902   -5.071766    0.325280
     98          1           0       -3.323632   -4.045339   -0.857971
     99          1           0       -1.249680   -5.420945    2.866068
    100          1           0       -0.353695   -6.168825    1.434986
    101          1           0       -1.758419   -6.898121    1.958613
    102          1           0        3.520431   -3.939503   -0.298919
    103          1           0        3.155867   -2.430362    0.316450
    104          1           0        4.179709   -2.240090   -2.599111
    105          1           0        6.421428   -4.345714   -0.499974
    106          1           0        5.682623   -3.305670    0.657815
    107          1           0        7.227762   -2.713319    0.092562
    108          1           0        5.998032   -2.864022   -3.527029
    109          1           0        7.407839   -3.142983   -2.577893
    110          1           0        6.583563   -0.393912   -2.102528
    111          1           0        6.406317   -0.861965   -3.808189
    112          1           0        8.443866   -0.339094   -4.101036
    113          1           0        9.082646   -1.776354   -3.179725
    114          1           0        8.488567    1.009130   -2.046357
    115          1           0        9.214455   -1.619376   -0.952752
    116          1           0        8.253131   -0.394092   -0.205747
    117          1           0       10.102831   -0.347355   -0.122854
    118          1           0       10.611345    0.328112   -3.839625
    119          1           0       11.307844   -0.250727   -2.428611
    120          1           0       10.549944    2.325193   -1.521133
    121          1           0       11.003190    2.460346   -3.324627
    122          1           0       13.120522    2.604894   -2.880990
    123          1           0       13.069820    1.040282   -1.969162
    124          1           0       12.065453    3.319180   -0.374374
    125          1           0       14.571496    3.840590   -1.882278
    126          1           0       14.502713    4.251316   -0.133765
    127          1           0       13.257974    4.896890   -1.120693
    128          1           0       14.527650    2.193551    0.573533
    129          1           0       13.457640    0.780526    0.038419
    130          1           0       11.646517    2.021564    1.362716
    131          1           0       12.883857    2.826121    2.174107
    132          1           0       13.747979    0.251925    2.558830
    133          1           0       12.075096   -0.024737    2.245070
    134          1           0       12.438565    2.154653    4.293931
    135          1           0       14.115595    1.017798    5.556561
    136          1           0       13.805647   -0.514120    4.657625
    137          1           0       12.863385   -0.142450    5.962187
    138          1           0       10.562783    1.246306    5.234963
    139          1           0       10.968613   -0.383692    5.026160
    140          1           0       10.279549    0.435003    3.662345
 ---------------------------------------------------------------------

 SCF Done:  E(RB-LYP) =  -3007.35536049     A.U. after   21 cycles

 Excitation energies and oscillator strengths:

 Excited State   1:      Singlet-A      1.8119 eV  684.28 nm  f=0.2457  <S**2>=0.000
     244 -> 247       -0.25534
     245 -> 248       -0.16639
     246 -> 247        0.64721
     246 <- 247       -0.14267
 This state for optimization and/or second-order correction.
 Total Energy, E(TD-HF/TD-DFT) =  -3007.28877420
 Copying the excited state density for this state as the 1-particle RhoCI density.

 Excited State   2:      Singlet-A      1.8595 eV  666.77 nm  f=0.0557  <S**2>=0.000
     244 -> 247        0.65812
     246 -> 247        0.24900

 Excited State   3:      Singlet-A      1.9126 eV  648.26 nm  f=0.0192  <S**2>=0.000
     243 -> 247        0.60922
     245 -> 247       -0.34403

 Excited State   4:      Singlet-A      2.0276 eV  611.48 nm  f=0.0858  <S**2>=0.000
     243 -> 247        0.35586
     245 -> 247        0.56306
     246 -> 248        0.20232

 Excited State   5:      Singlet-A      2.4044 eV  515.66 nm  f=0.0001  <S**2>=0.000
     240 -> 247        0.70586

 The electronic state is 1-A.
 Alpha  occ. eigenvalues --  -46.26333 -18.82257 -18.80871 -18.78083 -18.75897
 Alpha  occ. eigenvalues --  -18.75681 -18.75069 -14.02808 -14.02735 -14.00290
 Alpha  occ. eigenvalues --  -13.99839 -10.04951 -10.03335  -9.99309  -9.99232
 Alpha  occ. eigenvalues --   -9.98538  -9.96394  -9.96074  -9.95966  -9.95617
 Alpha  occ. eigenvalues --   -9.95579  -9.95257  -9.94988  -9.94866  -9.94392
 Alpha  occ. eigenvalues --   -9.94160  -9.93715  -9.93601  -9.93543  -9.93365
 Alpha  occ. eigenvalues --   -9.93355  -9.93348  -9.93237  -9.93173  -9.93011
 Alpha  occ. eigenvalues --   -9.92993  -9.92957  -9.92887  -9.92840  -9.92767
 Alpha  occ. eigenvalues --   -9.92681  -9.92228  -9.92221  -9.92159  -9.92152
 Alpha  occ. eigenvalues --   -9.92138  -9.92092  -9.92040  -9.91955  -9.91940
 Alpha  occ. eigenvalues --   -9.91937  -9.91763  -9.91655  -9.91585  -9.91567
 Alpha  occ. eigenvalues --   -9.91451  -9.91350  -9.91322  -9.91220  -9.91172
 Alpha  occ. eigenvalues --   -9.91155  -9.91016  -9.90891  -9.90821  -9.90793
 Alpha  occ. eigenvalues --   -9.89680  -2.91054  -1.71486  -1.70938  -1.70762
 Alpha  occ. eigenvalues --   -0.99052  -0.95817  -0.91983  -0.91380  -0.90826
 Alpha  occ. eigenvalues --   -0.87839  -0.87060  -0.86296  -0.85932  -0.85221
 Alpha  occ. eigenvalues --   -0.75664  -0.73922  -0.72816  -0.72400  -0.72255
 Alpha  occ. eigenvalues --   -0.71762  -0.71686  -0.70708  -0.70603  -0.70068
 Alpha  occ. eigenvalues --   -0.69223  -0.69015  -0.68023  -0.67817  -0.67134
 Alpha  occ. eigenvalues --   -0.66416  -0.65836  -0.65137  -0.64758  -0.64309
 Alpha  occ. eigenvalues --   -0.64082  -0.62506  -0.62388  -0.61811  -0.60870
 Alpha  occ. eigenvalues --   -0.60119  -0.59728  -0.59618  -0.59547  -0.59283
 Alpha  occ. eigenvalues --   -0.58413  -0.57707  -0.56389  -0.55946  -0.53854
 Alpha  occ. eigenvalues --   -0.53606  -0.53428  -0.52735  -0.52002  -0.51394
 Alpha  occ. eigenvalues --   -0.50911  -0.50847  -0.50583  -0.50358  -0.50080
 Alpha  occ. eigenvalues --   -0.50013  -0.49727  -0.48730  -0.47621  -0.46756
 Alpha  occ. eigenvalues --   -0.46452  -0.45912  -0.45346  -0.44991  -0.44763
 Alpha  occ. eigenvalues --   -0.44243  -0.43354  -0.42923  -0.42806  -0.42282
 Alpha  occ. eigenvalues --   -0.41770  -0.41498  -0.41340  -0.41224  -0.41001
 Alpha  occ. eigenvalues --   -0.40729  -0.40489  -0.40316  -0.40107  -0.39904
 Alpha  occ. eigenvalues --   -0.39802  -0.39732  -0.39514  -0.39309  -0.39116
 Alpha  occ. eigenvalues --   -0.39054  -0.38975  -0.38590  -0.38456  -0.38071
 Alpha  occ. eigenvalues --   -0.37989  -0.37803  -0.37682  -0.37384  -0.37343
 Alpha  occ. eigenvalues --   -0.37122  -0.36877  -0.36767  -0.36428  -0.36289
 Alpha  occ. eigenvalues --   -0.36227  -0.36086  -0.35876  -0.35850  -0.35555
 Alpha  occ. eigenvalues --   -0.35497  -0.35314  -0.35127  -0.34977  -0.34893
 Alpha  occ. eigenvalues --   -0.34773  -0.34500  -0.34357  -0.34011  -0.33787
 Alpha  occ. eigenvalues --   -0.33690  -0.33661  -0.33193  -0.33034  -0.32878
 Alpha  occ. eigenvalues --   -0.32609  -0.32565  -0.32275  -0.32030  -0.31971
 Alpha  occ. eigenvalues --   -0.31946  -0.31639  -0.31412  -0.31168  -0.31075
 Alpha  occ. eigenvalues --   -0.31056  -0.30823  -0.30746  -0.30413  -0.30262
 Alpha  occ. eigenvalues --   -0.30211  -0.30114  -0.29862  -0.29825  -0.29587
 Alpha  occ. eigenvalues --   -0.29491  -0.29316  -0.29251  -0.29052  -0.29017
 Alpha  occ. eigenvalues --   -0.28840  -0.28778  -0.28360  -0.28179  -0.27957
 Alpha  occ. eigenvalues --   -0.27567  -0.27251  -0.27103  -0.27065  -0.26309
 Alpha  occ. eigenvalues --   -0.26202  -0.25996  -0.25894  -0.25781  -0.25350
 Alpha  occ. eigenvalues --   -0.25274  -0.24427  -0.23900  -0.23874  -0.23048
 Alpha  occ. eigenvalues --   -0.22763  -0.22565  -0.21742  -0.21059  -0.20402
 Alpha  occ. eigenvalues --   -0.20386  -0.20076  -0.18600  -0.18294  -0.16987
 Alpha  occ. eigenvalues --   -0.15820
 Alpha virt. eigenvalues --   -0.11566  -0.06423  -0.05545  -0.04347  -0.03764
 Alpha virt. eigenvalues --   -0.02543  -0.01874  -0.01730  -0.00550   0.00647
 Alpha virt. eigenvalues --    0.01308   0.01463   0.01995   0.02730   0.02905

 Mulliken charges:
               1
     1  Mg   0.686804
     2  C   -0.025394
     3  C   -0.075997
     4  C   -0.034398
     5  C   -0.089517
     6  N   -0.215712
     7  C   -0.106513
     8  C    0.079758
     9  C   -0.047322
    10  C    0.028511
    11  C    0.123720
    12  C    0.109400
    13  C    0.124757
    14  C    0.078963
    15  O   -0.171690
    16  O   -0.262121
    17  N   -0.337098
    18  C    0.174098
    19  C   -0.140373
    20  C    0.092421
    21  C    0.047796
    22  C    0.160185
    23  C   -0.131939
    24  O   -0.174081
    25  C    0.142262
    26  N   -0.211931
    27  C    0.043337
    28  C   -0.005919
    29  C    0.056758
    30  C    0.035894
    31  C    0.134893
    32  C    0.059630
    33  C    0.119153
    34  N   -0.213332
    35  C    0.101601
    36  C   -0.216446
    37  C    0.107748
    38  C    0.091949
    39  C    0.169897
    40  C   -0.073873
    41  O   -0.105657
    42  C    0.060066
    43  C    0.161342
    44  O   -0.217370
    45  O   -0.272264
    46  C    0.228677
    47  C    0.318328
    48  C   -0.023299
    49  C   -0.246299
    50  C    0.138654
    51  C    0.097184
    52  C    0.101823
    53  C    0.088578
    54  C   -0.110735
    55  C    0.102463
    56  C    0.071274
    57  C    0.104683
    58  C    0.099219
    59  C   -0.125431
    60  C    0.098262
    61  C    0.151908
    62  C   -0.015274
    63  C    0.131847
    64  C   -0.068916
    65  C    0.092407
    66  C    0.091426
    67  H   -0.067355
    68  H   -0.050675
    69  H   -0.056820
    70  H    0.010890
    71  H   -0.035191
    72  H   -0.008404
    73  H    0.020656
    74  H   -0.008691
    75  H   -0.014614
    76  H   -0.018497
    77  H   -0.009536
    78  H    0.013226
    79  H    0.008820
    80  H   -0.016364
    81  H    0.012128
    82  H    0.002896
    83  H    0.001890
    84  H    0.000150
    85  H   -0.023441
    86  H   -0.055661
    87  H    0.006020
    88  H   -0.003843
    89  H   -0.001801
    90  H   -0.037380
    91  H   -0.028644
    92  H   -0.003533
    93  H    0.005372
    94  H   -0.008621
    95  H   -0.009354
    96  H    0.019302
    97  H    0.009949
    98  H   -0.006234
    99  H    0.030184
   100  H   -0.003332
   101  H   -0.006424
   102  H   -0.000785
   103  H   -0.009178
   104  H   -0.042234
   105  H    0.010842
   106  H   -0.027109
   107  H    0.011719
   108  H   -0.027191
   109  H   -0.040006
   110  H   -0.015554
   111  H   -0.030686
   112  H   -0.030059
   113  H   -0.013500
   114  H   -0.029105
   115  H   -0.018500
   116  H    0.000289
   117  H    0.005652
   118  H   -0.036280
   119  H   -0.045940
   120  H   -0.011961
   121  H   -0.025868
   122  H   -0.037610
   123  H   -0.029654
   124  H   -0.030068
   125  H   -0.000759
   126  H   -0.025310
   127  H   -0.017388
   128  H   -0.029450
   129  H   -0.024971
   130  H   -0.035642
   131  H   -0.039377
   132  H   -0.033473
   133  H   -0.036229
   134  H   -0.025375
   135  H   -0.009375
   136  H   -0.022069
   137  H   -0.026941
   138  H   -0.020462
   139  H   -0.020457
   140  H   -0.015781
 Sum of Mulliken charges =  -0.00000

 Dipole moment (field-independent basis, Debye):
    X=              4.0771    Y=              1.3401    Z=             -4.4703  Tot=              6.1969
 Quadrupole moment (field-independent basis, Debye-Ang):
   XX=           -381.9363   YY=           -432.3088   ZZ=           -403.0811
   XY=             -4.2257   XZ=             11.7961   YZ=              5.3434

 Normal termination of Gaussian 16 at Sat Apr 30 09:01:28 2022.
