 Gaussian 16, Revision A.03,
 Gaussian 16:  ES64L-G16RevA.03 25-Dec-2016

 -----------------------------------
 #p cam-b3lyp/Def2SVP td=(nstates=5)
 -----------------------------------

 ------------------------------------------------------
 step_651_chromophore_3 TDDFT with cam-b3lyp functional
 ------------------------------------------------------
 Symbolic Z-matrix:
 Charge =  0 Multiplicity = 1

                         Standard orientation:
 ---------------------------------------------------------------------
 Center     Atomic      Atomic             Coordinates (Angstroms)
 Number     Number       Type             X           Y           Z
 ---------------------------------------------------------------------
      1         12           0       -5.529512    0.834023   -0.029339
      2          6           0       -4.015949   -2.281905    0.018257
      3          6           0       -2.456933    2.275411   -0.041595
      4          6           0       -7.117099    3.600787    0.326161
      5          6           0       -8.702660   -0.883616    0.321958
      6          7           0       -3.474173    0.034609    0.053802
      7          6           0       -3.076787   -1.277804   -0.198709
      8          6           0       -1.635021   -1.382965   -0.476112
      9          6           0       -1.135709    0.072110   -0.123325
     10          6           0       -2.432639    0.871049    0.010809
     11          6           0       -0.179116    0.193107    1.122878
     12          6           0       -1.275613   -1.987304   -1.839793
     13          6           0       -0.211824   -3.154916   -1.974121
     14          6           0        0.817603   -3.159723   -0.805414
     15          8           0        0.712697   -3.552710    0.330121
     16          8           0        2.007199   -2.752361   -1.340511
     17          7           0       -4.910317    2.729870    0.112752
     18          6           0       -3.591411    3.128596   -0.023691
     19          6           0       -3.564244    4.523134   -0.012092
     20          6           0       -4.929385    4.975322    0.109364
     21          6           0       -5.730939    3.796902    0.212757
     22          6           0       -2.254596    5.247346   -0.207797
     23          6           0       -5.408790    6.371869    0.217057
     24          8           0       -6.601218    6.588624    0.434575
     25          6           0       -4.431934    7.574991    0.042190
     26          7           0       -7.603210    1.241183    0.034221
     27          6           0       -8.030365    2.526360    0.305252
     28          6           0       -9.576066    2.656949    0.348403
     29          6           0       -9.962048    1.243175   -0.131946
     30          6           0       -8.692940    0.483500    0.206224
     31          6           0       -9.996136    2.979208    1.815448
     32          6           0      -10.209654    1.157181   -1.654813
     33          6           0      -11.670310    1.183741   -2.125136
     34          7           0       -6.252568   -1.172453    0.334989
     35          6           0       -7.546293   -1.657892    0.466889
     36          6           0       -7.413326   -3.117214    0.544896
     37          6           0       -6.045275   -3.348943    0.423987
     38          6           0       -5.404297   -2.168666    0.325963
     39          6           0       -8.563309   -4.122545    0.810922
     40          6           0       -5.080928   -4.421679    0.441052
     41          8           0       -5.236180   -5.613099    0.544042
     42          6           0       -3.685669   -3.731253    0.121985
     43          6           0       -2.767908   -4.111441    1.241764
     44          8           0       -2.666559   -3.547697    2.359958
     45          8           0       -2.069843   -5.270757    0.882052
     46          6           0       -1.307820   -5.907764    1.893090
     47          6           0        3.252907   -2.940397   -0.642696
     48          6           0        4.310747   -2.435064   -1.534472
     49          6           0        5.606395   -2.678237   -1.427741
     50          6           0        6.356280   -3.299900   -0.198157
     51          6           0        6.540191   -2.488448   -2.659514
     52          6           0        6.982292   -1.023527   -2.896991
     53          6           0        8.481031   -0.867677   -3.148748
     54          6           0        9.127449    0.127997   -2.109914
     55          6           0        9.207421   -0.557028   -0.707560
     56          6           0       10.594639    0.502377   -2.763619
     57          6           0       11.088925    1.924336   -2.379813
     58          6           0       12.632177    2.030198   -2.093695
     59          6           0       12.961206    2.817271   -0.741142
     60          6           0       13.920690    4.036891   -1.030035
     61          6           0       13.528744    1.827953    0.332568
     62          6           0       12.689664    1.890707    1.651540
     63          6           0       12.765849    0.716828    2.645786
     64          6           0       12.388605    1.078346    4.128280
     65          6           0       13.357430    0.360848    5.130351
     66          6           0       10.975632    0.566647    4.490463
     67          1           0       -1.464431    2.716230    0.067087
     68          1           0       -7.544678    4.595890    0.466573
     69          1           0       -9.671847   -1.374396    0.438774
     70          1           0       -1.213540   -1.973441    0.338318
     71          1           0       -0.599197    0.460128   -0.988238
     72          1           0        0.599467    0.903649    0.845562
     73          1           0        0.156897   -0.770596    1.504456
     74          1           0       -0.691361    0.681574    1.951433
     75          1           0       -0.912113   -1.250259   -2.555691
     76          1           0       -2.194177   -2.413820   -2.241096
     77          1           0        0.270034   -2.999197   -2.938491
     78          1           0       -0.693124   -4.131823   -2.028875
     79          1           0       -2.258854    5.752714   -1.172702
     80          1           0       -1.312067    4.700055   -0.228061
     81          1           0       -2.192776    5.917022    0.649951
     82          1           0       -4.322984    7.528313   -1.041214
     83          1           0       -3.464555    7.437161    0.524454
     84          1           0       -5.055112    8.425089    0.319848
     85          1           0       -9.898294    3.460809   -0.313255
     86          1           0      -10.858700    1.000057    0.438516
     87          1           0       -9.799710    4.041968    1.955999
     88          1           0       -9.308150    2.409238    2.440523
     89          1           0      -11.035892    2.731804    2.027127
     90          1           0       -9.891519    0.182205   -2.024423
     91          1           0       -9.512739    1.810498   -2.180925
     92          1           0      -11.871840    2.251597   -2.210871
     93          1           0      -12.161837    0.523871   -1.409683
     94          1           0      -11.624604    0.782317   -3.137519
     95          1           0       -9.394155   -3.591585    0.346144
     96          1           0       -8.683132   -4.244018    1.887335
     97          1           0       -8.341902   -5.071766    0.325280
     98          1           0       -3.323632   -4.045339   -0.857971
     99          1           0       -1.249680   -5.420945    2.866068
    100          1           0       -0.353695   -6.168825    1.434986
    101          1           0       -1.758419   -6.898121    1.958613
    102          1           0        3.520431   -3.939503   -0.298919
    103          1           0        3.155867   -2.430362    0.316450
    104          1           0        4.179709   -2.240090   -2.599111
    105          1           0        6.421428   -4.345714   -0.499974
    106          1           0        5.682623   -3.305670    0.657815
    107          1           0        7.227762   -2.713319    0.092562
    108          1           0        5.998032   -2.864022   -3.527029
    109          1           0        7.407839   -3.142983   -2.577893
    110          1           0        6.583563   -0.393912   -2.102528
    111          1           0        6.406317   -0.861965   -3.808189
    112          1           0        8.443866   -0.339094   -4.101036
    113          1           0        9.082646   -1.776354   -3.179725
    114          1           0        8.488567    1.009130   -2.046357
    115          1           0        9.214455   -1.619376   -0.952752
    116          1           0        8.253131   -0.394092   -0.205747
    117          1           0       10.102831   -0.347355   -0.122854
    118          1           0       10.611345    0.328112   -3.839625
    119          1           0       11.307844   -0.250727   -2.428611
    120          1           0       10.549944    2.325193   -1.521133
    121          1           0       11.003190    2.460346   -3.324627
    122          1           0       13.120522    2.604894   -2.880990
    123          1           0       13.069820    1.040282   -1.969162
    124          1           0       12.065453    3.319180   -0.374374
    125          1           0       14.571496    3.840590   -1.882278
    126          1           0       14.502713    4.251316   -0.133765
    127          1           0       13.257974    4.896890   -1.120693
    128          1           0       14.527650    2.193551    0.573533
    129          1           0       13.457640    0.780526    0.038419
    130          1           0       11.646517    2.021564    1.362716
    131          1           0       12.883857    2.826121    2.174107
    132          1           0       13.747979    0.251925    2.558830
    133          1           0       12.075096   -0.024737    2.245070
    134          1           0       12.438565    2.154653    4.293931
    135          1           0       14.115595    1.017798    5.556561
    136          1           0       13.805647   -0.514120    4.657625
    137          1           0       12.863385   -0.142450    5.962187
    138          1           0       10.562783    1.246306    5.234963
    139          1           0       10.968613   -0.383692    5.026160
    140          1           0       10.279549    0.435003    3.662345
 ---------------------------------------------------------------------

 SCF Done:  E(RCAM-B3LYP) =  -3007.15229605     A.U. after   16 cycles

 Excitation energies and oscillator strengths:

 Excited State   1:      Singlet-A      1.6922 eV  732.66 nm  f=0.3691  <S**2>=0.000
     245 -> 248        0.17107
     246 -> 247        0.68646
     245 <- 248        0.10595
 This state for optimization and/or second-order correction.
 Total Energy, E(TD-HF/TD-DFT) =  -3007.09010705
 Copying the excited state density for this state as the 1-particle RhoCI density.

 Excited State   2:      Singlet-A      2.1718 eV  570.89 nm  f=0.1625  <S**2>=0.000
     245 -> 247        0.65600
     246 -> 248       -0.24532

 Excited State   3:      Singlet-A      3.2528 eV  381.16 nm  f=0.0017  <S**2>=0.000
     243 -> 247       -0.11794
     244 -> 247        0.68494

 Excited State   4:      Singlet-A      3.4081 eV  363.79 nm  f=0.0022  <S**2>=0.000
     243 -> 247        0.66238
     244 -> 247        0.12498
     246 -> 248        0.16095

 Excited State   5:      Singlet-A      3.5254 eV  351.69 nm  f=0.0068  <S**2>=0.000
     239 -> 247        0.11076
     240 -> 247        0.16267
     241 -> 247        0.56339
     241 -> 249       -0.25907
     241 -> 250        0.12312
     241 -> 251       -0.10327
     246 -> 248       -0.10858

 The electronic state is 1-A.
 Alpha  occ. eigenvalues --  -46.87843 -19.25062 -19.23785 -19.21068 -19.19096
 Alpha  occ. eigenvalues --  -19.18864 -19.18290 -14.41749 -14.41621 -14.38695
 Alpha  occ. eigenvalues --  -14.38169 -10.40252 -10.39069 -10.34587 -10.34560
 Alpha  occ. eigenvalues --  -10.32519 -10.30946 -10.30566 -10.30437 -10.29876
 Alpha  occ. eigenvalues --  -10.29657 -10.29420 -10.29176 -10.29174 -10.28454
 Alpha  occ. eigenvalues --  -10.28131 -10.28017 -10.27764 -10.27736 -10.27571
 Alpha  occ. eigenvalues --  -10.27535 -10.27532 -10.27395 -10.27287 -10.27146
 Alpha  occ. eigenvalues --  -10.27109 -10.27075 -10.27045 -10.26800 -10.26541
 Alpha  occ. eigenvalues --  -10.26490 -10.26415 -10.26180 -10.26156 -10.25949
 Alpha  occ. eigenvalues --  -10.25806 -10.25762 -10.25757 -10.25706 -10.25695
 Alpha  occ. eigenvalues --  -10.25694 -10.25395 -10.25386 -10.25329 -10.25321
 Alpha  occ. eigenvalues --  -10.25266 -10.25121 -10.25117 -10.25019 -10.24876
 Alpha  occ. eigenvalues --  -10.24848 -10.24632 -10.24572 -10.24425 -10.24378
 Alpha  occ. eigenvalues --  -10.23641  -3.16473  -1.91380  -1.90930  -1.90775
 Alpha  occ. eigenvalues --   -1.17519  -1.14303  -1.10423  -1.09253  -1.09242
 Alpha  occ. eigenvalues --   -1.05840  -1.04811  -1.04003  -1.03591  -1.02804
 Alpha  occ. eigenvalues --   -0.92862  -0.90807  -0.89606  -0.89073  -0.89008
 Alpha  occ. eigenvalues --   -0.88480  -0.88345  -0.87278  -0.87160  -0.86731
 Alpha  occ. eigenvalues --   -0.85643  -0.85408  -0.84293  -0.83995  -0.83328
 Alpha  occ. eigenvalues --   -0.82478  -0.81925  -0.81053  -0.80724  -0.80134
 Alpha  occ. eigenvalues --   -0.79980  -0.78313  -0.78019  -0.77285  -0.76235
 Alpha  occ. eigenvalues --   -0.75482  -0.75003  -0.74919  -0.74810  -0.74535
 Alpha  occ. eigenvalues --   -0.73528  -0.72739  -0.71293  -0.70798  -0.68499
 Alpha  occ. eigenvalues --   -0.68121  -0.67991  -0.67213  -0.66334  -0.65492
 Alpha  occ. eigenvalues --   -0.64953  -0.64847  -0.64671  -0.64480  -0.64075
 Alpha  occ. eigenvalues --   -0.64061  -0.63712  -0.62644  -0.61373  -0.60425
 Alpha  occ. eigenvalues --   -0.60123  -0.59403  -0.58752  -0.58497  -0.58194
 Alpha  occ. eigenvalues --   -0.57783  -0.56650  -0.56291  -0.56083  -0.55451
 Alpha  occ. eigenvalues --   -0.55027  -0.54602  -0.54188  -0.53989  -0.53631
 Alpha  occ. eigenvalues --   -0.53447  -0.53351  -0.52974  -0.52770  -0.52713
 Alpha  occ. eigenvalues --   -0.52543  -0.52478  -0.52233  -0.52035  -0.51950
 Alpha  occ. eigenvalues --   -0.51672  -0.51307  -0.51146  -0.50950  -0.50801
 Alpha  occ. eigenvalues --   -0.50472  -0.50202  -0.50003  -0.49829  -0.49523
 Alpha  occ. eigenvalues --   -0.49349  -0.49331  -0.48944  -0.48886  -0.48647
 Alpha  occ. eigenvalues --   -0.48542  -0.48473  -0.48120  -0.47860  -0.47758
 Alpha  occ. eigenvalues --   -0.47675  -0.47505  -0.47143  -0.47080  -0.46774
 Alpha  occ. eigenvalues --   -0.46623  -0.46393  -0.46265  -0.46020  -0.45779
 Alpha  occ. eigenvalues --   -0.45718  -0.45314  -0.45173  -0.44762  -0.44589
 Alpha  occ. eigenvalues --   -0.44267  -0.44127  -0.43949  -0.43798  -0.43507
 Alpha  occ. eigenvalues --   -0.43455  -0.43377  -0.43142  -0.42752  -0.42523
 Alpha  occ. eigenvalues --   -0.42424  -0.42386  -0.42208  -0.41928  -0.41773
 Alpha  occ. eigenvalues --   -0.41576  -0.41542  -0.41314  -0.41135  -0.41031
 Alpha  occ. eigenvalues --   -0.40842  -0.40688  -0.40571  -0.40408  -0.40229
 Alpha  occ. eigenvalues --   -0.40078  -0.39793  -0.39318  -0.39165  -0.38755
 Alpha  occ. eigenvalues --   -0.38380  -0.38167  -0.38049  -0.37965  -0.37385
 Alpha  occ. eigenvalues --   -0.37088  -0.36915  -0.36686  -0.36545  -0.36447
 Alpha  occ. eigenvalues --   -0.35975  -0.34918  -0.34840  -0.34176  -0.34079
 Alpha  occ. eigenvalues --   -0.33951  -0.33656  -0.33026  -0.30942  -0.30513
 Alpha  occ. eigenvalues --   -0.30392  -0.30116  -0.29683  -0.29374  -0.23704
 Alpha  occ. eigenvalues --   -0.21240
 Alpha virt. eigenvalues --   -0.08835  -0.01101   0.00986   0.02544   0.02852
 Alpha virt. eigenvalues --    0.03943   0.05546   0.05732   0.06406   0.07026
 Alpha virt. eigenvalues --    0.07298   0.08406   0.08689   0.09129   0.09442

 Mulliken charges:
               1
     1  Mg   0.821465
     2  C   -0.046122
     3  C   -0.084461
     4  C   -0.055242
     5  C   -0.092880
     6  N   -0.285743
     7  C   -0.062926
     8  C    0.012172
     9  C   -0.091585
    10  C    0.045190
    11  C    0.066200
    12  C    0.059212
    13  C    0.060542
    14  C    0.154236
    15  O   -0.212310
    16  O   -0.328487
    17  N   -0.428997
    18  C    0.180719
    19  C   -0.146406
    20  C    0.017797
    21  C    0.080666
    22  C    0.100904
    23  C   -0.052374
    24  O   -0.218563
    25  C    0.067813
    26  N   -0.279863
    27  C    0.057808
    28  C   -0.059091
    29  C   -0.003174
    30  C    0.044126
    31  C    0.081989
    32  C    0.006828
    33  C    0.058069
    34  N   -0.302989
    35  C    0.106186
    36  C   -0.210404
    37  C    0.021291
    38  C    0.135954
    39  C    0.127195
    40  C    0.026375
    41  O   -0.143830
    42  C   -0.017339
    43  C    0.247029
    44  O   -0.253489
    45  O   -0.333492
    46  C    0.186336
    47  C    0.288299
    48  C   -0.050006
    49  C   -0.259160
    50  C    0.079233
    51  C    0.039212
    52  C    0.045196
    53  C    0.029275
    54  C   -0.160714
    55  C    0.050377
    56  C    0.024692
    57  C    0.046380
    58  C    0.049586
    59  C   -0.180060
    60  C    0.043553
    61  C    0.095540
    62  C   -0.057071
    63  C    0.076868
    64  C   -0.131500
    65  C    0.033184
    66  C    0.033439
    67  H   -0.032728
    68  H   -0.010985
    69  H   -0.020792
    70  H    0.044815
    71  H    0.000494
    72  H    0.014735
    73  H    0.043644
    74  H    0.018206
    75  H    0.015848
    76  H    0.012549
    77  H    0.027358
    78  H    0.042645
    79  H    0.035080
    80  H    0.014207
    81  H    0.035284
    82  H    0.030066
    83  H    0.028564
    84  H    0.035192
    85  H    0.012412
    86  H   -0.018650
    87  H    0.030301
    88  H    0.020643
    89  H    0.022068
    90  H   -0.006664
    91  H   -0.000001
    92  H    0.018617
    93  H    0.025740
    94  H    0.015695
    95  H    0.011321
    96  H    0.044452
    97  H    0.036108
    98  H    0.035684
    99  H    0.056508
   100  H    0.018962
   101  H    0.016328
   102  H    0.025270
   103  H    0.019502
   104  H   -0.008429
   105  H    0.035048
   106  H   -0.002298
   107  H    0.033211
   108  H    0.003045
   109  H   -0.010193
   110  H    0.013017
   111  H   -0.000550
   112  H    0.000970
   113  H    0.013344
   114  H    0.001195
   115  H    0.001171
   116  H    0.021000
   117  H    0.024670
   118  H   -0.006659
   119  H   -0.018842
   120  H    0.012915
   121  H    0.003262
   122  H   -0.008208
   123  H   -0.002710
   124  H    0.000614
   125  H    0.021214
   126  H   -0.001554
   127  H    0.006941
   128  H   -0.000672
   129  H    0.000818
   130  H   -0.011669
   131  H   -0.013308
   132  H   -0.004531
   133  H   -0.010112
   134  H    0.006163
   135  H    0.014710
   136  H    0.002083
   137  H   -0.001808
   138  H    0.004529
   139  H    0.003404
   140  H    0.007079
 Sum of Mulliken charges =  -0.00000

 Dipole moment (field-independent basis, Debye):
    X=              4.3078    Y=              1.7603    Z=             -4.6434  Tot=              6.5740
 Quadrupole moment (field-independent basis, Debye-Ang):
   XX=           -382.8894   YY=           -428.1012   ZZ=           -402.8311
   XY=             -5.9459   XZ=             12.4444   YZ=              5.5587

 Normal termination of Gaussian 16 at Sat Apr 30 08:08:54 2022.
