 Gaussian 16, Revision A.03,
 Gaussian 16:  ES64L-G16RevA.03 25-Dec-2016

 ---------------------------------
 #p PBE1PBE/Def2SVP td=(nstates=5)
 ---------------------------------

 ----------------------------------------------------
 step_651_chromophore_3 TDDFT with PBE1PBE functional
 ----------------------------------------------------
 Symbolic Z-matrix:
 Charge =  0 Multiplicity = 1

                         Standard orientation:
 ---------------------------------------------------------------------
 Center     Atomic      Atomic             Coordinates (Angstroms)
 Number     Number       Type             X           Y           Z
 ---------------------------------------------------------------------
      1         12           0       -5.529512    0.834023   -0.029339
      2          6           0       -4.015949   -2.281905    0.018257
      3          6           0       -2.456933    2.275411   -0.041595
      4          6           0       -7.117099    3.600787    0.326161
      5          6           0       -8.702660   -0.883616    0.321958
      6          7           0       -3.474173    0.034609    0.053802
      7          6           0       -3.076787   -1.277804   -0.198709
      8          6           0       -1.635021   -1.382965   -0.476112
      9          6           0       -1.135709    0.072110   -0.123325
     10          6           0       -2.432639    0.871049    0.010809
     11          6           0       -0.179116    0.193107    1.122878
     12          6           0       -1.275613   -1.987304   -1.839793
     13          6           0       -0.211824   -3.154916   -1.974121
     14          6           0        0.817603   -3.159723   -0.805414
     15          8           0        0.712697   -3.552710    0.330121
     16          8           0        2.007199   -2.752361   -1.340511
     17          7           0       -4.910317    2.729870    0.112752
     18          6           0       -3.591411    3.128596   -0.023691
     19          6           0       -3.564244    4.523134   -0.012092
     20          6           0       -4.929385    4.975322    0.109364
     21          6           0       -5.730939    3.796902    0.212757
     22          6           0       -2.254596    5.247346   -0.207797
     23          6           0       -5.408790    6.371869    0.217057
     24          8           0       -6.601218    6.588624    0.434575
     25          6           0       -4.431934    7.574991    0.042190
     26          7           0       -7.603210    1.241183    0.034221
     27          6           0       -8.030365    2.526360    0.305252
     28          6           0       -9.576066    2.656949    0.348403
     29          6           0       -9.962048    1.243175   -0.131946
     30          6           0       -8.692940    0.483500    0.206224
     31          6           0       -9.996136    2.979208    1.815448
     32          6           0      -10.209654    1.157181   -1.654813
     33          6           0      -11.670310    1.183741   -2.125136
     34          7           0       -6.252568   -1.172453    0.334989
     35          6           0       -7.546293   -1.657892    0.466889
     36          6           0       -7.413326   -3.117214    0.544896
     37          6           0       -6.045275   -3.348943    0.423987
     38          6           0       -5.404297   -2.168666    0.325963
     39          6           0       -8.563309   -4.122545    0.810922
     40          6           0       -5.080928   -4.421679    0.441052
     41          8           0       -5.236180   -5.613099    0.544042
     42          6           0       -3.685669   -3.731253    0.121985
     43          6           0       -2.767908   -4.111441    1.241764
     44          8           0       -2.666559   -3.547697    2.359958
     45          8           0       -2.069843   -5.270757    0.882052
     46          6           0       -1.307820   -5.907764    1.893090
     47          6           0        3.252907   -2.940397   -0.642696
     48          6           0        4.310747   -2.435064   -1.534472
     49          6           0        5.606395   -2.678237   -1.427741
     50          6           0        6.356280   -3.299900   -0.198157
     51          6           0        6.540191   -2.488448   -2.659514
     52          6           0        6.982292   -1.023527   -2.896991
     53          6           0        8.481031   -0.867677   -3.148748
     54          6           0        9.127449    0.127997   -2.109914
     55          6           0        9.207421   -0.557028   -0.707560
     56          6           0       10.594639    0.502377   -2.763619
     57          6           0       11.088925    1.924336   -2.379813
     58          6           0       12.632177    2.030198   -2.093695
     59          6           0       12.961206    2.817271   -0.741142
     60          6           0       13.920690    4.036891   -1.030035
     61          6           0       13.528744    1.827953    0.332568
     62          6           0       12.689664    1.890707    1.651540
     63          6           0       12.765849    0.716828    2.645786
     64          6           0       12.388605    1.078346    4.128280
     65          6           0       13.357430    0.360848    5.130351
     66          6           0       10.975632    0.566647    4.490463
     67          1           0       -1.464431    2.716230    0.067087
     68          1           0       -7.544678    4.595890    0.466573
     69          1           0       -9.671847   -1.374396    0.438774
     70          1           0       -1.213540   -1.973441    0.338318
     71          1           0       -0.599197    0.460128   -0.988238
     72          1           0        0.599467    0.903649    0.845562
     73          1           0        0.156897   -0.770596    1.504456
     74          1           0       -0.691361    0.681574    1.951433
     75          1           0       -0.912113   -1.250259   -2.555691
     76          1           0       -2.194177   -2.413820   -2.241096
     77          1           0        0.270034   -2.999197   -2.938491
     78          1           0       -0.693124   -4.131823   -2.028875
     79          1           0       -2.258854    5.752714   -1.172702
     80          1           0       -1.312067    4.700055   -0.228061
     81          1           0       -2.192776    5.917022    0.649951
     82          1           0       -4.322984    7.528313   -1.041214
     83          1           0       -3.464555    7.437161    0.524454
     84          1           0       -5.055112    8.425089    0.319848
     85          1           0       -9.898294    3.460809   -0.313255
     86          1           0      -10.858700    1.000057    0.438516
     87          1           0       -9.799710    4.041968    1.955999
     88          1           0       -9.308150    2.409238    2.440523
     89          1           0      -11.035892    2.731804    2.027127
     90          1           0       -9.891519    0.182205   -2.024423
     91          1           0       -9.512739    1.810498   -2.180925
     92          1           0      -11.871840    2.251597   -2.210871
     93          1           0      -12.161837    0.523871   -1.409683
     94          1           0      -11.624604    0.782317   -3.137519
     95          1           0       -9.394155   -3.591585    0.346144
     96          1           0       -8.683132   -4.244018    1.887335
     97          1           0       -8.341902   -5.071766    0.325280
     98          1           0       -3.323632   -4.045339   -0.857971
     99          1           0       -1.249680   -5.420945    2.866068
    100          1           0       -0.353695   -6.168825    1.434986
    101          1           0       -1.758419   -6.898121    1.958613
    102          1           0        3.520431   -3.939503   -0.298919
    103          1           0        3.155867   -2.430362    0.316450
    104          1           0        4.179709   -2.240090   -2.599111
    105          1           0        6.421428   -4.345714   -0.499974
    106          1           0        5.682623   -3.305670    0.657815
    107          1           0        7.227762   -2.713319    0.092562
    108          1           0        5.998032   -2.864022   -3.527029
    109          1           0        7.407839   -3.142983   -2.577893
    110          1           0        6.583563   -0.393912   -2.102528
    111          1           0        6.406317   -0.861965   -3.808189
    112          1           0        8.443866   -0.339094   -4.101036
    113          1           0        9.082646   -1.776354   -3.179725
    114          1           0        8.488567    1.009130   -2.046357
    115          1           0        9.214455   -1.619376   -0.952752
    116          1           0        8.253131   -0.394092   -0.205747
    117          1           0       10.102831   -0.347355   -0.122854
    118          1           0       10.611345    0.328112   -3.839625
    119          1           0       11.307844   -0.250727   -2.428611
    120          1           0       10.549944    2.325193   -1.521133
    121          1           0       11.003190    2.460346   -3.324627
    122          1           0       13.120522    2.604894   -2.880990
    123          1           0       13.069820    1.040282   -1.969162
    124          1           0       12.065453    3.319180   -0.374374
    125          1           0       14.571496    3.840590   -1.882278
    126          1           0       14.502713    4.251316   -0.133765
    127          1           0       13.257974    4.896890   -1.120693
    128          1           0       14.527650    2.193551    0.573533
    129          1           0       13.457640    0.780526    0.038419
    130          1           0       11.646517    2.021564    1.362716
    131          1           0       12.883857    2.826121    2.174107
    132          1           0       13.747979    0.251925    2.558830
    133          1           0       12.075096   -0.024737    2.245070
    134          1           0       12.438565    2.154653    4.293931
    135          1           0       14.115595    1.017798    5.556561
    136          1           0       13.805647   -0.514120    4.657625
    137          1           0       12.863385   -0.142450    5.962187
    138          1           0       10.562783    1.246306    5.234963
    139          1           0       10.968613   -0.383692    5.026160
    140          1           0       10.279549    0.435003    3.662345
 ---------------------------------------------------------------------

 SCF Done:  E(RPBE1PBE) =  -3005.34108769     A.U. after   15 cycles

 Excitation energies and oscillator strengths:

 Excited State   1:      Singlet-A      1.8558 eV  668.11 nm  f=0.3551  <S**2>=0.000
     245 -> 248       -0.16447
     246 -> 247        0.69416
     246 <- 247       -0.11177
 This state for optimization and/or second-order correction.
 Total Energy, E(TD-HF/TD-DFT) =  -3005.27288997
 Copying the excited state density for this state as the 1-particle RhoCI density.

 Excited State   2:      Singlet-A      2.1935 eV  565.25 nm  f=0.1495  <S**2>=0.000
     245 -> 247        0.66328
     246 -> 248        0.22600

 Excited State   3:      Singlet-A      2.9331 eV  422.70 nm  f=0.0014  <S**2>=0.000
     244 -> 247        0.68553

 Excited State   4:      Singlet-A      2.9718 eV  417.20 nm  f=0.0003  <S**2>=0.000
     240 -> 247        0.26869
     242 -> 247        0.54386
     242 -> 249        0.12287
     243 -> 247        0.31456

 Excited State   5:      Singlet-A      2.9799 eV  416.06 nm  f=0.0018  <S**2>=0.000
     240 -> 247        0.14998
     242 -> 247       -0.38730
     243 -> 247        0.53544
     244 -> 247       -0.13538

 The electronic state is 1-A.
 Alpha  occ. eigenvalues --  -46.91233 -19.25764 -19.24439 -19.21295 -19.19309
 Alpha  occ. eigenvalues --  -19.19088 -19.18504 -14.41228 -14.41133 -14.38362
 Alpha  occ. eigenvalues --  -14.37847 -10.37280 -10.36053 -10.31709 -10.31695
 Alpha  occ. eigenvalues --  -10.29887 -10.28692 -10.28303 -10.28097 -10.27638
 Alpha  occ. eigenvalues --  -10.27276 -10.26954 -10.26812 -10.26649 -10.25956
 Alpha  occ. eigenvalues --  -10.25756 -10.25618 -10.25527 -10.25370 -10.25363
 Alpha  occ. eigenvalues --  -10.25347 -10.25197 -10.25167 -10.25069 -10.24953
 Alpha  occ. eigenvalues --  -10.24761 -10.24653 -10.24554 -10.24547 -10.24228
 Alpha  occ. eigenvalues --  -10.24098 -10.23879 -10.23807 -10.23509 -10.23419
 Alpha  occ. eigenvalues --  -10.23409 -10.23400 -10.23294 -10.23271 -10.23179
 Alpha  occ. eigenvalues --  -10.23150 -10.23067 -10.22928 -10.22894 -10.22870
 Alpha  occ. eigenvalues --  -10.22778 -10.22667 -10.22664 -10.22588 -10.22477
 Alpha  occ. eigenvalues --  -10.22398 -10.22099 -10.22053 -10.21834 -10.21769
 Alpha  occ. eigenvalues --  -10.21361  -3.13442  -1.86290  -1.85817  -1.85668
 Alpha  occ. eigenvalues --   -1.12329  -1.09053  -1.05188  -1.04105  -1.03954
 Alpha  occ. eigenvalues --   -1.00601  -0.99459  -0.98636  -0.98255  -0.97469
 Alpha  occ. eigenvalues --   -0.87227  -0.84969  -0.83822  -0.83363  -0.83098
 Alpha  occ. eigenvalues --   -0.82781  -0.82464  -0.81616  -0.81268  -0.81007
 Alpha  occ. eigenvalues --   -0.79944  -0.79680  -0.78484  -0.78266  -0.77611
 Alpha  occ. eigenvalues --   -0.76688  -0.76186  -0.75229  -0.74972  -0.74356
 Alpha  occ. eigenvalues --   -0.74186  -0.72577  -0.72275  -0.71610  -0.70409
 Alpha  occ. eigenvalues --   -0.69817  -0.69346  -0.69010  -0.68983  -0.68717
 Alpha  occ. eigenvalues --   -0.67816  -0.67187  -0.65660  -0.65167  -0.62872
 Alpha  occ. eigenvalues --   -0.62439  -0.62335  -0.61680  -0.60589  -0.59975
 Alpha  occ. eigenvalues --   -0.59350  -0.59288  -0.59213  -0.58711  -0.58627
 Alpha  occ. eigenvalues --   -0.58188  -0.57857  -0.56839  -0.55905  -0.54966
 Alpha  occ. eigenvalues --   -0.54585  -0.54017  -0.53262  -0.53064  -0.52775
 Alpha  occ. eigenvalues --   -0.52221  -0.51190  -0.50801  -0.50489  -0.49948
 Alpha  occ. eigenvalues --   -0.49532  -0.49162  -0.48530  -0.48430  -0.48169
 Alpha  occ. eigenvalues --   -0.47970  -0.47878  -0.47469  -0.47353  -0.47153
 Alpha  occ. eigenvalues --   -0.47054  -0.46993  -0.46713  -0.46592  -0.46560
 Alpha  occ. eigenvalues --   -0.46163  -0.45799  -0.45729  -0.45462  -0.45302
 Alpha  occ. eigenvalues --   -0.45090  -0.44757  -0.44630  -0.44330  -0.44076
 Alpha  occ. eigenvalues --   -0.43961  -0.43919  -0.43503  -0.43467  -0.43226
 Alpha  occ. eigenvalues --   -0.43158  -0.43085  -0.42707  -0.42531  -0.42366
 Alpha  occ. eigenvalues --   -0.42310  -0.42200  -0.41826  -0.41734  -0.41404
 Alpha  occ. eigenvalues --   -0.41268  -0.41089  -0.40892  -0.40767  -0.40502
 Alpha  occ. eigenvalues --   -0.40453  -0.39950  -0.39892  -0.39490  -0.39279
 Alpha  occ. eigenvalues --   -0.38987  -0.38919  -0.38751  -0.38544  -0.38248
 Alpha  occ. eigenvalues --   -0.38204  -0.38166  -0.37965  -0.37533  -0.37237
 Alpha  occ. eigenvalues --   -0.37197  -0.37108  -0.37035  -0.36784  -0.36567
 Alpha  occ. eigenvalues --   -0.36424  -0.36371  -0.36171  -0.35954  -0.35799
 Alpha  occ. eigenvalues --   -0.35651  -0.35518  -0.35402  -0.35172  -0.35116
 Alpha  occ. eigenvalues --   -0.35035  -0.34552  -0.34131  -0.34092  -0.33639
 Alpha  occ. eigenvalues --   -0.33204  -0.33097  -0.32834  -0.32683  -0.32339
 Alpha  occ. eigenvalues --   -0.32081  -0.31775  -0.31739  -0.31539  -0.31278
 Alpha  occ. eigenvalues --   -0.30878  -0.29837  -0.29752  -0.29276  -0.29232
 Alpha  occ. eigenvalues --   -0.28955  -0.28720  -0.28224  -0.26590  -0.25453
 Alpha  occ. eigenvalues --   -0.25371  -0.25310  -0.25191  -0.24993  -0.20662
 Alpha  occ. eigenvalues --   -0.18828
 Alpha virt. eigenvalues --   -0.11232  -0.04691  -0.03236  -0.01793  -0.00640
 Alpha virt. eigenvalues --   -0.00098   0.01047   0.01321   0.02174   0.03569
 Alpha virt. eigenvalues --    0.04104   0.04533   0.04640   0.05695   0.05914

 Mulliken charges:
               1
     1  Mg   0.972097
     2  C   -0.056465
     3  C   -0.072707
     4  C   -0.055811
     5  C   -0.083058
     6  N   -0.390340
     7  C    0.004438
     8  C   -0.066921
     9  C   -0.163121
    10  C    0.083788
    11  C    0.008702
    12  C    0.010941
    13  C   -0.013967
    14  C    0.220301
    15  O   -0.247525
    16  O   -0.361791
    17  N   -0.550721
    18  C    0.209631
    19  C   -0.180597
    20  C   -0.041344
    21  C    0.124560
    22  C    0.042239
    23  C    0.003353
    24  O   -0.256059
    25  C   -0.007036
    26  N   -0.374442
    27  C    0.084620
    28  C   -0.136730
    29  C   -0.079237
    30  C    0.070273
    31  C    0.027496
    32  C   -0.045492
    33  C   -0.019005
    34  N   -0.431883
    35  C    0.134203
    36  C   -0.220919
    37  C   -0.038837
    38  C    0.198773
    39  C    0.070993
    40  C    0.127620
    41  O   -0.190529
    42  C   -0.122698
    43  C    0.327587
    44  O   -0.287445
    45  O   -0.365024
    46  C    0.134158
    47  C    0.253533
    48  C   -0.066542
    49  C   -0.295786
    50  C    0.009045
    51  C   -0.021744
    52  C   -0.013927
    53  C   -0.032541
    54  C   -0.242593
    55  C   -0.012359
    56  C   -0.022607
    57  C   -0.023137
    58  C   -0.001537
    59  C   -0.258812
    60  C   -0.018378
    61  C    0.035286
    62  C   -0.116355
    63  C    0.020056
    64  C   -0.226954
    65  C   -0.025023
    66  C   -0.026493
    67  H   -0.000138
    68  H    0.022987
    69  H    0.009536
    70  H    0.091596
    71  H    0.038144
    72  H    0.041517
    73  H    0.069315
    74  H    0.046155
    75  H    0.047092
    76  H    0.046024
    77  H    0.059190
    78  H    0.073657
    79  H    0.062706
    80  H    0.040238
    81  H    0.062702
    82  H    0.058622
    83  H    0.054641
    84  H    0.062060
    85  H    0.047764
    86  H    0.016941
    87  H    0.058575
    88  H    0.049176
    89  H    0.049381
    90  H    0.028449
    91  H    0.032917
    92  H    0.047856
    93  H    0.052619
    94  H    0.044849
    95  H    0.039262
    96  H    0.072294
    97  H    0.063678
    98  H    0.073632
    99  H    0.076499
   100  H    0.041536
   101  H    0.039548
   102  H    0.051156
   103  H    0.045361
   104  H    0.021875
   105  H    0.063436
   106  H    0.026388
   107  H    0.062456
   108  H    0.035462
   109  H    0.021734
   110  H    0.044397
   111  H    0.032603
   112  H    0.035468
   113  H    0.043661
   114  H    0.037873
   115  H    0.029367
   116  H    0.048448
   117  H    0.054562
   118  H    0.024114
   119  H    0.013303
   120  H    0.044167
   121  H    0.037867
   122  H    0.024316
   123  H    0.028526
   124  H    0.036746
   125  H    0.047483
   126  H    0.026745
   127  H    0.035411
   128  H    0.032740
   129  H    0.032987
   130  H    0.022776
   131  H    0.019849
   132  H    0.027761
   133  H    0.024255
   134  H    0.041872
   135  H    0.042250
   136  H    0.029175
   137  H    0.025409
   138  H    0.033153
   139  H    0.030580
   140  H    0.034045
 Sum of Mulliken charges =  -0.00000

 Dipole moment (field-independent basis, Debye):
    X=              4.2155    Y=              1.6190    Z=             -4.6913  Tot=              6.5116
 Quadrupole moment (field-independent basis, Debye-Ang):
   XX=           -376.5865   YY=           -425.7995   ZZ=           -400.0666
   XY=             -5.5786   XZ=             12.5846   YZ=              5.3971

 Normal termination of Gaussian 16 at Sat Apr 30 08:24:16 2022.
