 Gaussian 16, Revision A.03,
 Gaussian 16:  ES64L-G16RevA.03 25-Dec-2016

 --------------------------------
 #p wB97XD/Def2SVP td=(nstates=5)
 --------------------------------

 ---------------------------------------------------
 step_651_chromophore_3 TDDFT with wB97XD functional
 ---------------------------------------------------
 Symbolic Z-matrix:
 Charge =  0 Multiplicity = 1

                         Standard orientation:
 ---------------------------------------------------------------------
 Center     Atomic      Atomic             Coordinates (Angstroms)
 Number     Number       Type             X           Y           Z
 ---------------------------------------------------------------------
      1         12           0       -5.529512    0.834023   -0.029339
      2          6           0       -4.015949   -2.281905    0.018257
      3          6           0       -2.456933    2.275411   -0.041595
      4          6           0       -7.117099    3.600787    0.326161
      5          6           0       -8.702660   -0.883616    0.321958
      6          7           0       -3.474173    0.034609    0.053802
      7          6           0       -3.076787   -1.277804   -0.198709
      8          6           0       -1.635021   -1.382965   -0.476112
      9          6           0       -1.135709    0.072110   -0.123325
     10          6           0       -2.432639    0.871049    0.010809
     11          6           0       -0.179116    0.193107    1.122878
     12          6           0       -1.275613   -1.987304   -1.839793
     13          6           0       -0.211824   -3.154916   -1.974121
     14          6           0        0.817603   -3.159723   -0.805414
     15          8           0        0.712697   -3.552710    0.330121
     16          8           0        2.007199   -2.752361   -1.340511
     17          7           0       -4.910317    2.729870    0.112752
     18          6           0       -3.591411    3.128596   -0.023691
     19          6           0       -3.564244    4.523134   -0.012092
     20          6           0       -4.929385    4.975322    0.109364
     21          6           0       -5.730939    3.796902    0.212757
     22          6           0       -2.254596    5.247346   -0.207797
     23          6           0       -5.408790    6.371869    0.217057
     24          8           0       -6.601218    6.588624    0.434575
     25          6           0       -4.431934    7.574991    0.042190
     26          7           0       -7.603210    1.241183    0.034221
     27          6           0       -8.030365    2.526360    0.305252
     28          6           0       -9.576066    2.656949    0.348403
     29          6           0       -9.962048    1.243175   -0.131946
     30          6           0       -8.692940    0.483500    0.206224
     31          6           0       -9.996136    2.979208    1.815448
     32          6           0      -10.209654    1.157181   -1.654813
     33          6           0      -11.670310    1.183741   -2.125136
     34          7           0       -6.252568   -1.172453    0.334989
     35          6           0       -7.546293   -1.657892    0.466889
     36          6           0       -7.413326   -3.117214    0.544896
     37          6           0       -6.045275   -3.348943    0.423987
     38          6           0       -5.404297   -2.168666    0.325963
     39          6           0       -8.563309   -4.122545    0.810922
     40          6           0       -5.080928   -4.421679    0.441052
     41          8           0       -5.236180   -5.613099    0.544042
     42          6           0       -3.685669   -3.731253    0.121985
     43          6           0       -2.767908   -4.111441    1.241764
     44          8           0       -2.666559   -3.547697    2.359958
     45          8           0       -2.069843   -5.270757    0.882052
     46          6           0       -1.307820   -5.907764    1.893090
     47          6           0        3.252907   -2.940397   -0.642696
     48          6           0        4.310747   -2.435064   -1.534472
     49          6           0        5.606395   -2.678237   -1.427741
     50          6           0        6.356280   -3.299900   -0.198157
     51          6           0        6.540191   -2.488448   -2.659514
     52          6           0        6.982292   -1.023527   -2.896991
     53          6           0        8.481031   -0.867677   -3.148748
     54          6           0        9.127449    0.127997   -2.109914
     55          6           0        9.207421   -0.557028   -0.707560
     56          6           0       10.594639    0.502377   -2.763619
     57          6           0       11.088925    1.924336   -2.379813
     58          6           0       12.632177    2.030198   -2.093695
     59          6           0       12.961206    2.817271   -0.741142
     60          6           0       13.920690    4.036891   -1.030035
     61          6           0       13.528744    1.827953    0.332568
     62          6           0       12.689664    1.890707    1.651540
     63          6           0       12.765849    0.716828    2.645786
     64          6           0       12.388605    1.078346    4.128280
     65          6           0       13.357430    0.360848    5.130351
     66          6           0       10.975632    0.566647    4.490463
     67          1           0       -1.464431    2.716230    0.067087
     68          1           0       -7.544678    4.595890    0.466573
     69          1           0       -9.671847   -1.374396    0.438774
     70          1           0       -1.213540   -1.973441    0.338318
     71          1           0       -0.599197    0.460128   -0.988238
     72          1           0        0.599467    0.903649    0.845562
     73          1           0        0.156897   -0.770596    1.504456
     74          1           0       -0.691361    0.681574    1.951433
     75          1           0       -0.912113   -1.250259   -2.555691
     76          1           0       -2.194177   -2.413820   -2.241096
     77          1           0        0.270034   -2.999197   -2.938491
     78          1           0       -0.693124   -4.131823   -2.028875
     79          1           0       -2.258854    5.752714   -1.172702
     80          1           0       -1.312067    4.700055   -0.228061
     81          1           0       -2.192776    5.917022    0.649951
     82          1           0       -4.322984    7.528313   -1.041214
     83          1           0       -3.464555    7.437161    0.524454
     84          1           0       -5.055112    8.425089    0.319848
     85          1           0       -9.898294    3.460809   -0.313255
     86          1           0      -10.858700    1.000057    0.438516
     87          1           0       -9.799710    4.041968    1.955999
     88          1           0       -9.308150    2.409238    2.440523
     89          1           0      -11.035892    2.731804    2.027127
     90          1           0       -9.891519    0.182205   -2.024423
     91          1           0       -9.512739    1.810498   -2.180925
     92          1           0      -11.871840    2.251597   -2.210871
     93          1           0      -12.161837    0.523871   -1.409683
     94          1           0      -11.624604    0.782317   -3.137519
     95          1           0       -9.394155   -3.591585    0.346144
     96          1           0       -8.683132   -4.244018    1.887335
     97          1           0       -8.341902   -5.071766    0.325280
     98          1           0       -3.323632   -4.045339   -0.857971
     99          1           0       -1.249680   -5.420945    2.866068
    100          1           0       -0.353695   -6.168825    1.434986
    101          1           0       -1.758419   -6.898121    1.958613
    102          1           0        3.520431   -3.939503   -0.298919
    103          1           0        3.155867   -2.430362    0.316450
    104          1           0        4.179709   -2.240090   -2.599111
    105          1           0        6.421428   -4.345714   -0.499974
    106          1           0        5.682623   -3.305670    0.657815
    107          1           0        7.227762   -2.713319    0.092562
    108          1           0        5.998032   -2.864022   -3.527029
    109          1           0        7.407839   -3.142983   -2.577893
    110          1           0        6.583563   -0.393912   -2.102528
    111          1           0        6.406317   -0.861965   -3.808189
    112          1           0        8.443866   -0.339094   -4.101036
    113          1           0        9.082646   -1.776354   -3.179725
    114          1           0        8.488567    1.009130   -2.046357
    115          1           0        9.214455   -1.619376   -0.952752
    116          1           0        8.253131   -0.394092   -0.205747
    117          1           0       10.102831   -0.347355   -0.122854
    118          1           0       10.611345    0.328112   -3.839625
    119          1           0       11.307844   -0.250727   -2.428611
    120          1           0       10.549944    2.325193   -1.521133
    121          1           0       11.003190    2.460346   -3.324627
    122          1           0       13.120522    2.604894   -2.880990
    123          1           0       13.069820    1.040282   -1.969162
    124          1           0       12.065453    3.319180   -0.374374
    125          1           0       14.571496    3.840590   -1.882278
    126          1           0       14.502713    4.251316   -0.133765
    127          1           0       13.257974    4.896890   -1.120693
    128          1           0       14.527650    2.193551    0.573533
    129          1           0       13.457640    0.780526    0.038419
    130          1           0       11.646517    2.021564    1.362716
    131          1           0       12.883857    2.826121    2.174107
    132          1           0       13.747979    0.251925    2.558830
    133          1           0       12.075096   -0.024737    2.245070
    134          1           0       12.438565    2.154653    4.293931
    135          1           0       14.115595    1.017798    5.556561
    136          1           0       13.805647   -0.514120    4.657625
    137          1           0       12.863385   -0.142450    5.962187
    138          1           0       10.562783    1.246306    5.234963
    139          1           0       10.968613   -0.383692    5.026160
    140          1           0       10.279549    0.435003    3.662345
 ---------------------------------------------------------------------

 SCF Done:  E(RwB97XD) =  -3007.84973644     A.U. after   17 cycles

 Excitation energies and oscillator strengths:

 Excited State   1:      Singlet-A      1.6353 eV  758.16 nm  f=0.3684  <S**2>=0.000
     245 -> 248        0.17691
     246 -> 247        0.68426
     245 <- 248        0.11516
 This state for optimization and/or second-order correction.
 Total Energy, E(TD-HF/TD-DFT) =  -3007.78963894
 Copying the excited state density for this state as the 1-particle RhoCI density.

 Excited State   2:      Singlet-A      2.1135 eV  586.62 nm  f=0.1583  <S**2>=0.000
     245 -> 247        0.65399
     246 -> 248       -0.24837

 Excited State   3:      Singlet-A      3.2718 eV  378.95 nm  f=0.0018  <S**2>=0.000
     243 -> 247       -0.14321
     244 -> 247        0.67347

 Excited State   4:      Singlet-A      3.4392 eV  360.50 nm  f=0.0003  <S**2>=0.000
     243 -> 247        0.64121
     244 -> 247        0.15469
     246 -> 248        0.19473

 Excited State   5:      Singlet-A      3.5560 eV  348.66 nm  f=0.0108  <S**2>=0.000
     240 -> 247        0.21257
     240 -> 249       -0.10650
     241 -> 247        0.52804
     241 -> 249       -0.27390
     241 -> 250        0.15486
     246 -> 248       -0.11931

 The electronic state is 1-A.
 Alpha  occ. eigenvalues --  -46.94178 -19.30301 -19.29003 -19.25956 -19.24050
 Alpha  occ. eigenvalues --  -19.23898 -19.23317 -14.46353 -14.46221 -14.43302
 Alpha  occ. eigenvalues --  -14.42751 -10.44049 -10.42938 -10.38561 -10.38554
 Alpha  occ. eigenvalues --  -10.36394 -10.35009 -10.34589 -10.34445 -10.33854
 Alpha  occ. eigenvalues --  -10.33688 -10.33211 -10.33189 -10.33127 -10.32358
 Alpha  occ. eigenvalues --  -10.32170 -10.32110 -10.31797 -10.31779 -10.31637
 Alpha  occ. eigenvalues --  -10.31567 -10.31514 -10.31490 -10.31396 -10.31151
 Alpha  occ. eigenvalues --  -10.31117 -10.31095 -10.31085 -10.30819 -10.30637
 Alpha  occ. eigenvalues --  -10.30375 -10.30340 -10.30172 -10.30027 -10.29818
 Alpha  occ. eigenvalues --  -10.29762 -10.29678 -10.29658 -10.29654 -10.29546
 Alpha  occ. eigenvalues --  -10.29504 -10.29438 -10.29285 -10.29261 -10.29226
 Alpha  occ. eigenvalues --  -10.29223 -10.29048 -10.29039 -10.28952 -10.28822
 Alpha  occ. eigenvalues --  -10.28765 -10.28480 -10.28470 -10.28249 -10.28195
 Alpha  occ. eigenvalues --  -10.27651  -3.20232  -1.93832  -1.93360  -1.93204
 Alpha  occ. eigenvalues --   -1.19684  -1.16471  -1.12654  -1.11458  -1.11425
 Alpha  occ. eigenvalues --   -1.08016  -1.06812  -1.06011  -1.05629  -1.04853
 Alpha  occ. eigenvalues --   -0.94838  -0.92634  -0.91458  -0.90940  -0.90775
 Alpha  occ. eigenvalues --   -0.90397  -0.90134  -0.89197  -0.88937  -0.88677
 Alpha  occ. eigenvalues --   -0.87561  -0.87301  -0.86138  -0.85859  -0.85245
 Alpha  occ. eigenvalues --   -0.84338  -0.83839  -0.82919  -0.82645  -0.82035
 Alpha  occ. eigenvalues --   -0.81862  -0.80273  -0.79912  -0.79191  -0.78086
 Alpha  occ. eigenvalues --   -0.77423  -0.76927  -0.76705  -0.76657  -0.76380
 Alpha  occ. eigenvalues --   -0.75432  -0.74717  -0.73232  -0.72747  -0.70457
 Alpha  occ. eigenvalues --   -0.70006  -0.69924  -0.69207  -0.68210  -0.67460
 Alpha  occ. eigenvalues --   -0.66874  -0.66778  -0.66662  -0.66346  -0.66057
 Alpha  occ. eigenvalues --   -0.65880  -0.65533  -0.64486  -0.63352  -0.62419
 Alpha  occ. eigenvalues --   -0.62060  -0.61392  -0.60701  -0.60482  -0.60173
 Alpha  occ. eigenvalues --   -0.59735  -0.58595  -0.58250  -0.57970  -0.57364
 Alpha  occ. eigenvalues --   -0.56953  -0.56585  -0.56021  -0.55873  -0.55538
 Alpha  occ. eigenvalues --   -0.55346  -0.55266  -0.54874  -0.54684  -0.54624
 Alpha  occ. eigenvalues --   -0.54450  -0.54377  -0.54098  -0.53937  -0.53893
 Alpha  occ. eigenvalues --   -0.53544  -0.53175  -0.53078  -0.52882  -0.52675
 Alpha  occ. eigenvalues --   -0.52391  -0.52082  -0.51919  -0.51784  -0.51392
 Alpha  occ. eigenvalues --   -0.51283  -0.51243  -0.50817  -0.50776  -0.50598
 Alpha  occ. eigenvalues --   -0.50481  -0.50357  -0.50049  -0.49759  -0.49641
 Alpha  occ. eigenvalues --   -0.49613  -0.49417  -0.49073  -0.48989  -0.48647
 Alpha  occ. eigenvalues --   -0.48500  -0.48327  -0.48134  -0.47940  -0.47698
 Alpha  occ. eigenvalues --   -0.47634  -0.47142  -0.47094  -0.46748  -0.46464
 Alpha  occ. eigenvalues --   -0.46166  -0.46059  -0.45858  -0.45722  -0.45384
 Alpha  occ. eigenvalues --   -0.45351  -0.45291  -0.45091  -0.44675  -0.44403
 Alpha  occ. eigenvalues --   -0.44333  -0.44262  -0.44113  -0.43827  -0.43773
 Alpha  occ. eigenvalues --   -0.43472  -0.43451  -0.43292  -0.43105  -0.42899
 Alpha  occ. eigenvalues --   -0.42704  -0.42567  -0.42477  -0.42271  -0.42113
 Alpha  occ. eigenvalues --   -0.41953  -0.41639  -0.41164  -0.41058  -0.40623
 Alpha  occ. eigenvalues --   -0.40233  -0.40059  -0.39888  -0.39790  -0.39396
 Alpha  occ. eigenvalues --   -0.39008  -0.38824  -0.38756  -0.38455  -0.38281
 Alpha  occ. eigenvalues --   -0.37859  -0.36821  -0.36697  -0.36082  -0.36055
 Alpha  occ. eigenvalues --   -0.35963  -0.35630  -0.35174  -0.33158  -0.32460
 Alpha  occ. eigenvalues --   -0.32372  -0.32135  -0.31860  -0.31550  -0.25615
 Alpha  occ. eigenvalues --   -0.23053
 Alpha virt. eigenvalues --   -0.07185   0.00821   0.03056   0.04723   0.05787
 Alpha virt. eigenvalues --    0.06296   0.07727   0.08056   0.08799   0.09898
 Alpha virt. eigenvalues --    0.10775   0.11092   0.11432   0.12492   0.12692

 Mulliken charges:
               1
     1  Mg   0.960850
     2  C   -0.057579
     3  C   -0.091376
     4  C   -0.067774
     5  C   -0.101250
     6  N   -0.356318
     7  C   -0.022390
     8  C   -0.032273
     9  C   -0.139020
    10  C    0.069053
    11  C    0.018868
    12  C    0.019056
    13  C    0.002048
    14  C    0.206150
    15  O   -0.242061
    16  O   -0.359191
    17  N   -0.516690
    18  C    0.199353
    19  C   -0.166723
    20  C   -0.031779
    21  C    0.112099
    22  C    0.053700
    23  C   -0.004335
    24  O   -0.250742
    25  C    0.007599
    26  N   -0.348181
    27  C    0.075504
    28  C   -0.111720
    29  C   -0.052361
    30  C    0.061293
    31  C    0.035242
    32  C   -0.036233
    33  C   -0.000655
    34  N   -0.391296
    35  C    0.123622
    36  C   -0.221501
    37  C   -0.029033
    38  C    0.175647
    39  C    0.085768
    40  C    0.105766
    41  O   -0.180923
    42  C   -0.082931
    43  C    0.305831
    44  O   -0.281145
    45  O   -0.362971
    46  C    0.147051
    47  C    0.262513
    48  C   -0.074204
    49  C   -0.281746
    50  C    0.028503
    51  C   -0.003414
    52  C   -0.000060
    53  C   -0.013964
    54  C   -0.215204
    55  C    0.002623
    56  C   -0.009321
    57  C   -0.003794
    58  C    0.014342
    59  C   -0.232895
    60  C   -0.003933
    61  C    0.051280
    62  C   -0.094502
    63  C    0.034247
    64  C   -0.198479
    65  C   -0.012798
    66  C   -0.014062
    67  H   -0.007917
    68  H    0.016271
    69  H    0.005394
    70  H    0.065072
    71  H    0.027618
    72  H    0.036114
    73  H    0.065684
    74  H    0.040080
    75  H    0.040916
    76  H    0.036685
    77  H    0.055038
    78  H    0.069059
    79  H    0.057919
    80  H    0.037857
    81  H    0.056036
    82  H    0.052591
    83  H    0.049030
    84  H    0.060994
    85  H    0.040073
    86  H    0.006834
    87  H    0.053184
    88  H    0.042350
    89  H    0.044490
    90  H    0.017966
    91  H    0.024556
    92  H    0.040966
    93  H    0.046245
    94  H    0.039204
    95  H    0.031410
    96  H    0.067501
    97  H    0.059934
    98  H    0.065047
    99  H    0.073769
   100  H    0.038045
   101  H    0.035044
   102  H    0.045972
   103  H    0.041205
   104  H    0.017308
   105  H    0.057421
   106  H    0.020337
   107  H    0.053473
   108  H    0.027766
   109  H    0.012151
   110  H    0.033785
   111  H    0.025790
   112  H    0.026365
   113  H    0.034633
   114  H    0.026773
   115  H    0.017564
   116  H    0.041341
   117  H    0.048889
   118  H    0.016747
   119  H    0.002470
   120  H    0.033239
   121  H    0.030183
   122  H    0.016044
   123  H    0.017350
   124  H    0.022446
   125  H    0.041453
   126  H    0.019656
   127  H    0.029817
   128  H    0.023904
   129  H    0.022455
   130  H    0.009698
   131  H    0.009261
   132  H    0.018712
   133  H    0.014008
   134  H    0.032508
   135  H    0.037547
   136  H    0.022158
   137  H    0.018669
   138  H    0.027266
   139  H    0.023425
   140  H    0.027971
 Sum of Mulliken charges =  -0.00000

 Dipole moment (field-independent basis, Debye):
    X=              4.3551    Y=              1.7943    Z=             -4.7003  Tot=              6.6543
 Quadrupole moment (field-independent basis, Debye-Ang):
   XX=           -378.1182   YY=           -423.7358   ZZ=           -399.7504
   XY=             -6.0170   XZ=             12.7602   YZ=              5.3816

 Normal termination of Gaussian 16 at Sat Apr 30 08:49:44 2022.
