 Gaussian 16, Revision A.03,
 Gaussian 16:  ES64L-G16RevA.03 25-Dec-2016

 --------------------
 #p ZINDO=(nstates=5)
 --------------------

 ----------------------------
 step_651_chromophore_3 ZINDO
 ----------------------------
 Symbolic Z-matrix:
 Charge =  0 Multiplicity = 1

                         Standard orientation:
 ---------------------------------------------------------------------
 Center     Atomic      Atomic             Coordinates (Angstroms)
 Number     Number       Type             X           Y           Z
 ---------------------------------------------------------------------
      1         12           0       -5.529512    0.834023   -0.029339
      2          6           0       -4.015949   -2.281905    0.018257
      3          6           0       -2.456933    2.275411   -0.041595
      4          6           0       -7.117099    3.600787    0.326161
      5          6           0       -8.702660   -0.883616    0.321958
      6          7           0       -3.474173    0.034609    0.053802
      7          6           0       -3.076787   -1.277804   -0.198709
      8          6           0       -1.635021   -1.382965   -0.476112
      9          6           0       -1.135709    0.072110   -0.123325
     10          6           0       -2.432639    0.871049    0.010809
     11          6           0       -0.179116    0.193107    1.122878
     12          6           0       -1.275613   -1.987304   -1.839793
     13          6           0       -0.211824   -3.154916   -1.974121
     14          6           0        0.817603   -3.159723   -0.805414
     15          8           0        0.712697   -3.552710    0.330121
     16          8           0        2.007199   -2.752361   -1.340511
     17          7           0       -4.910317    2.729870    0.112752
     18          6           0       -3.591411    3.128596   -0.023691
     19          6           0       -3.564244    4.523134   -0.012092
     20          6           0       -4.929385    4.975322    0.109364
     21          6           0       -5.730939    3.796902    0.212757
     22          6           0       -2.254596    5.247346   -0.207797
     23          6           0       -5.408790    6.371869    0.217057
     24          8           0       -6.601218    6.588624    0.434575
     25          6           0       -4.431934    7.574991    0.042190
     26          7           0       -7.603210    1.241183    0.034221
     27          6           0       -8.030365    2.526360    0.305252
     28          6           0       -9.576066    2.656949    0.348403
     29          6           0       -9.962048    1.243175   -0.131946
     30          6           0       -8.692940    0.483500    0.206224
     31          6           0       -9.996136    2.979208    1.815448
     32          6           0      -10.209654    1.157181   -1.654813
     33          6           0      -11.670310    1.183741   -2.125136
     34          7           0       -6.252568   -1.172453    0.334989
     35          6           0       -7.546293   -1.657892    0.466889
     36          6           0       -7.413326   -3.117214    0.544896
     37          6           0       -6.045275   -3.348943    0.423987
     38          6           0       -5.404297   -2.168666    0.325963
     39          6           0       -8.563309   -4.122545    0.810922
     40          6           0       -5.080928   -4.421679    0.441052
     41          8           0       -5.236180   -5.613099    0.544042
     42          6           0       -3.685669   -3.731253    0.121985
     43          6           0       -2.767908   -4.111441    1.241764
     44          8           0       -2.666559   -3.547697    2.359958
     45          8           0       -2.069843   -5.270757    0.882052
     46          6           0       -1.307820   -5.907764    1.893090
     47          6           0        3.252907   -2.940397   -0.642696
     48          6           0        4.310747   -2.435064   -1.534472
     49          6           0        5.606395   -2.678237   -1.427741
     50          6           0        6.356280   -3.299900   -0.198157
     51          6           0        6.540191   -2.488448   -2.659514
     52          6           0        6.982292   -1.023527   -2.896991
     53          6           0        8.481031   -0.867677   -3.148748
     54          6           0        9.127449    0.127997   -2.109914
     55          6           0        9.207421   -0.557028   -0.707560
     56          6           0       10.594639    0.502377   -2.763619
     57          6           0       11.088925    1.924336   -2.379813
     58          6           0       12.632177    2.030198   -2.093695
     59          6           0       12.961206    2.817271   -0.741142
     60          6           0       13.920690    4.036891   -1.030035
     61          6           0       13.528744    1.827953    0.332568
     62          6           0       12.689664    1.890707    1.651540
     63          6           0       12.765849    0.716828    2.645786
     64          6           0       12.388605    1.078346    4.128280
     65          6           0       13.357430    0.360848    5.130351
     66          6           0       10.975632    0.566647    4.490463
     67          1           0       -1.464431    2.716230    0.067087
     68          1           0       -7.544678    4.595890    0.466573
     69          1           0       -9.671847   -1.374396    0.438774
     70          1           0       -1.213540   -1.973441    0.338318
     71          1           0       -0.599197    0.460128   -0.988238
     72          1           0        0.599467    0.903649    0.845562
     73          1           0        0.156897   -0.770596    1.504456
     74          1           0       -0.691361    0.681574    1.951433
     75          1           0       -0.912113   -1.250259   -2.555691
     76          1           0       -2.194177   -2.413820   -2.241096
     77          1           0        0.270034   -2.999197   -2.938491
     78          1           0       -0.693124   -4.131823   -2.028875
     79          1           0       -2.258854    5.752714   -1.172702
     80          1           0       -1.312067    4.700055   -0.228061
     81          1           0       -2.192776    5.917022    0.649951
     82          1           0       -4.322984    7.528313   -1.041214
     83          1           0       -3.464555    7.437161    0.524454
     84          1           0       -5.055112    8.425089    0.319848
     85          1           0       -9.898294    3.460809   -0.313255
     86          1           0      -10.858700    1.000057    0.438516
     87          1           0       -9.799710    4.041968    1.955999
     88          1           0       -9.308150    2.409238    2.440523
     89          1           0      -11.035892    2.731804    2.027127
     90          1           0       -9.891519    0.182205   -2.024423
     91          1           0       -9.512739    1.810498   -2.180925
     92          1           0      -11.871840    2.251597   -2.210871
     93          1           0      -12.161837    0.523871   -1.409683
     94          1           0      -11.624604    0.782317   -3.137519
     95          1           0       -9.394155   -3.591585    0.346144
     96          1           0       -8.683132   -4.244018    1.887335
     97          1           0       -8.341902   -5.071766    0.325280
     98          1           0       -3.323632   -4.045339   -0.857971
     99          1           0       -1.249680   -5.420945    2.866068
    100          1           0       -0.353695   -6.168825    1.434986
    101          1           0       -1.758419   -6.898121    1.958613
    102          1           0        3.520431   -3.939503   -0.298919
    103          1           0        3.155867   -2.430362    0.316450
    104          1           0        4.179709   -2.240090   -2.599111
    105          1           0        6.421428   -4.345714   -0.499974
    106          1           0        5.682623   -3.305670    0.657815
    107          1           0        7.227762   -2.713319    0.092562
    108          1           0        5.998032   -2.864022   -3.527029
    109          1           0        7.407839   -3.142983   -2.577893
    110          1           0        6.583563   -0.393912   -2.102528
    111          1           0        6.406317   -0.861965   -3.808189
    112          1           0        8.443866   -0.339094   -4.101036
    113          1           0        9.082646   -1.776354   -3.179725
    114          1           0        8.488567    1.009130   -2.046357
    115          1           0        9.214455   -1.619376   -0.952752
    116          1           0        8.253131   -0.394092   -0.205747
    117          1           0       10.102831   -0.347355   -0.122854
    118          1           0       10.611345    0.328112   -3.839625
    119          1           0       11.307844   -0.250727   -2.428611
    120          1           0       10.549944    2.325193   -1.521133
    121          1           0       11.003190    2.460346   -3.324627
    122          1           0       13.120522    2.604894   -2.880990
    123          1           0       13.069820    1.040282   -1.969162
    124          1           0       12.065453    3.319180   -0.374374
    125          1           0       14.571496    3.840590   -1.882278
    126          1           0       14.502713    4.251316   -0.133765
    127          1           0       13.257974    4.896890   -1.120693
    128          1           0       14.527650    2.193551    0.573533
    129          1           0       13.457640    0.780526    0.038419
    130          1           0       11.646517    2.021564    1.362716
    131          1           0       12.883857    2.826121    2.174107
    132          1           0       13.747979    0.251925    2.558830
    133          1           0       12.075096   -0.024737    2.245070
    134          1           0       12.438565    2.154653    4.293931
    135          1           0       14.115595    1.017798    5.556561
    136          1           0       13.805647   -0.514120    4.657625
    137          1           0       12.863385   -0.142450    5.962187
    138          1           0       10.562783    1.246306    5.234963
    139          1           0       10.968613   -0.383692    5.026160
    140          1           0       10.279549    0.435003    3.662345
 ---------------------------------------------------------------------

 SCF Done:  E(RZINDO/S) =  -474.428970907     A.U. after   20 cycles

 Excitation energies and oscillator strengths:

 Excited State   1:      Singlet-A      1.2121 eV 1022.90 nm  f=0.5999  <S**2>=0.000
     175 ->178         0.18595
     176 ->177         0.66319
 This state for optimization and/or second-order correction.
 Total Energy, E(CIS/TDA) =  -474.384427450
 Copying the excited state density for this state as the 1-particle RhoCI density.

 Excited State   2:      Singlet-A      1.8918 eV  655.37 nm  f=0.1127  <S**2>=0.000
     175 ->177         0.58568
     176 ->178        -0.36524

 Excited State   3:      Singlet-A      2.9698 eV  417.49 nm  f=0.0011  <S**2>=0.000
     168 ->177         0.20338
     168 ->179        -0.23722
     168 ->180         0.13186
     168 ->186        -0.11051
     169 ->177         0.17199
     169 ->179        -0.30579
     169 ->186        -0.15903
     170 ->177         0.21614
     170 ->180         0.17052

 Excited State   4:      Singlet-A      2.9791 eV  416.19 nm  f=0.0062  <S**2>=0.000
     168 ->179        -0.11869
     169 ->177         0.22376
     169 ->180         0.20519
     169 ->187         0.10504
     170 ->177        -0.22423
     170 ->179        -0.30431
     170 ->180        -0.26007
     170 ->186        -0.20555
     170 ->187        -0.12833

 Excited State   5:      Singlet-A      3.0767 eV  402.98 nm  f=0.8766  <S**2>=0.000
     171 ->177        -0.11046
     173 ->177        -0.14368
     175 ->177         0.30523
     176 ->178         0.54692
     176 ->179         0.19338

 The electronic state is 1-A.
 Alpha  occ. eigenvalues --   -1.86682  -1.83567  -1.82183  -1.74412  -1.72536
 Alpha  occ. eigenvalues --   -1.70810  -1.62722  -1.59915  -1.59400  -1.57931
 Alpha  occ. eigenvalues --   -1.54262  -1.51533  -1.49519  -1.47786  -1.46666
 Alpha  occ. eigenvalues --   -1.43626  -1.42513  -1.40462  -1.39367  -1.38992
 Alpha  occ. eigenvalues --   -1.35880  -1.33191  -1.32866  -1.31912  -1.29592
 Alpha  occ. eigenvalues --   -1.27723  -1.24974  -1.22301  -1.20593  -1.18521
 Alpha  occ. eigenvalues --   -1.16914  -1.15317  -1.14883  -1.13526  -1.13218
 Alpha  occ. eigenvalues --   -1.12518  -1.11674  -1.10214  -1.04717  -1.03090
 Alpha  occ. eigenvalues --   -1.02785  -1.01302  -0.98975  -0.97191  -0.96218
 Alpha  occ. eigenvalues --   -0.94182  -0.93620  -0.93229  -0.92671  -0.91609
 Alpha  occ. eigenvalues --   -0.90682  -0.90263  -0.88331  -0.88049  -0.87325
 Alpha  occ. eigenvalues --   -0.86208  -0.85875  -0.83258  -0.82102  -0.80011
 Alpha  occ. eigenvalues --   -0.79101  -0.78834  -0.77091  -0.76122  -0.75646
 Alpha  occ. eigenvalues --   -0.75534  -0.74410  -0.73971  -0.73912  -0.73006
 Alpha  occ. eigenvalues --   -0.72463  -0.71652  -0.71473  -0.70866  -0.70587
 Alpha  occ. eigenvalues --   -0.70249  -0.69805  -0.68879  -0.68442  -0.68073
 Alpha  occ. eigenvalues --   -0.67367  -0.67140  -0.65904  -0.65652  -0.65492
 Alpha  occ. eigenvalues --   -0.65177  -0.64376  -0.63759  -0.63513  -0.63421
 Alpha  occ. eigenvalues --   -0.63119  -0.62737  -0.62467  -0.62194  -0.61929
 Alpha  occ. eigenvalues --   -0.60881  -0.60830  -0.60800  -0.60197  -0.59599
 Alpha  occ. eigenvalues --   -0.59518  -0.59255  -0.58918  -0.58385  -0.58366
 Alpha  occ. eigenvalues --   -0.57948  -0.57854  -0.57603  -0.57447  -0.57071
 Alpha  occ. eigenvalues --   -0.56583  -0.55082  -0.54850  -0.54773  -0.54564
 Alpha  occ. eigenvalues --   -0.54313  -0.53860  -0.53169  -0.52562  -0.52453
 Alpha  occ. eigenvalues --   -0.52122  -0.51957  -0.51569  -0.51399  -0.51147
 Alpha  occ. eigenvalues --   -0.51115  -0.50720  -0.50047  -0.49933  -0.49359
 Alpha  occ. eigenvalues --   -0.49293  -0.49170  -0.48934  -0.48633  -0.48338
 Alpha  occ. eigenvalues --   -0.48209  -0.47989  -0.47855  -0.47773  -0.47718
 Alpha  occ. eigenvalues --   -0.47623  -0.47335  -0.47072  -0.46982  -0.46852
 Alpha  occ. eigenvalues --   -0.46054  -0.45740  -0.45653  -0.45409  -0.45182
 Alpha  occ. eigenvalues --   -0.44968  -0.44553  -0.44479  -0.44164  -0.43968
 Alpha  occ. eigenvalues --   -0.43510  -0.43050  -0.42810  -0.42695  -0.42452
 Alpha  occ. eigenvalues --   -0.42199  -0.40884  -0.39967  -0.39098  -0.38495
 Alpha  occ. eigenvalues --   -0.38082  -0.36364  -0.34787  -0.34503  -0.34157
 Alpha  occ. eigenvalues --   -0.32703  -0.32393  -0.32139  -0.31789  -0.26115
 Alpha  occ. eigenvalues --   -0.21651
 Alpha virt. eigenvalues --   -0.08596  -0.01320  -0.00043   0.01568   0.02012
 Alpha virt. eigenvalues --    0.02849   0.03139   0.03637   0.04485   0.05450
 Alpha virt. eigenvalues --    0.06687   0.07613   0.08052   0.08369   0.08512

 Mulliken charges:
               1
     1  Mg   0.420812
     2  C   -0.041596
     3  C   -0.081252
     4  C   -0.069375
     5  C   -0.069333
     6  N   -0.281122
     7  C    0.123924
     8  C    0.010811
     9  C   -0.000756
    10  C    0.133327
    11  C   -0.051093
    12  C   -0.018635
    13  C    0.002787
    14  C    0.469313
    15  O   -0.504237
    16  O   -0.280721
    17  N   -0.328624
    18  C    0.095521
    19  C    0.005914
    20  C   -0.050222
    21  C    0.153218
    22  C   -0.045294
    23  C    0.315742
    24  O   -0.540700
    25  C   -0.042297
    26  N   -0.272411
    27  C    0.133413
    28  C    0.003383
    29  C    0.006434
    30  C    0.148671
    31  C   -0.051369
    32  C   -0.034129
    33  C   -0.063996
    34  N   -0.327180
    35  C    0.094207
    36  C    0.014433
    37  C   -0.041131
    38  C    0.133412
    39  C   -0.043181
    40  C    0.332480
    41  O   -0.508488
    42  C    0.055601
    43  C    0.486735
    44  O   -0.529871
    45  O   -0.263808
    46  C    0.076655
    47  C    0.119640
    48  C   -0.102609
    49  C   -0.010524
    50  C   -0.055376
    51  C   -0.030406
    52  C   -0.034158
    53  C   -0.035769
    54  C   -0.024120
    55  C   -0.059691
    56  C   -0.047115
    57  C   -0.042325
    58  C   -0.047432
    59  C   -0.028572
    60  C   -0.064154
    61  C   -0.036328
    62  C   -0.044778
    63  C   -0.032246
    64  C   -0.004872
    65  C   -0.061942
    66  C   -0.056148
    67  H    0.029158
    68  H    0.033401
    69  H    0.027650
    70  H    0.050407
    71  H    0.018473
    72  H    0.019016
    73  H    0.040835
    74  H    0.021576
    75  H    0.025884
    76  H    0.019257
    77  H    0.035127
    78  H    0.043917
    79  H    0.027623
    80  H    0.026406
    81  H    0.027899
    82  H    0.037681
    83  H    0.045507
    84  H    0.046137
    85  H    0.034664
    86  H    0.025423
    87  H    0.026467
    88  H    0.026577
    89  H    0.023806
    90  H    0.007010
    91  H    0.025982
    92  H    0.030494
    93  H    0.038604
    94  H    0.019295
    95  H    0.025000
    96  H    0.042197
    97  H    0.038960
    98  H    0.053504
    99  H    0.064299
   100  H    0.032519
   101  H    0.026794
   102  H    0.051865
   103  H    0.044358
   104  H    0.034214
   105  H    0.039499
   106  H    0.012969
   107  H    0.040279
   108  H    0.017493
   109  H    0.016457
   110  H    0.029723
   111  H    0.016667
   112  H    0.012643
   113  H    0.035395
   114  H    0.025459
   115  H    0.014210
   116  H    0.022723
   117  H    0.029876
   118  H    0.021429
   119  H    0.014227
   120  H    0.034773
   121  H    0.021315
   122  H    0.021763
   123  H    0.025393
   124  H    0.023342
   125  H    0.028933
   126  H    0.014498
   127  H    0.018328
   128  H    0.025637
   129  H    0.028004
   130  H    0.010059
   131  H    0.012547
   132  H    0.018139
   133  H    0.015996
   134  H    0.029541
   135  H    0.018923
   136  H    0.016427
   137  H    0.015345
   138  H    0.011755
   139  H    0.017426
   140  H    0.017775
 Sum of Mulliken charges =  -0.00000

 Dipole moment (field-independent basis, Debye):
    X=              5.2906    Y=              1.3282    Z=             -6.6102  Tot=              8.5703
 N-N= 4.287576170511D+03 E-N= 0.000000000000D+00  KE=-9.250354502083D+03
 Leave Link  601 at Sat Apr 30 09:01:34 2022, MaxMem=  6710886400 cpu:               0.8 elap:               0.0
 (Enter /sw/apps/gaussian-16.0/g16/l9999.exe)
 1\1\GINC-BP1-COMPUTE150\SP\RZINDO CIS\STO-3G\C55H74Mg1N4O6\OF15641\30-
 Apr-2022\0\\#p ZINDO=(nstates=5)\\step_651_chromophore_3 ZINDO\\0,1\Mg
 ,0,2.056,8.008,26.355\C,0,2.087,9.788,29.327\C,0,2.508,5.144,28.119\C,
 0,2.393,6.607,23.487\C,0,1.91,11.197,24.637\N,0,2.336,7.571,28.5\C,0,2
 .05,8.418,29.57\C,0,1.943,7.692,30.846\C,0,2.446,6.253,30.437\C,0,2.47
 3,6.306,28.909\C,0,3.804,5.784,31.084\C,0,0.597,7.837,31.568\C,0,0.518
 ,8.217,33.105\C,0,1.8,7.804,33.887\O,0,2.887,8.324,33.941\O,0,1.44,6.7

 Normal termination of Gaussian 16 at Sat Apr 30 09:01:35 2022.
