 Gaussian 16, Revision A.03,
 Gaussian 16:  ES64L-G16RevA.03 25-Dec-2016

 ------------------------------
 #p blyp/Def2SVP td=(nstates=5)
 ------------------------------

 ---------------------------------------------------
 step_1401_chromophore_24 TDDFT with blyp functional
 ---------------------------------------------------
 Symbolic Z-matrix:
 Charge =  0 Multiplicity = 1

                         Standard orientation:
 ---------------------------------------------------------------------
 Center     Atomic      Atomic             Coordinates (Angstroms)
 Number     Number       Type             X           Y           Z
 ---------------------------------------------------------------------
      1         12           0        5.329466    1.072343    0.173297
      2          6           0        4.769466   -2.382394   -0.130418
      3          6           0        1.852227    1.567371    0.145050
      4          6           0        5.678893    4.397331   -0.027234
      5          6           0        8.704844    0.563624    0.108347
      6          7           0        3.630952   -0.266767    0.067054
      7          6           0        3.596896   -1.592057    0.091942
      8          6           0        2.166665   -2.163520    0.197511
      9          6           0        1.315148   -0.951214   -0.113359
     10          6           0        2.303070    0.183776    0.116571
     11          6           0        0.684090   -0.894192   -1.554470
     12          6           0        1.747069   -2.745584    1.603132
     13          6           0        0.294320   -3.292567    1.768699
     14          6           0       -0.382963   -3.718377    0.381904
     15          8           0       -0.074964   -4.699498   -0.296039
     16          8           0       -1.433200   -2.839445    0.062871
     17          7           0        3.937128    2.766507   -0.024735
     18          6           0        2.560176    2.735728   -0.012589
     19          6           0        2.002367    4.093145   -0.028808
     20          6           0        3.128590    4.960573   -0.128873
     21          6           0        4.315899    4.083324   -0.078396
     22          6           0        0.543287    4.375531   -0.112994
     23          6           0        3.111168    6.445560   -0.255491
     24          8           0        4.146243    7.081687   -0.171019
     25          6           0        1.804741    7.197235   -0.401477
     26          7           0        6.935342    2.290860   -0.018589
     27          6           0        6.820735    3.649762   -0.036632
     28          6           0        8.227652    4.174803   -0.228198
     29          6           0        9.170367    3.040597    0.058499
     30          6           0        8.226035    1.886345   -0.025240
     31          6           0        8.292049    4.754419   -1.696428
     32          6           0        9.929306    3.119926    1.401301
     33          6           0        9.135077    3.055125    2.709077
     34          7           0        6.535484   -0.569694   -0.027083
     35          6           0        7.926347   -0.655440    0.012321
     36          6           0        8.344647   -2.073764   -0.283031
     37          6           0        7.104076   -2.746636   -0.251862
     38          6           0        6.058913   -1.791486   -0.028797
     39          6           0        9.664318   -2.649023   -0.634792
     40          6           0        6.504719   -4.007681   -0.450550
     41          8           0        6.996382   -5.112705   -0.800864
     42          6           0        5.030103   -3.888827   -0.169363
     43          6           0        4.233955   -4.465436   -1.227310
     44          8           0        4.285718   -4.178807   -2.409380
     45          8           0        3.575710   -5.520640   -0.632115
     46          6           0        2.929227   -6.392063   -1.606539
     47          6           0       -2.283399   -3.352646   -1.105620
     48          6           0       -3.725819   -3.041652   -0.720955
     49          6           0       -4.491722   -3.768364    0.150258
     50          6           0       -3.828968   -4.832261    1.054262
     51          6           0       -5.819009   -3.216862    0.638076
     52          6           0       -5.751815   -2.280889    1.870954
     53          6           0       -6.222799   -0.849759    1.538732
     54          6           0       -7.732582   -0.583125    1.857462
     55          6           0       -7.871151    0.012887    3.276697
     56          6           0       -8.446008    0.349925    0.875590
     57          6           0       -9.610448   -0.272133    0.140148
     58          6           0      -10.853665   -0.196167    1.027187
     59          6           0      -11.970873    0.866068    0.537774
     60          6           0      -12.456016    1.675231    1.763468
     61          6           0      -13.130815    0.109736   -0.128276
     62          6           0      -13.520022    0.634265   -1.518645
     63          6           0      -15.007428    1.136507   -1.600446
     64          6           0      -15.165308    2.660500   -1.399644
     65          6           0      -16.651749    3.034854   -1.148356
     66          6           0      -14.637048    3.431591   -2.706685
     67          1           0        0.760687    1.595958    0.152287
     68          1           0        5.910759    5.449848   -0.202117
     69          1           0        9.786085    0.415112    0.145359
     70          1           0        2.003412   -2.935990   -0.554123
     71          1           0        0.577159   -0.746999    0.662725
     72          1           0        1.132801   -0.108296   -2.161793
     73          1           0       -0.396197   -0.755903   -1.518650
     74          1           0        0.982935   -1.829303   -2.028945
     75          1           0        1.952129   -2.015334    2.386050
     76          1           0        2.418920   -3.534928    1.938258
     77          1           0       -0.322617   -2.635668    2.381811
     78          1           0        0.270583   -4.169741    2.415389
     79          1           0        0.034501    4.452511    0.847945
     80          1           0        0.178227    3.486696   -0.626328
     81          1           0        0.313819    5.092802   -0.901627
     82          1           0        1.035526    6.954727    0.332083
     83          1           0        1.413207    6.932718   -1.384204
     84          1           0        1.997894    8.267808   -0.334577
     85          1           0        8.330009    5.003379    0.471738
     86          1           0        9.873519    2.858431   -0.753823
     87          1           0        8.887448    4.106398   -2.339646
     88          1           0        8.718868    5.756630   -1.651427
     89          1           0        7.269909    4.708447   -2.071925
     90          1           0       10.435046    4.079042    1.289546
     91          1           0       10.636799    2.290836    1.412322
     92          1           0        9.744383    2.418121    3.349206
     93          1           0        8.078348    2.788113    2.684265
     94          1           0        9.262001    4.005150    3.226858
     95          1           0       10.224446   -1.934734   -1.238701
     96          1           0        9.522330   -3.621777   -1.105450
     97          1           0       10.208863   -2.798327    0.297414
     98          1           0        4.832723   -4.257353    0.836930
     99          1           0        2.615722   -7.297234   -1.087164
    100          1           0        3.661565   -6.584137   -2.389948
    101          1           0        2.068814   -5.861076   -2.014891
    102          1           0       -2.215448   -4.394287   -1.420327
    103          1           0       -2.118799   -2.751752   -1.999617
    104          1           0       -4.146263   -2.102756   -1.082814
    105          1           0       -3.956773   -5.834337    0.645426
    106          1           0       -4.512556   -4.794694    1.902325
    107          1           0       -2.817242   -4.608801    1.393285
    108          1           0       -6.514243   -4.052304    0.709605
    109          1           0       -6.216933   -2.693755   -0.231595
    110          1           0       -4.790488   -2.221208    2.380392
    111          1           0       -6.377185   -2.726652    2.644561
    112          1           0       -6.195743   -0.628282    0.472510
    113          1           0       -5.599393   -0.125306    2.062623
    114          1           0       -8.231668   -1.547068    1.948983
    115          1           0       -8.763733   -0.322758    3.805782
    116          1           0       -7.975749    1.097713    3.272817
    117          1           0       -6.997093   -0.124400    3.913051
    118          1           0       -7.757205    0.872738    0.211758
    119          1           0       -8.749624    1.245930    1.416982
    120          1           0       -9.463633   -1.329558   -0.078484
    121          1           0       -9.855681    0.117781   -0.848432
    122          1           0      -10.612968   -0.049834    2.080278
    123          1           0      -11.171081   -1.235150    0.945096
    124          1           0      -11.455522    1.483821   -0.197892
    125          1           0      -13.491361    2.015834    1.771093
    126          1           0      -11.661547    2.356224    2.069564
    127          1           0      -12.411135    1.011034    2.626159
    128          1           0      -14.026063    0.179709    0.489537
    129          1           0      -12.869228   -0.939654   -0.265809
    130          1           0      -13.373683   -0.202509   -2.201901
    131          1           0      -12.876560    1.405431   -1.939794
    132          1           0      -15.574483    0.570406   -0.861191
    133          1           0      -15.382463    0.923424   -2.601434
    134          1           0      -14.618065    3.047849   -0.539716
    135          1           0      -16.868788    3.312266   -0.116698
    136          1           0      -17.341400    2.202318   -1.284244
    137          1           0      -16.869828    3.936221   -1.721849
    138          1           0      -14.191672    2.661619   -3.337334
    139          1           0      -13.862826    4.119573   -2.367105
    140          1           0      -15.400533    3.940345   -3.295065
 ---------------------------------------------------------------------

 SCF Done:  E(RB-LYP) =  -3007.37362044     A.U. after   22 cycles

 Excitation energies and oscillator strengths:

 Excited State   1:      Singlet-A      1.7677 eV  701.38 nm  f=0.3044  <S**2>=0.000
     245 -> 248       -0.19451
     246 -> 247        0.69151
     246 <- 247       -0.15584
 This state for optimization and/or second-order correction.
 Total Energy, E(TD-HF/TD-DFT) =  -3007.30865818
 Copying the excited state density for this state as the 1-particle RhoCI density.

 Excited State   2:      Singlet-A      1.8271 eV  678.58 nm  f=0.0030  <S**2>=0.000
     244 -> 247        0.68465
     245 -> 247        0.17060

 Excited State   3:      Singlet-A      1.9859 eV  624.34 nm  f=0.0467  <S**2>=0.000
     243 -> 247        0.33608
     244 -> 247       -0.15332
     245 -> 247        0.54829
     246 -> 248        0.23152

 Excited State   4:      Singlet-A      2.0133 eV  615.81 nm  f=0.0165  <S**2>=0.000
     243 -> 247        0.62087
     245 -> 247       -0.29390
     246 -> 248       -0.13273

 Excited State   5:      Singlet-A      2.5871 eV  479.24 nm  f=0.0004  <S**2>=0.000
     240 -> 247        0.53964
     241 -> 247        0.11628
     242 -> 247       -0.43131

 The electronic state is 1-A.
 Alpha  occ. eigenvalues --  -46.26486 -18.83278 -18.80997 -18.78430 -18.76266
 Alpha  occ. eigenvalues --  -18.75298 -18.74496 -14.03732 -14.02588 -14.00802
 Alpha  occ. eigenvalues --  -14.00782 -10.05612 -10.02661  -9.99536  -9.98353
 Alpha  occ. eigenvalues --   -9.98307  -9.96697  -9.96680  -9.96109  -9.96002
 Alpha  occ. eigenvalues --   -9.95946  -9.95655  -9.95645  -9.95091  -9.95022
 Alpha  occ. eigenvalues --   -9.94099  -9.94051  -9.94037  -9.93975  -9.93874
 Alpha  occ. eigenvalues --   -9.93632  -9.93556  -9.93365  -9.93143  -9.92889
 Alpha  occ. eigenvalues --   -9.92873  -9.92861  -9.92838  -9.92816  -9.92734
 Alpha  occ. eigenvalues --   -9.92682  -9.92653  -9.92585  -9.92488  -9.92395
 Alpha  occ. eigenvalues --   -9.92319  -9.92287  -9.92233  -9.92211  -9.92109
 Alpha  occ. eigenvalues --   -9.91910  -9.91908  -9.91872  -9.91804  -9.91301
 Alpha  occ. eigenvalues --   -9.91289  -9.91244  -9.91141  -9.91090  -9.91041
 Alpha  occ. eigenvalues --   -9.90992  -9.90940  -9.90867  -9.90853  -9.90582
 Alpha  occ. eigenvalues --   -9.90493  -2.91252  -1.71686  -1.71079  -1.71010
 Alpha  occ. eigenvalues --   -0.97021  -0.96874  -0.91715  -0.89910  -0.89613
 Alpha  occ. eigenvalues --   -0.88659  -0.86898  -0.86477  -0.85630  -0.84625
 Alpha  occ. eigenvalues --   -0.75418  -0.74074  -0.73169  -0.72932  -0.72658
 Alpha  occ. eigenvalues --   -0.72086  -0.71829  -0.70646  -0.70605  -0.70510
 Alpha  occ. eigenvalues --   -0.69824  -0.68921  -0.68321  -0.67272  -0.66949
 Alpha  occ. eigenvalues --   -0.66475  -0.65709  -0.65128  -0.64988  -0.64351
 Alpha  occ. eigenvalues --   -0.64119  -0.62728  -0.62304  -0.61892  -0.60734
 Alpha  occ. eigenvalues --   -0.60238  -0.59866  -0.59712  -0.59561  -0.59024
 Alpha  occ. eigenvalues --   -0.58098  -0.57329  -0.56751  -0.55930  -0.55067
 Alpha  occ. eigenvalues --   -0.54189  -0.53831  -0.53115  -0.52882  -0.51573
 Alpha  occ. eigenvalues --   -0.51290  -0.50826  -0.50530  -0.50221  -0.50125
 Alpha  occ. eigenvalues --   -0.49697  -0.49532  -0.48599  -0.47591  -0.46625
 Alpha  occ. eigenvalues --   -0.46477  -0.45878  -0.45614  -0.45073  -0.44595
 Alpha  occ. eigenvalues --   -0.44056  -0.43495  -0.42925  -0.42569  -0.42315
 Alpha  occ. eigenvalues --   -0.41865  -0.41697  -0.41612  -0.41468  -0.41165
 Alpha  occ. eigenvalues --   -0.40768  -0.40613  -0.40415  -0.40307  -0.39875
 Alpha  occ. eigenvalues --   -0.39846  -0.39706  -0.39567  -0.39247  -0.39079
 Alpha  occ. eigenvalues --   -0.38866  -0.38549  -0.38322  -0.38217  -0.38142
 Alpha  occ. eigenvalues --   -0.38098  -0.37902  -0.37728  -0.37498  -0.37330
 Alpha  occ. eigenvalues --   -0.36984  -0.36839  -0.36736  -0.36678  -0.36491
 Alpha  occ. eigenvalues --   -0.36301  -0.36103  -0.35889  -0.35595  -0.35536
 Alpha  occ. eigenvalues --   -0.35326  -0.35193  -0.34925  -0.34803  -0.34658
 Alpha  occ. eigenvalues --   -0.34441  -0.34370  -0.34184  -0.34013  -0.33934
 Alpha  occ. eigenvalues --   -0.33850  -0.33610  -0.33529  -0.33333  -0.33066
 Alpha  occ. eigenvalues --   -0.32840  -0.32709  -0.32535  -0.32105  -0.31928
 Alpha  occ. eigenvalues --   -0.31840  -0.31731  -0.31556  -0.31460  -0.31383
 Alpha  occ. eigenvalues --   -0.31236  -0.30804  -0.30760  -0.30716  -0.30655
 Alpha  occ. eigenvalues --   -0.30460  -0.30348  -0.30201  -0.29741  -0.29704
 Alpha  occ. eigenvalues --   -0.29561  -0.29446  -0.29417  -0.29148  -0.29097
 Alpha  occ. eigenvalues --   -0.28679  -0.28502  -0.28303  -0.28281  -0.27927
 Alpha  occ. eigenvalues --   -0.27708  -0.27618  -0.27158  -0.26840  -0.26511
 Alpha  occ. eigenvalues --   -0.26346  -0.26216  -0.26050  -0.25765  -0.25729
 Alpha  occ. eigenvalues --   -0.25519  -0.25407  -0.24301  -0.23822  -0.23738
 Alpha  occ. eigenvalues --   -0.23384  -0.23209  -0.21891  -0.21574  -0.20824
 Alpha  occ. eigenvalues --   -0.20570  -0.20269  -0.18572  -0.17891  -0.17074
 Alpha  occ. eigenvalues --   -0.15392
 Alpha virt. eigenvalues --   -0.11286  -0.06805  -0.06165  -0.04659  -0.04554
 Alpha virt. eigenvalues --   -0.03876  -0.02349  -0.01734  -0.01324   0.00171
 Alpha virt. eigenvalues --    0.01505   0.01740   0.02146   0.02519   0.02785

 Mulliken charges:
               1
     1  Mg   0.699498
     2  C   -0.106545
     3  C   -0.070636
     4  C   -0.037170
     5  C   -0.079310
     6  N   -0.203767
     7  C   -0.014788
     8  C    0.002726
     9  C   -0.009069
    10  C   -0.037266
    11  C    0.150787
    12  C    0.107107
    13  C    0.134585
    14  C    0.110774
    15  O   -0.190790
    16  O   -0.298618
    17  N   -0.249901
    18  C    0.155885
    19  C   -0.163700
    20  C    0.080712
    21  C    0.078739
    22  C    0.188098
    23  C   -0.104455
    24  O   -0.155502
    25  C    0.119660
    26  N   -0.257618
    27  C    0.004759
    28  C   -0.000088
    29  C    0.081711
    30  C    0.021600
    31  C    0.139317
    32  C    0.075732
    33  C    0.083054
    34  N   -0.269478
    35  C    0.094853
    36  C   -0.174788
    37  C    0.087162
    38  C    0.087942
    39  C    0.189555
    40  C   -0.079802
    41  O   -0.181774
    42  C    0.197548
    43  C    0.096052
    44  O   -0.172814
    45  O   -0.278833
    46  C    0.229599
    47  C    0.320938
    48  C   -0.128478
    49  C   -0.167440
    50  C    0.145316
    51  C    0.127484
    52  C    0.114784
    53  C    0.109922
    54  C   -0.074774
    55  C    0.086944
    56  C    0.141131
    57  C    0.088824
    58  C    0.055010
    59  C   -0.050549
    60  C    0.114194
    61  C    0.140433
    62  C    0.059709
    63  C    0.085745
    64  C   -0.103447
    65  C    0.108857
    66  C    0.086377
    67  H   -0.068612
    68  H   -0.047677
    69  H   -0.061557
    70  H    0.008671
    71  H   -0.024934
    72  H   -0.004651
    73  H    0.006107
    74  H   -0.005656
    75  H   -0.031685
    76  H   -0.019325
    77  H   -0.014801
    78  H   -0.005083
    79  H    0.016387
    80  H   -0.020384
    81  H   -0.011040
    82  H    0.010782
    83  H    0.009863
    84  H   -0.009273
    85  H   -0.031754
    86  H   -0.041630
    87  H   -0.016867
    88  H    0.005112
    89  H    0.002473
    90  H   -0.016695
    91  H   -0.018444
    92  H   -0.016987
    93  H    0.022969
    94  H   -0.019356
    95  H   -0.003634
    96  H    0.017530
    97  H   -0.001910
    98  H    0.007292
    99  H    0.009843
   100  H    0.015917
   101  H    0.011894
   102  H    0.022088
   103  H   -0.005815
   104  H   -0.035393
   105  H    0.003839
   106  H   -0.023950
   107  H    0.011237
   108  H   -0.031705
   109  H   -0.027757
   110  H   -0.024652
   111  H   -0.027932
   112  H   -0.030088
   113  H   -0.035279
   114  H   -0.035864
   115  H   -0.009404
   116  H   -0.027329
   117  H   -0.029322
   118  H   -0.056083
   119  H   -0.046760
   120  H   -0.040661
   121  H   -0.039897
   122  H   -0.035826
   123  H   -0.042483
   124  H   -0.030085
   125  H   -0.002952
   126  H   -0.021801
   127  H   -0.032254
   128  H   -0.037529
   129  H   -0.034833
   130  H   -0.044720
   131  H   -0.034847
   132  H   -0.029687
   133  H   -0.033461
   134  H   -0.027218
   135  H   -0.029512
   136  H   -0.016256
   137  H   -0.019202
   138  H   -0.013809
   139  H   -0.009748
   140  H   -0.007655
 Sum of Mulliken charges =  -0.00000

 Dipole moment (field-independent basis, Debye):
    X=             -4.8146    Y=              2.0040    Z=              3.5234  Tot=              6.2937
 Quadrupole moment (field-independent basis, Debye-Ang):
   XX=           -391.2618   YY=           -441.0573   ZZ=           -404.4540
   XY=             30.0556   XZ=             14.1728   YZ=            -12.8171

 Normal termination of Gaussian 16 at Wed May  4 06:25:30 2022.
