 Gaussian 16, Revision A.03,
 Gaussian 16:  ES64L-G16RevA.03 25-Dec-2016

 -----------------------------------
 #p cam-b3lyp/Def2SVP td=(nstates=5)
 -----------------------------------

 --------------------------------------------------------
 step_1401_chromophore_24 TDDFT with cam-b3lyp functional
 --------------------------------------------------------
 Symbolic Z-matrix:
 Charge =  0 Multiplicity = 1

                         Standard orientation:
 ---------------------------------------------------------------------
 Center     Atomic      Atomic             Coordinates (Angstroms)
 Number     Number       Type             X           Y           Z
 ---------------------------------------------------------------------
      1         12           0        5.329466    1.072343    0.173297
      2          6           0        4.769466   -2.382394   -0.130418
      3          6           0        1.852227    1.567371    0.145050
      4          6           0        5.678893    4.397331   -0.027234
      5          6           0        8.704844    0.563624    0.108347
      6          7           0        3.630952   -0.266767    0.067054
      7          6           0        3.596896   -1.592057    0.091942
      8          6           0        2.166665   -2.163520    0.197511
      9          6           0        1.315148   -0.951214   -0.113359
     10          6           0        2.303070    0.183776    0.116571
     11          6           0        0.684090   -0.894192   -1.554470
     12          6           0        1.747069   -2.745584    1.603132
     13          6           0        0.294320   -3.292567    1.768699
     14          6           0       -0.382963   -3.718377    0.381904
     15          8           0       -0.074964   -4.699498   -0.296039
     16          8           0       -1.433200   -2.839445    0.062871
     17          7           0        3.937128    2.766507   -0.024735
     18          6           0        2.560176    2.735728   -0.012589
     19          6           0        2.002367    4.093145   -0.028808
     20          6           0        3.128590    4.960573   -0.128873
     21          6           0        4.315899    4.083324   -0.078396
     22          6           0        0.543287    4.375531   -0.112994
     23          6           0        3.111168    6.445560   -0.255491
     24          8           0        4.146243    7.081687   -0.171019
     25          6           0        1.804741    7.197235   -0.401477
     26          7           0        6.935342    2.290860   -0.018589
     27          6           0        6.820735    3.649762   -0.036632
     28          6           0        8.227652    4.174803   -0.228198
     29          6           0        9.170367    3.040597    0.058499
     30          6           0        8.226035    1.886345   -0.025240
     31          6           0        8.292049    4.754419   -1.696428
     32          6           0        9.929306    3.119926    1.401301
     33          6           0        9.135077    3.055125    2.709077
     34          7           0        6.535484   -0.569694   -0.027083
     35          6           0        7.926347   -0.655440    0.012321
     36          6           0        8.344647   -2.073764   -0.283031
     37          6           0        7.104076   -2.746636   -0.251862
     38          6           0        6.058913   -1.791486   -0.028797
     39          6           0        9.664318   -2.649023   -0.634792
     40          6           0        6.504719   -4.007681   -0.450550
     41          8           0        6.996382   -5.112705   -0.800864
     42          6           0        5.030103   -3.888827   -0.169363
     43          6           0        4.233955   -4.465436   -1.227310
     44          8           0        4.285718   -4.178807   -2.409380
     45          8           0        3.575710   -5.520640   -0.632115
     46          6           0        2.929227   -6.392063   -1.606539
     47          6           0       -2.283399   -3.352646   -1.105620
     48          6           0       -3.725819   -3.041652   -0.720955
     49          6           0       -4.491722   -3.768364    0.150258
     50          6           0       -3.828968   -4.832261    1.054262
     51          6           0       -5.819009   -3.216862    0.638076
     52          6           0       -5.751815   -2.280889    1.870954
     53          6           0       -6.222799   -0.849759    1.538732
     54          6           0       -7.732582   -0.583125    1.857462
     55          6           0       -7.871151    0.012887    3.276697
     56          6           0       -8.446008    0.349925    0.875590
     57          6           0       -9.610448   -0.272133    0.140148
     58          6           0      -10.853665   -0.196167    1.027187
     59          6           0      -11.970873    0.866068    0.537774
     60          6           0      -12.456016    1.675231    1.763468
     61          6           0      -13.130815    0.109736   -0.128276
     62          6           0      -13.520022    0.634265   -1.518645
     63          6           0      -15.007428    1.136507   -1.600446
     64          6           0      -15.165308    2.660500   -1.399644
     65          6           0      -16.651749    3.034854   -1.148356
     66          6           0      -14.637048    3.431591   -2.706685
     67          1           0        0.760687    1.595958    0.152287
     68          1           0        5.910759    5.449848   -0.202117
     69          1           0        9.786085    0.415112    0.145359
     70          1           0        2.003412   -2.935990   -0.554123
     71          1           0        0.577159   -0.746999    0.662725
     72          1           0        1.132801   -0.108296   -2.161793
     73          1           0       -0.396197   -0.755903   -1.518650
     74          1           0        0.982935   -1.829303   -2.028945
     75          1           0        1.952129   -2.015334    2.386050
     76          1           0        2.418920   -3.534928    1.938258
     77          1           0       -0.322617   -2.635668    2.381811
     78          1           0        0.270583   -4.169741    2.415389
     79          1           0        0.034501    4.452511    0.847945
     80          1           0        0.178227    3.486696   -0.626328
     81          1           0        0.313819    5.092802   -0.901627
     82          1           0        1.035526    6.954727    0.332083
     83          1           0        1.413207    6.932718   -1.384204
     84          1           0        1.997894    8.267808   -0.334577
     85          1           0        8.330009    5.003379    0.471738
     86          1           0        9.873519    2.858431   -0.753823
     87          1           0        8.887448    4.106398   -2.339646
     88          1           0        8.718868    5.756630   -1.651427
     89          1           0        7.269909    4.708447   -2.071925
     90          1           0       10.435046    4.079042    1.289546
     91          1           0       10.636799    2.290836    1.412322
     92          1           0        9.744383    2.418121    3.349206
     93          1           0        8.078348    2.788113    2.684265
     94          1           0        9.262001    4.005150    3.226858
     95          1           0       10.224446   -1.934734   -1.238701
     96          1           0        9.522330   -3.621777   -1.105450
     97          1           0       10.208863   -2.798327    0.297414
     98          1           0        4.832723   -4.257353    0.836930
     99          1           0        2.615722   -7.297234   -1.087164
    100          1           0        3.661565   -6.584137   -2.389948
    101          1           0        2.068814   -5.861076   -2.014891
    102          1           0       -2.215448   -4.394287   -1.420327
    103          1           0       -2.118799   -2.751752   -1.999617
    104          1           0       -4.146263   -2.102756   -1.082814
    105          1           0       -3.956773   -5.834337    0.645426
    106          1           0       -4.512556   -4.794694    1.902325
    107          1           0       -2.817242   -4.608801    1.393285
    108          1           0       -6.514243   -4.052304    0.709605
    109          1           0       -6.216933   -2.693755   -0.231595
    110          1           0       -4.790488   -2.221208    2.380392
    111          1           0       -6.377185   -2.726652    2.644561
    112          1           0       -6.195743   -0.628282    0.472510
    113          1           0       -5.599393   -0.125306    2.062623
    114          1           0       -8.231668   -1.547068    1.948983
    115          1           0       -8.763733   -0.322758    3.805782
    116          1           0       -7.975749    1.097713    3.272817
    117          1           0       -6.997093   -0.124400    3.913051
    118          1           0       -7.757205    0.872738    0.211758
    119          1           0       -8.749624    1.245930    1.416982
    120          1           0       -9.463633   -1.329558   -0.078484
    121          1           0       -9.855681    0.117781   -0.848432
    122          1           0      -10.612968   -0.049834    2.080278
    123          1           0      -11.171081   -1.235150    0.945096
    124          1           0      -11.455522    1.483821   -0.197892
    125          1           0      -13.491361    2.015834    1.771093
    126          1           0      -11.661547    2.356224    2.069564
    127          1           0      -12.411135    1.011034    2.626159
    128          1           0      -14.026063    0.179709    0.489537
    129          1           0      -12.869228   -0.939654   -0.265809
    130          1           0      -13.373683   -0.202509   -2.201901
    131          1           0      -12.876560    1.405431   -1.939794
    132          1           0      -15.574483    0.570406   -0.861191
    133          1           0      -15.382463    0.923424   -2.601434
    134          1           0      -14.618065    3.047849   -0.539716
    135          1           0      -16.868788    3.312266   -0.116698
    136          1           0      -17.341400    2.202318   -1.284244
    137          1           0      -16.869828    3.936221   -1.721849
    138          1           0      -14.191672    2.661619   -3.337334
    139          1           0      -13.862826    4.119573   -2.367105
    140          1           0      -15.400533    3.940345   -3.295065
 ---------------------------------------------------------------------

 SCF Done:  E(RCAM-B3LYP) =  -3007.16665156     A.U. after   17 cycles

 Excitation energies and oscillator strengths:

 Excited State   1:      Singlet-A      1.6611 eV  746.40 nm  f=0.3826  <S**2>=0.000
     245 -> 248       -0.18404
     246 -> 247        0.68552
     245 <- 248       -0.11050
 This state for optimization and/or second-order correction.
 Total Energy, E(TD-HF/TD-DFT) =  -3007.10560706
 Copying the excited state density for this state as the 1-particle RhoCI density.

 Excited State   2:      Singlet-A      2.2115 eV  560.62 nm  f=0.0764  <S**2>=0.000
     245 -> 247        0.62355
     246 -> 248        0.32496

 Excited State   3:      Singlet-A      3.3483 eV  370.29 nm  f=0.0173  <S**2>=0.000
     242 -> 247        0.52658
     242 -> 249       -0.29810
     242 -> 250       -0.20894
     243 -> 247       -0.15424
     244 -> 247        0.13804

 Excited State   4:      Singlet-A      3.4024 eV  364.40 nm  f=0.6221  <S**2>=0.000
     243 -> 247       -0.19109
     245 -> 247       -0.29692
     246 -> 248        0.59878
     245 <- 247        0.10976

 Excited State   5:      Singlet-A      3.4792 eV  356.36 nm  f=0.0028  <S**2>=0.000
     242 -> 247       -0.14733
     244 -> 247        0.67472

 The electronic state is 1-A.
 Alpha  occ. eigenvalues --  -46.87992 -19.26185 -19.23927 -19.21439 -19.19401
 Alpha  occ. eigenvalues --  -19.18598 -19.17676 -14.42772 -14.41271 -14.39319
 Alpha  occ. eigenvalues --  -14.39216 -10.41098 -10.38135 -10.34767 -10.33639
 Alpha  occ. eigenvalues --  -10.32593 -10.31266 -10.31165 -10.30455 -10.30325
 Alpha  occ. eigenvalues --  -10.30164 -10.30048 -10.29893 -10.29428 -10.29123
 Alpha  occ. eigenvalues --  -10.28670 -10.28502 -10.28288 -10.28146 -10.28062
 Alpha  occ. eigenvalues --  -10.27782 -10.27780 -10.27526 -10.27204 -10.27171
 Alpha  occ. eigenvalues --  -10.27039 -10.26958 -10.26838 -10.26655 -10.26570
 Alpha  occ. eigenvalues --  -10.26433 -10.26386 -10.26376 -10.26178 -10.26106
 Alpha  occ. eigenvalues --  -10.26079 -10.26054 -10.26045 -10.26031 -10.25931
 Alpha  occ. eigenvalues --  -10.25881 -10.25580 -10.25497 -10.25288 -10.25184
 Alpha  occ. eigenvalues --  -10.24985 -10.24871 -10.24781 -10.24701 -10.24681
 Alpha  occ. eigenvalues --  -10.24618 -10.24610 -10.24585 -10.24560 -10.24518
 Alpha  occ. eigenvalues --  -10.24186  -3.16670  -1.91577  -1.91090  -1.91008
 Alpha  occ. eigenvalues --   -1.15465  -1.15435  -1.10219  -1.07701  -1.07646
 Alpha  occ. eigenvalues --   -1.06924  -1.04671  -1.04149  -1.03205  -1.02209
 Alpha  occ. eigenvalues --   -0.92621  -0.90937  -0.89982  -0.89722  -0.89337
 Alpha  occ. eigenvalues --   -0.88794  -0.88486  -0.87398  -0.87176  -0.87089
 Alpha  occ. eigenvalues --   -0.86387  -0.85260  -0.84614  -0.83404  -0.83034
 Alpha  occ. eigenvalues --   -0.82505  -0.81907  -0.81129  -0.80873  -0.80160
 Alpha  occ. eigenvalues --   -0.79960  -0.78561  -0.77950  -0.77349  -0.76078
 Alpha  occ. eigenvalues --   -0.75622  -0.75207  -0.75017  -0.74800  -0.74265
 Alpha  occ. eigenvalues --   -0.73138  -0.72337  -0.71660  -0.70762  -0.69630
 Alpha  occ. eigenvalues --   -0.68784  -0.68507  -0.67568  -0.67427  -0.65845
 Alpha  occ. eigenvalues --   -0.65490  -0.64679  -0.64578  -0.64377  -0.64056
 Alpha  occ. eigenvalues --   -0.63513  -0.63411  -0.62493  -0.61408  -0.60331
 Alpha  occ. eigenvalues --   -0.60163  -0.59386  -0.59106  -0.58524  -0.58252
 Alpha  occ. eigenvalues --   -0.57403  -0.56810  -0.56162  -0.55803  -0.55316
 Alpha  occ. eigenvalues --   -0.54916  -0.54784  -0.54603  -0.54331  -0.53978
 Alpha  occ. eigenvalues --   -0.53846  -0.53472  -0.53195  -0.53150  -0.52636
 Alpha  occ. eigenvalues --   -0.52457  -0.52355  -0.52262  -0.52033  -0.51540
 Alpha  occ. eigenvalues --   -0.51316  -0.51211  -0.50930  -0.50611  -0.50596
 Alpha  occ. eigenvalues --   -0.50417  -0.50163  -0.49955  -0.49838  -0.49481
 Alpha  occ. eigenvalues --   -0.49287  -0.49149  -0.49105  -0.48898  -0.48682
 Alpha  occ. eigenvalues --   -0.48576  -0.48441  -0.48106  -0.47830  -0.47644
 Alpha  occ. eigenvalues --   -0.47451  -0.47335  -0.47172  -0.47080  -0.46612
 Alpha  occ. eigenvalues --   -0.46423  -0.46174  -0.45918  -0.45819  -0.45714
 Alpha  occ. eigenvalues --   -0.45645  -0.45346  -0.45207  -0.45153  -0.44841
 Alpha  occ. eigenvalues --   -0.44666  -0.44400  -0.44348  -0.43888  -0.43555
 Alpha  occ. eigenvalues --   -0.43497  -0.43338  -0.43020  -0.42955  -0.42840
 Alpha  occ. eigenvalues --   -0.42673  -0.42372  -0.42096  -0.42080  -0.42067
 Alpha  occ. eigenvalues --   -0.41944  -0.41797  -0.41427  -0.41333  -0.41229
 Alpha  occ. eigenvalues --   -0.40768  -0.40701  -0.40624  -0.40507  -0.40158
 Alpha  occ. eigenvalues --   -0.39819  -0.39475  -0.39470  -0.39385  -0.38765
 Alpha  occ. eigenvalues --   -0.38650  -0.38509  -0.37970  -0.37607  -0.37537
 Alpha  occ. eigenvalues --   -0.37217  -0.37202  -0.37145  -0.36761  -0.36329
 Alpha  occ. eigenvalues --   -0.36158  -0.35998  -0.35796  -0.35323  -0.34530
 Alpha  occ. eigenvalues --   -0.34216  -0.34119  -0.32741  -0.31133  -0.30961
 Alpha  occ. eigenvalues --   -0.30446  -0.30275  -0.29801  -0.29532  -0.23889
 Alpha  occ. eigenvalues --   -0.20574
 Alpha virt. eigenvalues --   -0.08367  -0.01756   0.00221   0.02330   0.02842
 Alpha virt. eigenvalues --    0.03068   0.03759   0.05409   0.06107   0.06464
 Alpha virt. eigenvalues --    0.08159   0.08320   0.08705   0.09036   0.09329

 Mulliken charges:
               1
     1  Mg   0.834776
     2  C   -0.115638
     3  C   -0.082284
     4  C   -0.060177
     5  C   -0.088819
     6  N   -0.271198
     7  C    0.025910
     8  C   -0.058991
     9  C   -0.068926
    10  C   -0.014820
    11  C    0.095000
    12  C    0.066200
    13  C    0.073390
    14  C    0.175894
    15  O   -0.231110
    16  O   -0.360462
    17  N   -0.333121
    18  C    0.156631
    19  C   -0.156936
    20  C    0.008655
    21  C    0.107512
    22  C    0.120052
    23  C   -0.024364
    24  O   -0.196414
    25  C    0.038724
    26  N   -0.335434
    27  C    0.027598
    28  C   -0.061162
    29  C    0.017575
    30  C    0.045338
    31  C    0.083800
    32  C    0.027980
    33  C    0.015934
    34  N   -0.355771
    35  C    0.097560
    36  C   -0.161400
    37  C    0.005087
    38  C    0.117864
    39  C    0.133079
    40  C    0.020329
    41  O   -0.220588
    42  C    0.106172
    43  C    0.187780
    44  O   -0.208885
    45  O   -0.340686
    46  C    0.186836
    47  C    0.284817
    48  C   -0.144226
    49  C   -0.178596
    50  C    0.081343
    51  C    0.066037
    52  C    0.054689
    53  C    0.058303
    54  C   -0.129357
    55  C    0.030171
    56  C    0.079054
    57  C    0.033858
    58  C    0.006619
    59  C   -0.106981
    60  C    0.055645
    61  C    0.086533
    62  C    0.005992
    63  C    0.027050
    64  C   -0.157911
    65  C    0.049832
    66  C    0.026946
    67  H   -0.031821
    68  H   -0.009097
    69  H   -0.026883
    70  H    0.037811
    71  H    0.010921
    72  H    0.022339
    73  H    0.028430
    74  H    0.018245
    75  H    0.000207
    76  H    0.010278
    77  H    0.019189
    78  H    0.028298
    79  H    0.045746
    80  H    0.008021
    81  H    0.018322
    82  H    0.039185
    83  H    0.036198
    84  H    0.026741
    85  H    0.004356
    86  H   -0.003008
    87  H    0.008008
    88  H    0.028580
    89  H    0.028179
    90  H    0.011234
    91  H    0.008123
    92  H    0.008066
    93  H    0.043571
    94  H    0.005386
    95  H    0.021369
    96  H    0.046179
    97  H    0.024632
    98  H    0.051696
    99  H    0.034443
   100  H    0.040567
   101  H    0.034210
   102  H    0.053948
   103  H    0.020914
   104  H   -0.004603
   105  H    0.029767
   106  H    0.000855
   107  H    0.030856
   108  H   -0.000909
   109  H    0.000883
   110  H    0.005079
   111  H    0.000147
   112  H   -0.003653
   113  H   -0.005768
   114  H   -0.005067
   115  H    0.013683
   116  H   -0.003166
   117  H   -0.003840
   118  H   -0.023582
   119  H   -0.017676
   120  H   -0.011394
   121  H   -0.010295
   122  H   -0.011046
   123  H   -0.013023
   124  H   -0.000154
   125  H    0.019632
   126  H    0.003023
   127  H   -0.007608
   128  H   -0.009355
   129  H   -0.004579
   130  H   -0.013212
   131  H   -0.008478
   132  H   -0.001970
   133  H   -0.003774
   134  H    0.001669
   135  H   -0.004567
   136  H    0.008001
   137  H    0.004779
   138  H    0.007991
   139  H    0.013941
   140  H    0.016522
 Sum of Mulliken charges =  -0.00000

 Dipole moment (field-independent basis, Debye):
    X=             -5.3325    Y=              2.3798    Z=              3.6504  Tot=              6.8865
 Quadrupole moment (field-independent basis, Debye-Ang):
   XX=           -393.1182   YY=           -437.9707   ZZ=           -404.2891
   XY=             29.9932   XZ=             14.5867   YZ=            -13.7059

 Normal termination of Gaussian 16 at Wed May  4 05:24:16 2022.
