 Gaussian 16, Revision A.03,
 Gaussian 16:  ES64L-G16RevA.03 25-Dec-2016

 ---------------------------------
 #p PBE1PBE/Def2SVP td=(nstates=5)
 ---------------------------------

 ------------------------------------------------------
 step_1401_chromophore_24 TDDFT with PBE1PBE functional
 ------------------------------------------------------
 Symbolic Z-matrix:
 Charge =  0 Multiplicity = 1

                         Standard orientation:
 ---------------------------------------------------------------------
 Center     Atomic      Atomic             Coordinates (Angstroms)
 Number     Number       Type             X           Y           Z
 ---------------------------------------------------------------------
      1         12           0        5.329466    1.072343    0.173297
      2          6           0        4.769466   -2.382394   -0.130418
      3          6           0        1.852227    1.567371    0.145050
      4          6           0        5.678893    4.397331   -0.027234
      5          6           0        8.704844    0.563624    0.108347
      6          7           0        3.630952   -0.266767    0.067054
      7          6           0        3.596896   -1.592057    0.091942
      8          6           0        2.166665   -2.163520    0.197511
      9          6           0        1.315148   -0.951214   -0.113359
     10          6           0        2.303070    0.183776    0.116571
     11          6           0        0.684090   -0.894192   -1.554470
     12          6           0        1.747069   -2.745584    1.603132
     13          6           0        0.294320   -3.292567    1.768699
     14          6           0       -0.382963   -3.718377    0.381904
     15          8           0       -0.074964   -4.699498   -0.296039
     16          8           0       -1.433200   -2.839445    0.062871
     17          7           0        3.937128    2.766507   -0.024735
     18          6           0        2.560176    2.735728   -0.012589
     19          6           0        2.002367    4.093145   -0.028808
     20          6           0        3.128590    4.960573   -0.128873
     21          6           0        4.315899    4.083324   -0.078396
     22          6           0        0.543287    4.375531   -0.112994
     23          6           0        3.111168    6.445560   -0.255491
     24          8           0        4.146243    7.081687   -0.171019
     25          6           0        1.804741    7.197235   -0.401477
     26          7           0        6.935342    2.290860   -0.018589
     27          6           0        6.820735    3.649762   -0.036632
     28          6           0        8.227652    4.174803   -0.228198
     29          6           0        9.170367    3.040597    0.058499
     30          6           0        8.226035    1.886345   -0.025240
     31          6           0        8.292049    4.754419   -1.696428
     32          6           0        9.929306    3.119926    1.401301
     33          6           0        9.135077    3.055125    2.709077
     34          7           0        6.535484   -0.569694   -0.027083
     35          6           0        7.926347   -0.655440    0.012321
     36          6           0        8.344647   -2.073764   -0.283031
     37          6           0        7.104076   -2.746636   -0.251862
     38          6           0        6.058913   -1.791486   -0.028797
     39          6           0        9.664318   -2.649023   -0.634792
     40          6           0        6.504719   -4.007681   -0.450550
     41          8           0        6.996382   -5.112705   -0.800864
     42          6           0        5.030103   -3.888827   -0.169363
     43          6           0        4.233955   -4.465436   -1.227310
     44          8           0        4.285718   -4.178807   -2.409380
     45          8           0        3.575710   -5.520640   -0.632115
     46          6           0        2.929227   -6.392063   -1.606539
     47          6           0       -2.283399   -3.352646   -1.105620
     48          6           0       -3.725819   -3.041652   -0.720955
     49          6           0       -4.491722   -3.768364    0.150258
     50          6           0       -3.828968   -4.832261    1.054262
     51          6           0       -5.819009   -3.216862    0.638076
     52          6           0       -5.751815   -2.280889    1.870954
     53          6           0       -6.222799   -0.849759    1.538732
     54          6           0       -7.732582   -0.583125    1.857462
     55          6           0       -7.871151    0.012887    3.276697
     56          6           0       -8.446008    0.349925    0.875590
     57          6           0       -9.610448   -0.272133    0.140148
     58          6           0      -10.853665   -0.196167    1.027187
     59          6           0      -11.970873    0.866068    0.537774
     60          6           0      -12.456016    1.675231    1.763468
     61          6           0      -13.130815    0.109736   -0.128276
     62          6           0      -13.520022    0.634265   -1.518645
     63          6           0      -15.007428    1.136507   -1.600446
     64          6           0      -15.165308    2.660500   -1.399644
     65          6           0      -16.651749    3.034854   -1.148356
     66          6           0      -14.637048    3.431591   -2.706685
     67          1           0        0.760687    1.595958    0.152287
     68          1           0        5.910759    5.449848   -0.202117
     69          1           0        9.786085    0.415112    0.145359
     70          1           0        2.003412   -2.935990   -0.554123
     71          1           0        0.577159   -0.746999    0.662725
     72          1           0        1.132801   -0.108296   -2.161793
     73          1           0       -0.396197   -0.755903   -1.518650
     74          1           0        0.982935   -1.829303   -2.028945
     75          1           0        1.952129   -2.015334    2.386050
     76          1           0        2.418920   -3.534928    1.938258
     77          1           0       -0.322617   -2.635668    2.381811
     78          1           0        0.270583   -4.169741    2.415389
     79          1           0        0.034501    4.452511    0.847945
     80          1           0        0.178227    3.486696   -0.626328
     81          1           0        0.313819    5.092802   -0.901627
     82          1           0        1.035526    6.954727    0.332083
     83          1           0        1.413207    6.932718   -1.384204
     84          1           0        1.997894    8.267808   -0.334577
     85          1           0        8.330009    5.003379    0.471738
     86          1           0        9.873519    2.858431   -0.753823
     87          1           0        8.887448    4.106398   -2.339646
     88          1           0        8.718868    5.756630   -1.651427
     89          1           0        7.269909    4.708447   -2.071925
     90          1           0       10.435046    4.079042    1.289546
     91          1           0       10.636799    2.290836    1.412322
     92          1           0        9.744383    2.418121    3.349206
     93          1           0        8.078348    2.788113    2.684265
     94          1           0        9.262001    4.005150    3.226858
     95          1           0       10.224446   -1.934734   -1.238701
     96          1           0        9.522330   -3.621777   -1.105450
     97          1           0       10.208863   -2.798327    0.297414
     98          1           0        4.832723   -4.257353    0.836930
     99          1           0        2.615722   -7.297234   -1.087164
    100          1           0        3.661565   -6.584137   -2.389948
    101          1           0        2.068814   -5.861076   -2.014891
    102          1           0       -2.215448   -4.394287   -1.420327
    103          1           0       -2.118799   -2.751752   -1.999617
    104          1           0       -4.146263   -2.102756   -1.082814
    105          1           0       -3.956773   -5.834337    0.645426
    106          1           0       -4.512556   -4.794694    1.902325
    107          1           0       -2.817242   -4.608801    1.393285
    108          1           0       -6.514243   -4.052304    0.709605
    109          1           0       -6.216933   -2.693755   -0.231595
    110          1           0       -4.790488   -2.221208    2.380392
    111          1           0       -6.377185   -2.726652    2.644561
    112          1           0       -6.195743   -0.628282    0.472510
    113          1           0       -5.599393   -0.125306    2.062623
    114          1           0       -8.231668   -1.547068    1.948983
    115          1           0       -8.763733   -0.322758    3.805782
    116          1           0       -7.975749    1.097713    3.272817
    117          1           0       -6.997093   -0.124400    3.913051
    118          1           0       -7.757205    0.872738    0.211758
    119          1           0       -8.749624    1.245930    1.416982
    120          1           0       -9.463633   -1.329558   -0.078484
    121          1           0       -9.855681    0.117781   -0.848432
    122          1           0      -10.612968   -0.049834    2.080278
    123          1           0      -11.171081   -1.235150    0.945096
    124          1           0      -11.455522    1.483821   -0.197892
    125          1           0      -13.491361    2.015834    1.771093
    126          1           0      -11.661547    2.356224    2.069564
    127          1           0      -12.411135    1.011034    2.626159
    128          1           0      -14.026063    0.179709    0.489537
    129          1           0      -12.869228   -0.939654   -0.265809
    130          1           0      -13.373683   -0.202509   -2.201901
    131          1           0      -12.876560    1.405431   -1.939794
    132          1           0      -15.574483    0.570406   -0.861191
    133          1           0      -15.382463    0.923424   -2.601434
    134          1           0      -14.618065    3.047849   -0.539716
    135          1           0      -16.868788    3.312266   -0.116698
    136          1           0      -17.341400    2.202318   -1.284244
    137          1           0      -16.869828    3.936221   -1.721849
    138          1           0      -14.191672    2.661619   -3.337334
    139          1           0      -13.862826    4.119573   -2.367105
    140          1           0      -15.400533    3.940345   -3.295065
 ---------------------------------------------------------------------

 SCF Done:  E(RPBE1PBE) =  -3005.35677114     A.U. after   15 cycles

 Excitation energies and oscillator strengths:

 Excited State   1:      Singlet-A      1.8147 eV  683.21 nm  f=0.3714  <S**2>=0.000
     245 -> 248       -0.17705
     246 -> 247        0.69362
     246 <- 247       -0.11191
 This state for optimization and/or second-order correction.
 Total Energy, E(TD-HF/TD-DFT) =  -3005.29008122
 Copying the excited state density for this state as the 1-particle RhoCI density.

 Excited State   2:      Singlet-A      2.2101 eV  560.98 nm  f=0.0814  <S**2>=0.000
     245 -> 247        0.64037
     246 -> 248        0.29142

 Excited State   3:      Singlet-A      2.8719 eV  431.71 nm  f=0.0006  <S**2>=0.000
     243 -> 247       -0.15514
     244 -> 247        0.64426
     244 -> 249       -0.17432
     244 -> 250       -0.10598

 Excited State   4:      Singlet-A      3.1249 eV  396.76 nm  f=0.0002  <S**2>=0.000
     241 -> 247       -0.18389
     242 -> 247       -0.14408
     243 -> 247        0.63172
     244 -> 247        0.16745

 Excited State   5:      Singlet-A      3.1720 eV  390.87 nm  f=0.0144  <S**2>=0.000
     240 -> 247        0.16005
     241 -> 247        0.47761
     241 -> 249        0.12112
     242 -> 247        0.34581
     243 -> 247        0.24569
     246 -> 248       -0.15434

 The electronic state is 1-A.
 Alpha  occ. eigenvalues --  -46.91391 -19.26869 -19.24580 -19.21696 -19.19601
 Alpha  occ. eigenvalues --  -19.18754 -19.17924 -14.42208 -14.40864 -14.38947
 Alpha  occ. eigenvalues --  -14.38867 -10.38174 -10.35104 -10.31835 -10.30748
 Alpha  occ. eigenvalues --  -10.29989 -10.29054 -10.28915 -10.28258 -10.28091
 Alpha  occ. eigenvalues --  -10.27775 -10.27747 -10.27089 -10.27074 -10.26625
 Alpha  occ. eigenvalues --  -10.26229 -10.26219 -10.26006 -10.25938 -10.25681
 Alpha  occ. eigenvalues --  -10.25551 -10.25482 -10.25321 -10.24747 -10.24692
 Alpha  occ. eigenvalues --  -10.24582 -10.24529 -10.24513 -10.24487 -10.24416
 Alpha  occ. eigenvalues --  -10.24110 -10.23970 -10.23963 -10.23826 -10.23770
 Alpha  occ. eigenvalues --  -10.23751 -10.23632 -10.23560 -10.23401 -10.23324
 Alpha  occ. eigenvalues --  -10.23260 -10.23183 -10.23030 -10.22884 -10.22727
 Alpha  occ. eigenvalues --  -10.22548 -10.22413 -10.22357 -10.22308 -10.22170
 Alpha  occ. eigenvalues --  -10.22166 -10.22099 -10.22099 -10.22071 -10.22035
 Alpha  occ. eigenvalues --  -10.21573  -3.13647  -1.86496  -1.85987  -1.85908
 Alpha  occ. eigenvalues --   -1.10202  -1.10183  -1.04903  -1.02547  -1.02424
 Alpha  occ. eigenvalues --   -1.01644  -0.99283  -0.98769  -0.97910  -0.96845
 Alpha  occ. eigenvalues --   -0.86982  -0.85052  -0.84150  -0.83898  -0.83649
 Alpha  occ. eigenvalues --   -0.82899  -0.82801  -0.81624  -0.81465  -0.81217
 Alpha  occ. eigenvalues --   -0.80706  -0.79468  -0.78805  -0.77720  -0.77279
 Alpha  occ. eigenvalues --   -0.76732  -0.76082  -0.75341  -0.75074  -0.74419
 Alpha  occ. eigenvalues --   -0.74184  -0.72832  -0.72199  -0.71660  -0.70245
 Alpha  occ. eigenvalues --   -0.69942  -0.69298  -0.69146  -0.69128  -0.68427
 Alpha  occ. eigenvalues --   -0.67438  -0.66771  -0.66043  -0.65084  -0.63995
 Alpha  occ. eigenvalues --   -0.63100  -0.62886  -0.61924  -0.61742  -0.60065
 Alpha  occ. eigenvalues --   -0.59945  -0.59200  -0.58896  -0.58729  -0.58623
 Alpha  occ. eigenvalues --   -0.57996  -0.57638  -0.56674  -0.55948  -0.54780
 Alpha  occ. eigenvalues --   -0.54668  -0.53860  -0.53590  -0.53136  -0.52637
 Alpha  occ. eigenvalues --   -0.52014  -0.51274  -0.50600  -0.50360  -0.49850
 Alpha  occ. eigenvalues --   -0.49478  -0.49269  -0.49134  -0.48736  -0.48470
 Alpha  occ. eigenvalues --   -0.48320  -0.48002  -0.47644  -0.47444  -0.47293
 Alpha  occ. eigenvalues --   -0.46947  -0.46917  -0.46767  -0.46601  -0.46142
 Alpha  occ. eigenvalues --   -0.45916  -0.45757  -0.45475  -0.45091  -0.45043
 Alpha  occ. eigenvalues --   -0.44979  -0.44782  -0.44576  -0.44380  -0.44070
 Alpha  occ. eigenvalues --   -0.43869  -0.43755  -0.43672  -0.43504  -0.43267
 Alpha  occ. eigenvalues --   -0.43187  -0.42994  -0.42701  -0.42430  -0.42267
 Alpha  occ. eigenvalues --   -0.42037  -0.41954  -0.41900  -0.41746  -0.41279
 Alpha  occ. eigenvalues --   -0.41112  -0.40912  -0.40655  -0.40538  -0.40372
 Alpha  occ. eigenvalues --   -0.40368  -0.40080  -0.39877  -0.39750  -0.39628
 Alpha  occ. eigenvalues --   -0.39394  -0.39198  -0.39116  -0.38664  -0.38377
 Alpha  occ. eigenvalues --   -0.38277  -0.38041  -0.37897  -0.37717  -0.37576
 Alpha  occ. eigenvalues --   -0.37562  -0.37118  -0.36915  -0.36831  -0.36785
 Alpha  occ. eigenvalues --   -0.36761  -0.36624  -0.36162  -0.36119  -0.36046
 Alpha  occ. eigenvalues --   -0.35645  -0.35521  -0.35484  -0.35283  -0.34936
 Alpha  occ. eigenvalues --   -0.34753  -0.34416  -0.34264  -0.34237  -0.33587
 Alpha  occ. eigenvalues --   -0.33539  -0.33272  -0.32845  -0.32540  -0.32464
 Alpha  occ. eigenvalues --   -0.32237  -0.32121  -0.32027  -0.31628  -0.31418
 Alpha  occ. eigenvalues --   -0.30990  -0.30860  -0.30713  -0.30154  -0.29748
 Alpha  occ. eigenvalues --   -0.29164  -0.28928  -0.28271  -0.26729  -0.25794
 Alpha  occ. eigenvalues --   -0.25720  -0.25475  -0.25202  -0.24958  -0.20780
 Alpha  occ. eigenvalues --   -0.18257
 Alpha virt. eigenvalues --   -0.10851  -0.05200  -0.03942  -0.02061  -0.01542
 Alpha virt. eigenvalues --   -0.00790   0.00019   0.01215   0.01462   0.02919
 Alpha virt. eigenvalues --    0.04291   0.04826   0.05117   0.05453   0.05735

 Mulliken charges:
               1
     1  Mg   0.987678
     2  C   -0.099605
     3  C   -0.076605
     4  C   -0.057544
     5  C   -0.080008
     6  N   -0.376325
     7  C    0.101091
     8  C   -0.149106
     9  C   -0.144651
    10  C    0.025301
    11  C    0.039668
    12  C    0.025636
    13  C    0.003757
    14  C    0.227799
    15  O   -0.262087
    16  O   -0.382159
    17  N   -0.442049
    18  C    0.172957
    19  C   -0.173703
    20  C   -0.043419
    21  C    0.143315
    22  C    0.054348
    23  C    0.031034
    24  O   -0.234266
    25  C   -0.034567
    26  N   -0.445595
    27  C    0.058939
    28  C   -0.142355
    29  C   -0.060350
    30  C    0.088327
    31  C    0.028905
    32  C   -0.033795
    33  C   -0.057550
    34  N   -0.477494
    35  C    0.114734
    36  C   -0.169046
    37  C   -0.039839
    38  C    0.160456
    39  C    0.076329
    40  C    0.111519
    41  O   -0.265651
    42  C   -0.025693
    43  C    0.283414
    44  O   -0.244534
    45  O   -0.372791
    46  C    0.130425
    47  C    0.232211
    48  C   -0.151687
    49  C   -0.209643
    50  C    0.010073
    51  C   -0.002530
    52  C   -0.006645
    53  C    0.000908
    54  C   -0.209207
    55  C   -0.027184
    56  C    0.020329
    57  C   -0.031840
    58  C   -0.043171
    59  C   -0.194655
    60  C   -0.006952
    61  C    0.036661
    62  C   -0.051011
    63  C   -0.040067
    64  C   -0.245645
    65  C   -0.008087
    66  C   -0.034837
    67  H   -0.001365
    68  H    0.023309
    69  H    0.005167
    70  H    0.079414
    71  H    0.048733
    72  H    0.050599
    73  H    0.055435
    74  H    0.045588
    75  H    0.032952
    76  H    0.043692
    77  H    0.048932
    78  H    0.059873
    79  H    0.072871
    80  H    0.035754
    81  H    0.045897
    82  H    0.066058
    83  H    0.063290
    84  H    0.054205
    85  H    0.041257
    86  H    0.034463
    87  H    0.035970
    88  H    0.055606
    89  H    0.057708
    90  H    0.045109
    91  H    0.040264
    92  H    0.036353
    93  H    0.072469
    94  H    0.033805
    95  H    0.048607
    96  H    0.073194
    97  H    0.053727
    98  H    0.088759
    99  H    0.056456
   100  H    0.062433
   101  H    0.057298
   102  H    0.080010
   103  H    0.047595
   104  H    0.024751
   105  H    0.058194
   106  H    0.030261
   107  H    0.062426
   108  H    0.032424
   109  H    0.033282
   110  H    0.036571
   111  H    0.032261
   112  H    0.029302
   113  H    0.026691
   114  H    0.032167
   115  H    0.040263
   116  H    0.024284
   117  H    0.024002
   118  H    0.008217
   119  H    0.016192
   120  H    0.021926
   121  H    0.022026
   122  H    0.023275
   123  H    0.018445
   124  H    0.036611
   125  H    0.046202
   126  H    0.031981
   127  H    0.020846
   128  H    0.022680
   129  H    0.027615
   130  H    0.020186
   131  H    0.022859
   132  H    0.030644
   133  H    0.029837
   134  H    0.040811
   135  H    0.023407
   136  H    0.034410
   137  H    0.031836
   138  H    0.035216
   139  H    0.041564
   140  H    0.042983
 Sum of Mulliken charges =  -0.00000

 Dipole moment (field-independent basis, Debye):
    X=             -5.1771    Y=              2.3661    Z=              3.6986  Tot=              6.7883
 Quadrupole moment (field-independent basis, Debye-Ang):
   XX=           -385.9622   YY=           -435.7332   ZZ=           -401.6650
   XY=             31.0090   XZ=             14.3486   YZ=            -13.8630

 Normal termination of Gaussian 16 at Wed May  4 05:45:23 2022.
