 Gaussian 16, Revision A.03,
 Gaussian 16:  ES64L-G16RevA.03 25-Dec-2016

 --------------------------------
 #p wB97XD/Def2SVP td=(nstates=5)
 --------------------------------

 -----------------------------------------------------
 step_1401_chromophore_24 TDDFT with wB97XD functional
 -----------------------------------------------------
 Symbolic Z-matrix:
 Charge =  0 Multiplicity = 1

                         Standard orientation:
 ---------------------------------------------------------------------
 Center     Atomic      Atomic             Coordinates (Angstroms)
 Number     Number       Type             X           Y           Z
 ---------------------------------------------------------------------
      1         12           0        5.329466    1.072343    0.173297
      2          6           0        4.769466   -2.382394   -0.130418
      3          6           0        1.852227    1.567371    0.145050
      4          6           0        5.678893    4.397331   -0.027234
      5          6           0        8.704844    0.563624    0.108347
      6          7           0        3.630952   -0.266767    0.067054
      7          6           0        3.596896   -1.592057    0.091942
      8          6           0        2.166665   -2.163520    0.197511
      9          6           0        1.315148   -0.951214   -0.113359
     10          6           0        2.303070    0.183776    0.116571
     11          6           0        0.684090   -0.894192   -1.554470
     12          6           0        1.747069   -2.745584    1.603132
     13          6           0        0.294320   -3.292567    1.768699
     14          6           0       -0.382963   -3.718377    0.381904
     15          8           0       -0.074964   -4.699498   -0.296039
     16          8           0       -1.433200   -2.839445    0.062871
     17          7           0        3.937128    2.766507   -0.024735
     18          6           0        2.560176    2.735728   -0.012589
     19          6           0        2.002367    4.093145   -0.028808
     20          6           0        3.128590    4.960573   -0.128873
     21          6           0        4.315899    4.083324   -0.078396
     22          6           0        0.543287    4.375531   -0.112994
     23          6           0        3.111168    6.445560   -0.255491
     24          8           0        4.146243    7.081687   -0.171019
     25          6           0        1.804741    7.197235   -0.401477
     26          7           0        6.935342    2.290860   -0.018589
     27          6           0        6.820735    3.649762   -0.036632
     28          6           0        8.227652    4.174803   -0.228198
     29          6           0        9.170367    3.040597    0.058499
     30          6           0        8.226035    1.886345   -0.025240
     31          6           0        8.292049    4.754419   -1.696428
     32          6           0        9.929306    3.119926    1.401301
     33          6           0        9.135077    3.055125    2.709077
     34          7           0        6.535484   -0.569694   -0.027083
     35          6           0        7.926347   -0.655440    0.012321
     36          6           0        8.344647   -2.073764   -0.283031
     37          6           0        7.104076   -2.746636   -0.251862
     38          6           0        6.058913   -1.791486   -0.028797
     39          6           0        9.664318   -2.649023   -0.634792
     40          6           0        6.504719   -4.007681   -0.450550
     41          8           0        6.996382   -5.112705   -0.800864
     42          6           0        5.030103   -3.888827   -0.169363
     43          6           0        4.233955   -4.465436   -1.227310
     44          8           0        4.285718   -4.178807   -2.409380
     45          8           0        3.575710   -5.520640   -0.632115
     46          6           0        2.929227   -6.392063   -1.606539
     47          6           0       -2.283399   -3.352646   -1.105620
     48          6           0       -3.725819   -3.041652   -0.720955
     49          6           0       -4.491722   -3.768364    0.150258
     50          6           0       -3.828968   -4.832261    1.054262
     51          6           0       -5.819009   -3.216862    0.638076
     52          6           0       -5.751815   -2.280889    1.870954
     53          6           0       -6.222799   -0.849759    1.538732
     54          6           0       -7.732582   -0.583125    1.857462
     55          6           0       -7.871151    0.012887    3.276697
     56          6           0       -8.446008    0.349925    0.875590
     57          6           0       -9.610448   -0.272133    0.140148
     58          6           0      -10.853665   -0.196167    1.027187
     59          6           0      -11.970873    0.866068    0.537774
     60          6           0      -12.456016    1.675231    1.763468
     61          6           0      -13.130815    0.109736   -0.128276
     62          6           0      -13.520022    0.634265   -1.518645
     63          6           0      -15.007428    1.136507   -1.600446
     64          6           0      -15.165308    2.660500   -1.399644
     65          6           0      -16.651749    3.034854   -1.148356
     66          6           0      -14.637048    3.431591   -2.706685
     67          1           0        0.760687    1.595958    0.152287
     68          1           0        5.910759    5.449848   -0.202117
     69          1           0        9.786085    0.415112    0.145359
     70          1           0        2.003412   -2.935990   -0.554123
     71          1           0        0.577159   -0.746999    0.662725
     72          1           0        1.132801   -0.108296   -2.161793
     73          1           0       -0.396197   -0.755903   -1.518650
     74          1           0        0.982935   -1.829303   -2.028945
     75          1           0        1.952129   -2.015334    2.386050
     76          1           0        2.418920   -3.534928    1.938258
     77          1           0       -0.322617   -2.635668    2.381811
     78          1           0        0.270583   -4.169741    2.415389
     79          1           0        0.034501    4.452511    0.847945
     80          1           0        0.178227    3.486696   -0.626328
     81          1           0        0.313819    5.092802   -0.901627
     82          1           0        1.035526    6.954727    0.332083
     83          1           0        1.413207    6.932718   -1.384204
     84          1           0        1.997894    8.267808   -0.334577
     85          1           0        8.330009    5.003379    0.471738
     86          1           0        9.873519    2.858431   -0.753823
     87          1           0        8.887448    4.106398   -2.339646
     88          1           0        8.718868    5.756630   -1.651427
     89          1           0        7.269909    4.708447   -2.071925
     90          1           0       10.435046    4.079042    1.289546
     91          1           0       10.636799    2.290836    1.412322
     92          1           0        9.744383    2.418121    3.349206
     93          1           0        8.078348    2.788113    2.684265
     94          1           0        9.262001    4.005150    3.226858
     95          1           0       10.224446   -1.934734   -1.238701
     96          1           0        9.522330   -3.621777   -1.105450
     97          1           0       10.208863   -2.798327    0.297414
     98          1           0        4.832723   -4.257353    0.836930
     99          1           0        2.615722   -7.297234   -1.087164
    100          1           0        3.661565   -6.584137   -2.389948
    101          1           0        2.068814   -5.861076   -2.014891
    102          1           0       -2.215448   -4.394287   -1.420327
    103          1           0       -2.118799   -2.751752   -1.999617
    104          1           0       -4.146263   -2.102756   -1.082814
    105          1           0       -3.956773   -5.834337    0.645426
    106          1           0       -4.512556   -4.794694    1.902325
    107          1           0       -2.817242   -4.608801    1.393285
    108          1           0       -6.514243   -4.052304    0.709605
    109          1           0       -6.216933   -2.693755   -0.231595
    110          1           0       -4.790488   -2.221208    2.380392
    111          1           0       -6.377185   -2.726652    2.644561
    112          1           0       -6.195743   -0.628282    0.472510
    113          1           0       -5.599393   -0.125306    2.062623
    114          1           0       -8.231668   -1.547068    1.948983
    115          1           0       -8.763733   -0.322758    3.805782
    116          1           0       -7.975749    1.097713    3.272817
    117          1           0       -6.997093   -0.124400    3.913051
    118          1           0       -7.757205    0.872738    0.211758
    119          1           0       -8.749624    1.245930    1.416982
    120          1           0       -9.463633   -1.329558   -0.078484
    121          1           0       -9.855681    0.117781   -0.848432
    122          1           0      -10.612968   -0.049834    2.080278
    123          1           0      -11.171081   -1.235150    0.945096
    124          1           0      -11.455522    1.483821   -0.197892
    125          1           0      -13.491361    2.015834    1.771093
    126          1           0      -11.661547    2.356224    2.069564
    127          1           0      -12.411135    1.011034    2.626159
    128          1           0      -14.026063    0.179709    0.489537
    129          1           0      -12.869228   -0.939654   -0.265809
    130          1           0      -13.373683   -0.202509   -2.201901
    131          1           0      -12.876560    1.405431   -1.939794
    132          1           0      -15.574483    0.570406   -0.861191
    133          1           0      -15.382463    0.923424   -2.601434
    134          1           0      -14.618065    3.047849   -0.539716
    135          1           0      -16.868788    3.312266   -0.116698
    136          1           0      -17.341400    2.202318   -1.284244
    137          1           0      -16.869828    3.936221   -1.721849
    138          1           0      -14.191672    2.661619   -3.337334
    139          1           0      -13.862826    4.119573   -2.367105
    140          1           0      -15.400533    3.940345   -3.295065
 ---------------------------------------------------------------------

 SCF Done:  E(RwB97XD) =  -3007.86834378     A.U. after   18 cycles

 Excitation energies and oscillator strengths:

 Excited State   1:      Singlet-A      1.6001 eV  774.84 nm  f=0.3803  <S**2>=0.000
     245 -> 248        0.18979
     246 -> 247        0.68310
     245 <- 248        0.12013
 This state for optimization and/or second-order correction.
 Total Energy, E(TD-HF/TD-DFT) =  -3007.80954039
 Copying the excited state density for this state as the 1-particle RhoCI density.

 Excited State   2:      Singlet-A      2.1546 eV  575.44 nm  f=0.0745  <S**2>=0.000
     245 -> 247        0.62222
     246 -> 248       -0.32624

 Excited State   3:      Singlet-A      3.3689 eV  368.02 nm  f=0.0210  <S**2>=0.000
     242 -> 247        0.47473
     242 -> 249        0.29888
     242 -> 250        0.20587
     243 -> 247       -0.23882
     243 -> 249       -0.12600
     244 -> 247        0.14944
     246 -> 248        0.10196

 Excited State   4:      Singlet-A      3.4118 eV  363.40 nm  f=0.6317  <S**2>=0.000
     239 -> 247        0.10198
     243 -> 247        0.20269
     245 -> 247        0.29512
     246 -> 248        0.59729
     245 <- 247       -0.11548

 Excited State   5:      Singlet-A      3.5041 eV  353.82 nm  f=0.0017  <S**2>=0.000
     242 -> 247       -0.16934
     244 -> 247        0.66362

 The electronic state is 1-A.
 Alpha  occ. eigenvalues --  -46.94322 -19.31396 -19.29165 -19.26350 -19.24353
 Alpha  occ. eigenvalues --  -19.23615 -19.22762 -14.47383 -14.45833 -14.43927
 Alpha  occ. eigenvalues --  -14.43806 -10.44954 -10.41987 -10.38720 -10.37662
 Alpha  occ. eigenvalues --  -10.36510 -10.35313 -10.35175 -10.34514 -10.34312
 Alpha  occ. eigenvalues --  -10.34207 -10.34063 -10.33609 -10.33451 -10.33037
 Alpha  occ. eigenvalues --  -10.32829 -10.32641 -10.32275 -10.32209 -10.32025
 Alpha  occ. eigenvalues --  -10.31953 -10.31788 -10.31567 -10.31273 -10.31139
 Alpha  occ. eigenvalues --  -10.31122 -10.30988 -10.30862 -10.30669 -10.30580
 Alpha  occ. eigenvalues --  -10.30361 -10.30330 -10.30327 -10.30101 -10.30050
 Alpha  occ. eigenvalues --  -10.30032 -10.30016 -10.29988 -10.29899 -10.29799
 Alpha  occ. eigenvalues --  -10.29747 -10.29533 -10.29353 -10.29194 -10.29099
 Alpha  occ. eigenvalues --  -10.28912 -10.28775 -10.28710 -10.28632 -10.28535
 Alpha  occ. eigenvalues --  -10.28535 -10.28514 -10.28508 -10.28463 -10.28442
 Alpha  occ. eigenvalues --  -10.27997  -3.20422  -1.94024  -1.93512  -1.93433
 Alpha  occ. eigenvalues --   -1.17630  -1.17571  -1.12427  -1.09890  -1.09852
 Alpha  occ. eigenvalues --   -1.09153  -1.06667  -1.06130  -1.05244  -1.04253
 Alpha  occ. eigenvalues --   -0.94631  -0.92716  -0.91793  -0.91541  -0.91213
 Alpha  occ. eigenvalues --   -0.90567  -0.90385  -0.89342  -0.89066  -0.88884
 Alpha  occ. eigenvalues --   -0.88331  -0.87124  -0.86459  -0.85317  -0.84906
 Alpha  occ. eigenvalues --   -0.84367  -0.83823  -0.83033  -0.82734  -0.82067
 Alpha  occ. eigenvalues --   -0.81848  -0.80531  -0.79851  -0.79241  -0.77920
 Alpha  occ. eigenvalues --   -0.77565  -0.76998  -0.76822  -0.76724  -0.76096
 Alpha  occ. eigenvalues --   -0.75049  -0.74321  -0.73600  -0.72688  -0.71525
 Alpha  occ. eigenvalues --   -0.70699  -0.70474  -0.69498  -0.69364  -0.67696
 Alpha  occ. eigenvalues --   -0.67458  -0.66601  -0.66396  -0.66379  -0.66051
 Alpha  occ. eigenvalues --   -0.65442  -0.65290  -0.64321  -0.63402  -0.62267
 Alpha  occ. eigenvalues --   -0.62158  -0.61318  -0.61063  -0.60514  -0.60214
 Alpha  occ. eigenvalues --   -0.59390  -0.58723  -0.58072  -0.57784  -0.57244
 Alpha  occ. eigenvalues --   -0.56889  -0.56696  -0.56529  -0.56193  -0.55896
 Alpha  occ. eigenvalues --   -0.55741  -0.55389  -0.55085  -0.55060  -0.54595
 Alpha  occ. eigenvalues --   -0.54337  -0.54280  -0.54138  -0.53939  -0.53442
 Alpha  occ. eigenvalues --   -0.53221  -0.53110  -0.52878  -0.52552  -0.52455
 Alpha  occ. eigenvalues --   -0.52301  -0.52055  -0.51874  -0.51709  -0.51365
 Alpha  occ. eigenvalues --   -0.51216  -0.51070  -0.51005  -0.50795  -0.50559
 Alpha  occ. eigenvalues --   -0.50470  -0.50365  -0.50032  -0.49717  -0.49608
 Alpha  occ. eigenvalues --   -0.49347  -0.49260  -0.49087  -0.48958  -0.48549
 Alpha  occ. eigenvalues --   -0.48345  -0.48072  -0.47817  -0.47740  -0.47591
 Alpha  occ. eigenvalues --   -0.47534  -0.47251  -0.47056  -0.47016  -0.46749
 Alpha  occ. eigenvalues --   -0.46574  -0.46344  -0.46256  -0.45790  -0.45473
 Alpha  occ. eigenvalues --   -0.45432  -0.45197  -0.44923  -0.44851  -0.44720
 Alpha  occ. eigenvalues --   -0.44614  -0.44356  -0.44024  -0.43941  -0.43917
 Alpha  occ. eigenvalues --   -0.43892  -0.43733  -0.43333  -0.43267  -0.43164
 Alpha  occ. eigenvalues --   -0.42668  -0.42580  -0.42525  -0.42369  -0.42007
 Alpha  occ. eigenvalues --   -0.41755  -0.41356  -0.41322  -0.41264  -0.40607
 Alpha  occ. eigenvalues --   -0.40525  -0.40345  -0.39845  -0.39502  -0.39449
 Alpha  occ. eigenvalues --   -0.39113  -0.39095  -0.39021  -0.38622  -0.38460
 Alpha  occ. eigenvalues --   -0.37995  -0.37849  -0.37817  -0.37234  -0.36529
 Alpha  occ. eigenvalues --   -0.36067  -0.36054  -0.34982  -0.33310  -0.32920
 Alpha  occ. eigenvalues --   -0.32492  -0.32263  -0.31975  -0.31720  -0.25809
 Alpha  occ. eigenvalues --   -0.22363
 Alpha virt. eigenvalues --   -0.06722   0.00160   0.02274   0.04431   0.05188
 Alpha virt. eigenvalues --    0.05942   0.06047   0.07832   0.08238   0.09220
 Alpha virt. eigenvalues --    0.10910   0.11599   0.11953   0.12170   0.12520

 Mulliken charges:
               1
     1  Mg   0.974246
     2  C   -0.109534
     3  C   -0.091059
     4  C   -0.075891
     5  C   -0.098363
     6  N   -0.342736
     7  C    0.063848
     8  C   -0.107145
     9  C   -0.118703
    10  C    0.009666
    11  C    0.048223
    12  C    0.031599
    13  C    0.019329
    14  C    0.213839
    15  O   -0.258690
    16  O   -0.381501
    17  N   -0.409719
    18  C    0.168404
    19  C   -0.167262
    20  C   -0.036664
    21  C    0.134045
    22  C    0.068093
    23  C    0.025104
    24  O   -0.228443
    25  C   -0.023062
    26  N   -0.413428
    27  C    0.053786
    28  C   -0.119350
    29  C   -0.033598
    30  C    0.073130
    31  C    0.038752
    32  C   -0.017769
    33  C   -0.042121
    34  N   -0.441181
    35  C    0.106841
    36  C   -0.168123
    37  C   -0.037251
    38  C    0.146034
    39  C    0.087345
    40  C    0.093040
    41  O   -0.254875
    42  C    0.023254
    43  C    0.256900
    44  O   -0.238573
    45  O   -0.370908
    46  C    0.145473
    47  C    0.248702
    48  C   -0.160303
    49  C   -0.201130
    50  C    0.028024
    51  C    0.020336
    52  C    0.004146
    53  C    0.021553
    54  C   -0.186082
    55  C   -0.015737
    56  C    0.040852
    57  C   -0.014085
    58  C   -0.025279
    59  C   -0.165213
    60  C    0.008528
    61  C    0.049288
    62  C   -0.037834
    63  C   -0.016717
    64  C   -0.219455
    65  C    0.003055
    66  C   -0.022067
    67  H   -0.007072
    68  H    0.017517
    69  H    0.000112
    70  H    0.058545
    71  H    0.035887
    72  H    0.044947
    73  H    0.049696
    74  H    0.040045
    75  H    0.025694
    76  H    0.035936
    77  H    0.044278
    78  H    0.055031
    79  H    0.070946
    80  H    0.029210
    81  H    0.040741
    82  H    0.060811
    83  H    0.057354
    84  H    0.053392
    85  H    0.031493
    86  H    0.024818
    87  H    0.030181
    88  H    0.051053
    89  H    0.049575
    90  H    0.036767
    91  H    0.031867
    92  H    0.031070
    93  H    0.063870
    94  H    0.028108
    95  H    0.043388
    96  H    0.069927
    97  H    0.048298
    98  H    0.082272
    99  H    0.053703
   100  H    0.057898
   101  H    0.053887
   102  H    0.075384
   103  H    0.043611
   104  H    0.020827
   105  H    0.053589
   106  H    0.022765
   107  H    0.052905
   108  H    0.025583
   109  H    0.022400
   110  H    0.029857
   111  H    0.023765
   112  H    0.015769
   113  H    0.019579
   114  H    0.018190
   115  H    0.035306
   116  H    0.017095
   117  H    0.018086
   118  H    0.001369
   119  H    0.002940
   120  H    0.013190
   121  H    0.014016
   122  H    0.006885
   123  H    0.009711
   124  H    0.022604
   125  H    0.040641
   126  H    0.025683
   127  H    0.012910
   128  H    0.011612
   129  H    0.019461
   130  H    0.013807
   131  H    0.011573
   132  H    0.020895
   133  H    0.020431
   134  H    0.027802
   135  H    0.017776
   136  H    0.028739
   137  H    0.025258
   138  H    0.026950
   139  H    0.036384
   140  H    0.037819
 Sum of Mulliken charges =  -0.00000

 Dipole moment (field-independent basis, Debye):
    X=             -5.3906    Y=              2.4451    Z=              3.6963  Tot=              6.9785
 Quadrupole moment (field-independent basis, Debye-Ang):
   XX=           -388.2179   YY=           -433.9380   ZZ=           -401.3350
   XY=             29.9081   XZ=             14.4744   YZ=            -13.9207

 Normal termination of Gaussian 16 at Wed May  4 06:11:17 2022.
