 Gaussian 16, Revision A.03,
 Gaussian 16:  ES64L-G16RevA.03 25-Dec-2016

 --------------------
 #p ZINDO=(nstates=5)
 --------------------

 ------------------------------
 step_1401_chromophore_24 ZINDO
 ------------------------------
 Symbolic Z-matrix:
 Charge =  0 Multiplicity = 1

                         Standard orientation:
 ---------------------------------------------------------------------
 Center     Atomic      Atomic             Coordinates (Angstroms)
 Number     Number       Type             X           Y           Z
 ---------------------------------------------------------------------
      1         12           0        5.329466    1.072343    0.173297
      2          6           0        4.769466   -2.382394   -0.130418
      3          6           0        1.852227    1.567371    0.145050
      4          6           0        5.678893    4.397331   -0.027234
      5          6           0        8.704844    0.563624    0.108347
      6          7           0        3.630952   -0.266767    0.067054
      7          6           0        3.596896   -1.592057    0.091942
      8          6           0        2.166665   -2.163520    0.197511
      9          6           0        1.315148   -0.951214   -0.113359
     10          6           0        2.303070    0.183776    0.116571
     11          6           0        0.684090   -0.894192   -1.554470
     12          6           0        1.747069   -2.745584    1.603132
     13          6           0        0.294320   -3.292567    1.768699
     14          6           0       -0.382963   -3.718377    0.381904
     15          8           0       -0.074964   -4.699498   -0.296039
     16          8           0       -1.433200   -2.839445    0.062871
     17          7           0        3.937128    2.766507   -0.024735
     18          6           0        2.560176    2.735728   -0.012589
     19          6           0        2.002367    4.093145   -0.028808
     20          6           0        3.128590    4.960573   -0.128873
     21          6           0        4.315899    4.083324   -0.078396
     22          6           0        0.543287    4.375531   -0.112994
     23          6           0        3.111168    6.445560   -0.255491
     24          8           0        4.146243    7.081687   -0.171019
     25          6           0        1.804741    7.197235   -0.401477
     26          7           0        6.935342    2.290860   -0.018589
     27          6           0        6.820735    3.649762   -0.036632
     28          6           0        8.227652    4.174803   -0.228198
     29          6           0        9.170367    3.040597    0.058499
     30          6           0        8.226035    1.886345   -0.025240
     31          6           0        8.292049    4.754419   -1.696428
     32          6           0        9.929306    3.119926    1.401301
     33          6           0        9.135077    3.055125    2.709077
     34          7           0        6.535484   -0.569694   -0.027083
     35          6           0        7.926347   -0.655440    0.012321
     36          6           0        8.344647   -2.073764   -0.283031
     37          6           0        7.104076   -2.746636   -0.251862
     38          6           0        6.058913   -1.791486   -0.028797
     39          6           0        9.664318   -2.649023   -0.634792
     40          6           0        6.504719   -4.007681   -0.450550
     41          8           0        6.996382   -5.112705   -0.800864
     42          6           0        5.030103   -3.888827   -0.169363
     43          6           0        4.233955   -4.465436   -1.227310
     44          8           0        4.285718   -4.178807   -2.409380
     45          8           0        3.575710   -5.520640   -0.632115
     46          6           0        2.929227   -6.392063   -1.606539
     47          6           0       -2.283399   -3.352646   -1.105620
     48          6           0       -3.725819   -3.041652   -0.720955
     49          6           0       -4.491722   -3.768364    0.150258
     50          6           0       -3.828968   -4.832261    1.054262
     51          6           0       -5.819009   -3.216862    0.638076
     52          6           0       -5.751815   -2.280889    1.870954
     53          6           0       -6.222799   -0.849759    1.538732
     54          6           0       -7.732582   -0.583125    1.857462
     55          6           0       -7.871151    0.012887    3.276697
     56          6           0       -8.446008    0.349925    0.875590
     57          6           0       -9.610448   -0.272133    0.140148
     58          6           0      -10.853665   -0.196167    1.027187
     59          6           0      -11.970873    0.866068    0.537774
     60          6           0      -12.456016    1.675231    1.763468
     61          6           0      -13.130815    0.109736   -0.128276
     62          6           0      -13.520022    0.634265   -1.518645
     63          6           0      -15.007428    1.136507   -1.600446
     64          6           0      -15.165308    2.660500   -1.399644
     65          6           0      -16.651749    3.034854   -1.148356
     66          6           0      -14.637048    3.431591   -2.706685
     67          1           0        0.760687    1.595958    0.152287
     68          1           0        5.910759    5.449848   -0.202117
     69          1           0        9.786085    0.415112    0.145359
     70          1           0        2.003412   -2.935990   -0.554123
     71          1           0        0.577159   -0.746999    0.662725
     72          1           0        1.132801   -0.108296   -2.161793
     73          1           0       -0.396197   -0.755903   -1.518650
     74          1           0        0.982935   -1.829303   -2.028945
     75          1           0        1.952129   -2.015334    2.386050
     76          1           0        2.418920   -3.534928    1.938258
     77          1           0       -0.322617   -2.635668    2.381811
     78          1           0        0.270583   -4.169741    2.415389
     79          1           0        0.034501    4.452511    0.847945
     80          1           0        0.178227    3.486696   -0.626328
     81          1           0        0.313819    5.092802   -0.901627
     82          1           0        1.035526    6.954727    0.332083
     83          1           0        1.413207    6.932718   -1.384204
     84          1           0        1.997894    8.267808   -0.334577
     85          1           0        8.330009    5.003379    0.471738
     86          1           0        9.873519    2.858431   -0.753823
     87          1           0        8.887448    4.106398   -2.339646
     88          1           0        8.718868    5.756630   -1.651427
     89          1           0        7.269909    4.708447   -2.071925
     90          1           0       10.435046    4.079042    1.289546
     91          1           0       10.636799    2.290836    1.412322
     92          1           0        9.744383    2.418121    3.349206
     93          1           0        8.078348    2.788113    2.684265
     94          1           0        9.262001    4.005150    3.226858
     95          1           0       10.224446   -1.934734   -1.238701
     96          1           0        9.522330   -3.621777   -1.105450
     97          1           0       10.208863   -2.798327    0.297414
     98          1           0        4.832723   -4.257353    0.836930
     99          1           0        2.615722   -7.297234   -1.087164
    100          1           0        3.661565   -6.584137   -2.389948
    101          1           0        2.068814   -5.861076   -2.014891
    102          1           0       -2.215448   -4.394287   -1.420327
    103          1           0       -2.118799   -2.751752   -1.999617
    104          1           0       -4.146263   -2.102756   -1.082814
    105          1           0       -3.956773   -5.834337    0.645426
    106          1           0       -4.512556   -4.794694    1.902325
    107          1           0       -2.817242   -4.608801    1.393285
    108          1           0       -6.514243   -4.052304    0.709605
    109          1           0       -6.216933   -2.693755   -0.231595
    110          1           0       -4.790488   -2.221208    2.380392
    111          1           0       -6.377185   -2.726652    2.644561
    112          1           0       -6.195743   -0.628282    0.472510
    113          1           0       -5.599393   -0.125306    2.062623
    114          1           0       -8.231668   -1.547068    1.948983
    115          1           0       -8.763733   -0.322758    3.805782
    116          1           0       -7.975749    1.097713    3.272817
    117          1           0       -6.997093   -0.124400    3.913051
    118          1           0       -7.757205    0.872738    0.211758
    119          1           0       -8.749624    1.245930    1.416982
    120          1           0       -9.463633   -1.329558   -0.078484
    121          1           0       -9.855681    0.117781   -0.848432
    122          1           0      -10.612968   -0.049834    2.080278
    123          1           0      -11.171081   -1.235150    0.945096
    124          1           0      -11.455522    1.483821   -0.197892
    125          1           0      -13.491361    2.015834    1.771093
    126          1           0      -11.661547    2.356224    2.069564
    127          1           0      -12.411135    1.011034    2.626159
    128          1           0      -14.026063    0.179709    0.489537
    129          1           0      -12.869228   -0.939654   -0.265809
    130          1           0      -13.373683   -0.202509   -2.201901
    131          1           0      -12.876560    1.405431   -1.939794
    132          1           0      -15.574483    0.570406   -0.861191
    133          1           0      -15.382463    0.923424   -2.601434
    134          1           0      -14.618065    3.047849   -0.539716
    135          1           0      -16.868788    3.312266   -0.116698
    136          1           0      -17.341400    2.202318   -1.284244
    137          1           0      -16.869828    3.936221   -1.721849
    138          1           0      -14.191672    2.661619   -3.337334
    139          1           0      -13.862826    4.119573   -2.367105
    140          1           0      -15.400533    3.940345   -3.295065
 ---------------------------------------------------------------------

 SCF Done:  E(RZINDO/S) =  -474.304016995     A.U. after   20 cycles

 Excitation energies and oscillator strengths:

 Excited State   1:      Singlet-A      1.2184 eV 1017.59 nm  f=0.6176  <S**2>=0.000
     175 ->178         0.19519
     176 ->177         0.66185
 This state for optimization and/or second-order correction.
 Total Energy, E(CIS/TDA) =  -474.259241085
 Copying the excited state density for this state as the 1-particle RhoCI density.

 Excited State   2:      Singlet-A      1.8929 eV  654.99 nm  f=0.0104  <S**2>=0.000
     175 ->177         0.50915
     176 ->178        -0.46765

 Excited State   3:      Singlet-A      2.8849 eV  429.77 nm  f=0.2080  <S**2>=0.000
     169 ->177         0.12406
     169 ->179         0.10887
     169 ->181         0.14958
     170 ->177         0.19450
     170 ->179         0.18179
     170 ->181         0.17779
     175 ->177        -0.20130
     176 ->178        -0.26097
     176 ->179         0.38571
     176 ->181         0.10943

 Excited State   4:      Singlet-A      2.8884 eV  429.25 nm  f=0.1579  <S**2>=0.000
     169 ->177        -0.11043
     169 ->179        -0.10931
     170 ->177        -0.26009
     170 ->179        -0.23174
     170 ->181        -0.26296
     170 ->186        -0.11854
     175 ->177        -0.17068
     176 ->178        -0.21717
     176 ->179         0.32543

 Excited State   5:      Singlet-A      2.9868 eV  415.10 nm  f=0.0409  <S**2>=0.000
     168 ->177         0.28650
     168 ->179        -0.40251
     168 ->181         0.30713
     168 ->186        -0.22947
     168 ->187         0.12880
     176 ->179         0.10077

 The electronic state is 1-A.
 Alpha  occ. eigenvalues --   -1.85594  -1.84342  -1.79983  -1.73837  -1.72360
 Alpha  occ. eigenvalues --   -1.68824  -1.66079  -1.60818  -1.59534  -1.58561
 Alpha  occ. eigenvalues --   -1.55059  -1.50604  -1.47387  -1.46710  -1.46218
 Alpha  occ. eigenvalues --   -1.44553  -1.42618  -1.40800  -1.39476  -1.38511
 Alpha  occ. eigenvalues --   -1.36126  -1.33133  -1.31941  -1.31359  -1.28833
 Alpha  occ. eigenvalues --   -1.27698  -1.25107  -1.22208  -1.21169  -1.19148
 Alpha  occ. eigenvalues --   -1.17485  -1.15495  -1.15124  -1.14186  -1.13960
 Alpha  occ. eigenvalues --   -1.13191  -1.10994  -1.10423  -1.04716  -1.03193
 Alpha  occ. eigenvalues --   -1.02558  -1.00319  -0.99347  -0.97790  -0.96751
 Alpha  occ. eigenvalues --   -0.95777  -0.95070  -0.94323  -0.93690  -0.93435
 Alpha  occ. eigenvalues --   -0.92028  -0.89929  -0.89649  -0.87145  -0.86857
 Alpha  occ. eigenvalues --   -0.85143  -0.84324  -0.82315  -0.81218  -0.80871
 Alpha  occ. eigenvalues --   -0.79582  -0.78814  -0.77342  -0.76871  -0.76347
 Alpha  occ. eigenvalues --   -0.75783  -0.75570  -0.75101  -0.74367  -0.73759
 Alpha  occ. eigenvalues --   -0.73244  -0.72418  -0.72092  -0.71664  -0.71321
 Alpha  occ. eigenvalues --   -0.70775  -0.69239  -0.69020  -0.68479  -0.68210
 Alpha  occ. eigenvalues --   -0.67654  -0.66761  -0.66061  -0.65873  -0.65799
 Alpha  occ. eigenvalues --   -0.65430  -0.64694  -0.64132  -0.63769  -0.63453
 Alpha  occ. eigenvalues --   -0.63342  -0.62617  -0.62412  -0.62311  -0.62028
 Alpha  occ. eigenvalues --   -0.61893  -0.61601  -0.61175  -0.60655  -0.60358
 Alpha  occ. eigenvalues --   -0.59974  -0.59471  -0.58664  -0.58250  -0.58000
 Alpha  occ. eigenvalues --   -0.57922  -0.57719  -0.57401  -0.56958  -0.56344
 Alpha  occ. eigenvalues --   -0.55919  -0.55522  -0.55371  -0.54722  -0.54316
 Alpha  occ. eigenvalues --   -0.54142  -0.53798  -0.53520  -0.52786  -0.52572
 Alpha  occ. eigenvalues --   -0.52505  -0.52433  -0.51869  -0.51735  -0.51609
 Alpha  occ. eigenvalues --   -0.50856  -0.50599  -0.50475  -0.50129  -0.49785
 Alpha  occ. eigenvalues --   -0.49703  -0.49278  -0.49194  -0.48825  -0.48595
 Alpha  occ. eigenvalues --   -0.48469  -0.48286  -0.48087  -0.47755  -0.47345
 Alpha  occ. eigenvalues --   -0.47253  -0.47161  -0.46689  -0.46491  -0.46240
 Alpha  occ. eigenvalues --   -0.46043  -0.45867  -0.45718  -0.45482  -0.45309
 Alpha  occ. eigenvalues --   -0.45169  -0.45007  -0.44805  -0.44397  -0.43955
 Alpha  occ. eigenvalues --   -0.43911  -0.43629  -0.43112  -0.42793  -0.42663
 Alpha  occ. eigenvalues --   -0.41363  -0.41206  -0.40941  -0.39956  -0.38487
 Alpha  occ. eigenvalues --   -0.37631  -0.36917  -0.35402  -0.34445  -0.34125
 Alpha  occ. eigenvalues --   -0.33313  -0.32609  -0.32079  -0.31745  -0.26533
 Alpha  occ. eigenvalues --   -0.21167
 Alpha virt. eigenvalues --   -0.08159  -0.02147  -0.00463   0.00900   0.01298
 Alpha virt. eigenvalues --    0.02446   0.02969   0.03134   0.03243   0.05082
 Alpha virt. eigenvalues --    0.06342   0.07113   0.07424   0.07652   0.08172

 Mulliken charges:
               1
     1  Mg   0.422490
     2  C   -0.055293
     3  C   -0.072990
     4  C   -0.071773
     5  C   -0.087328
     6  N   -0.258366
     7  C    0.120611
     8  C    0.010909
     9  C    0.005949
    10  C    0.110713
    11  C   -0.049290
    12  C   -0.018479
    13  C    0.005853
    14  C    0.462632
    15  O   -0.506768
    16  O   -0.270472
    17  N   -0.341573
    18  C    0.110440
    19  C    0.014946
    20  C   -0.047614
    21  C    0.151828
    22  C   -0.047279
    23  C    0.330538
    24  O   -0.522176
    25  C   -0.029666
    26  N   -0.278028
    27  C    0.155648
    28  C    0.010120
    29  C    0.008639
    30  C    0.127235
    31  C   -0.054306
    32  C   -0.021842
    33  C   -0.056378
    34  N   -0.300344
    35  C    0.072176
    36  C    0.033608
    37  C   -0.057894
    38  C    0.106850
    39  C   -0.028284
    40  C    0.338346
    41  O   -0.552063
    42  C    0.068483
    43  C    0.502098
    44  O   -0.518076
    45  O   -0.275365
    46  C    0.072010
    47  C    0.101416
    48  C   -0.088031
    49  C   -0.018676
    50  C   -0.048723
    51  C   -0.014904
    52  C   -0.019915
    53  C   -0.032816
    54  C   -0.007152
    55  C   -0.061120
    56  C   -0.024135
    57  C   -0.030868
    58  C   -0.049060
    59  C   -0.010361
    60  C   -0.063640
    61  C   -0.030725
    62  C   -0.044388
    63  C   -0.030147
    64  C   -0.014121
    65  C   -0.064883
    66  C   -0.064900
    67  H    0.020521
    68  H    0.030450
    69  H    0.024322
    70  H    0.045611
    71  H    0.025791
    72  H    0.026318
    73  H    0.027365
    74  H    0.029892
    75  H    0.019892
    76  H    0.019256
    77  H    0.035013
    78  H    0.037546
    79  H    0.047373
    80  H    0.016412
    81  H    0.034370
    82  H    0.034208
    83  H    0.036246
    84  H    0.035661
    85  H    0.023846
    86  H    0.026488
    87  H    0.021379
    88  H    0.027518
    89  H    0.033143
    90  H    0.018086
    91  H    0.020360
    92  H    0.016458
    93  H    0.039424
    94  H    0.013613
    95  H    0.030182
    96  H    0.044830
    97  H    0.031048
    98  H    0.056278
    99  H    0.033144
   100  H    0.050284
   101  H    0.044524
   102  H    0.067335
   103  H    0.036203
   104  H    0.029839
   105  H    0.033409
   106  H    0.014031
   107  H    0.037450
   108  H    0.021151
   109  H    0.013362
   110  H    0.022243
   111  H    0.016106
   112  H    0.019759
   113  H    0.019224
   114  H    0.023475
   115  H    0.015455
   116  H    0.012066
   117  H    0.012365
   118  H    0.008075
   119  H    0.014557
   120  H    0.012046
   121  H    0.018350
   122  H    0.022529
   123  H    0.013099
   124  H    0.027510
   125  H    0.031861
   126  H    0.020070
   127  H    0.008296
   128  H    0.021926
   129  H    0.019594
   130  H    0.008589
   131  H    0.021769
   132  H    0.018541
   133  H    0.018048
   134  H    0.024354
   135  H    0.008534
   136  H    0.023096
   137  H    0.020998
   138  H    0.017901
   139  H    0.018883
   140  H    0.027725
 Sum of Mulliken charges =  -0.00000

 Dipole moment (field-independent basis, Debye):
    X=             -7.1249    Y=              4.5183    Z=              5.5859  Tot=             10.1183
 N-N= 4.339929363158D+03 E-N= 0.000000000000D+00  KE=-9.354298155006D+03
 Leave Link  601 at Wed May  4 06:25:36 2022, MaxMem=  6710886400 cpu:               0.8 elap:               0.0
 (Enter /sw/apps/gaussian-16.0/g16/l9999.exe)
 1\1\GINC-BP1-COMPUTE065\SP\RZINDO CIS\STO-3G\C55H74Mg1N4O6\OF15641\04-
 May-2022\0\\#p ZINDO=(nstates=5)\\step_1401_chromophore_24 ZINDO\\0,1\
 Mg,0,0.177,43.474,25.517\C,0,2.374,43.055,28.226\C,0,-2.514,42.911,27.
 703\C,0,-2.016,43.361,22.988\C,0,2.819,43.929,23.403\N,0,0.035,43.093,
 27.644\C,0,0.985,43.1,28.569\C,0,0.437,42.977,30.007\C,0,-0.995,42.549
 ,29.767\C,0,-1.191,42.94,28.309\C,0,-1.318,41.028,30.013\C,0,0.446,44.
 295,30.875\C,0,-0.141,44.228,32.32\C,0,-0.145,42.749,32.933\O,0,0.85,4

 Normal termination of Gaussian 16 at Wed May  4 06:25:37 2022.
