 Gaussian 16, Revision A.03,
 Gaussian 16:  ES64L-G16RevA.03 25-Dec-2016

 ------------------------------
 #p blyp/Def2SVP td=(nstates=5)
 ------------------------------

 ---------------------------------------------------
 step_1801_chromophore_11 TDDFT with blyp functional
 ---------------------------------------------------
 Symbolic Z-matrix:
 Charge =  0 Multiplicity = 1

                         Standard orientation:
 ---------------------------------------------------------------------
 Center     Atomic      Atomic             Coordinates (Angstroms)
 Number     Number       Type             X           Y           Z
 ---------------------------------------------------------------------
      1         12           0       -4.707095    1.503771    0.669238
      2          6           0       -5.705282   -1.771330   -0.181021
      3          6           0       -2.680646    0.222344    3.094687
      4          6           0       -3.075749    4.485333    0.753571
      5          6           0       -6.597988    2.682066   -2.053954
      6          7           0       -4.069243   -0.651430    1.278873
      7          6           0       -4.780598   -1.782785    0.897332
      8          6           0       -4.508565   -2.953092    1.875930
      9          6           0       -3.881601   -2.187059    3.053169
     10          6           0       -3.456380   -0.845810    2.468347
     11          6           0       -4.772094   -1.971253    4.301454
     12          6           0       -3.656045   -4.157529    1.379985
     13          6           0       -2.464699   -3.942763    0.476294
     14          6           0       -1.072861   -4.266979    1.140121
     15          8           0       -0.901376   -4.095971    2.339296
     16          8           0       -0.125597   -4.762799    0.242958
     17          7           0       -3.101041    2.308378    1.728376
     18          6           0       -2.413473    1.575307    2.736187
     19          6           0       -1.554153    2.484008    3.430388
     20          6           0       -1.599402    3.788271    2.762696
     21          6           0       -2.631857    3.540837    1.678253
     22          6           0       -0.667843    1.913082    4.573495
     23          6           0       -0.790977    5.043464    3.200126
     24          8           0       -0.071492    5.117184    4.203753
     25          6           0       -0.996693    6.300323    2.446925
     26          7           0       -4.743522    3.359547   -0.568438
     27          6           0       -3.989037    4.474437   -0.312924
     28          6           0       -4.190327    5.575654   -1.399827
     29          6           0       -5.450641    4.960400   -2.184938
     30          6           0       -5.667666    3.577281   -1.548860
     31          6           0       -4.407577    6.938415   -0.628227
     32          6           0       -5.315198    4.902299   -3.796815
     33          6           0       -4.615547    3.616181   -4.361375
     34          7           0       -5.976862    0.711489   -0.772630
     35          6           0       -6.736890    1.323554   -1.762213
     36          6           0       -7.580070    0.301810   -2.420443
     37          6           0       -7.156751   -0.903318   -1.841583
     38          6           0       -6.161042   -0.609290   -0.903864
     39          6           0       -8.574035    0.708113   -3.449760
     40          6           0       -7.420059   -2.305193   -1.830541
     41          8           0       -8.275605   -2.908095   -2.468685
     42          6           0       -6.486164   -2.929963   -0.716922
     43          6           0       -5.538884   -3.822474   -1.442675
     44          8           0       -4.744072   -3.481492   -2.330729
     45          8           0       -5.770069   -5.123387   -1.053118
     46          6           0       -4.926233   -6.174584   -1.589464
     47          6           0        1.209539   -4.972913    0.892985
     48          6           0        2.196158   -4.436997   -0.039155
     49          6           0        3.513004   -4.208355    0.237357
     50          6           0        4.248176   -4.546397    1.484632
     51          6           0        4.416008   -3.824876   -0.976465
     52          6           0        4.655016   -2.335540   -1.234788
     53          6           0        6.067205   -1.805861   -0.987044
     54          6           0        6.194411   -0.195659   -1.189173
     55          6           0        6.674136    0.195588   -2.604639
     56          6           0        7.254032    0.370634   -0.137528
     57          6           0        8.565835   -0.495283   -0.171970
     58          6           0        9.795012    0.516721   -0.218660
     59          6           0       11.002716    0.173556    0.658831
     60          6           0       10.841086    0.633636    2.124461
     61          6           0       12.313284    0.866055    0.017490
     62          6           0       13.039746   -0.112288   -1.001577
     63          6           0       14.563627    0.136179   -0.919787
     64          6           0       14.965278    1.522573   -1.638476
     65          6           0       15.848345    1.024567   -2.853338
     66          6           0       15.748968    2.538036   -0.857672
     67          1           0       -2.327593   -0.096686    4.076840
     68          1           0       -2.549669    5.441184    0.721358
     69          1           0       -7.248179    3.013760   -2.865936
     70          1           0       -5.482977   -3.315603    2.203639
     71          1           0       -2.989311   -2.693953    3.421453
     72          1           0       -5.160144   -0.952858    4.290939
     73          1           0       -4.075066   -2.049230    5.136205
     74          1           0       -5.609968   -2.657154    4.424352
     75          1           0       -4.336724   -4.841833    0.874917
     76          1           0       -3.314667   -4.667015    2.281372
     77          1           0       -2.510138   -3.013880   -0.092202
     78          1           0       -2.742293   -4.621285   -0.329570
     79          1           0        0.038740    1.206198    4.139653
     80          1           0       -1.223759    1.472234    5.400980
     81          1           0       -0.016636    2.683432    4.986472
     82          1           0       -0.361878    7.081937    2.865684
     83          1           0       -2.070346    6.474245    2.526143
     84          1           0       -0.780551    6.093096    1.399419
     85          1           0       -3.266670    5.736788   -1.955775
     86          1           0       -6.384616    5.481108   -1.970270
     87          1           0       -3.694869    7.680419   -0.989257
     88          1           0       -4.367616    6.928384    0.460847
     89          1           0       -5.358973    7.270960   -1.042323
     90          1           0       -4.781261    5.761476   -4.203388
     91          1           0       -6.269275    5.043624   -4.303782
     92          1           0       -5.385682    2.875965   -4.580762
     93          1           0       -3.927710    3.201759   -3.623601
     94          1           0       -4.145072    4.014052   -5.260538
     95          1           0       -9.252632    1.381516   -2.924777
     96          1           0       -9.099887   -0.162176   -3.843266
     97          1           0       -8.018345    1.220344   -4.234660
     98          1           0       -6.933937   -3.418723    0.148332
     99          1           0       -5.613340   -6.886254   -2.048015
    100          1           0       -4.460465   -6.703866   -0.758143
    101          1           0       -4.192399   -5.812819   -2.309841
    102          1           0        1.444022   -6.029538    1.023453
    103          1           0        1.368269   -4.364139    1.782633
    104          1           0        1.907142   -4.179373   -1.058087
    105          1           0        3.563070   -4.323385    2.303315
    106          1           0        5.269005   -4.173574    1.562679
    107          1           0        4.183298   -5.632617    1.543901
    108          1           0        4.075133   -4.171753   -1.951537
    109          1           0        5.389241   -4.279688   -0.792383
    110          1           0        4.027455   -1.780298   -0.536717
    111          1           0        4.319811   -2.065465   -2.235622
    112          1           0        6.739572   -2.300967   -1.686843
    113          1           0        6.419248   -2.128792   -0.006552
    114          1           0        5.230586    0.314582   -1.184048
    115          1           0        6.985239   -0.703575   -3.136308
    116          1           0        7.361212    1.028078   -2.450964
    117          1           0        5.829284    0.558882   -3.190668
    118          1           0        6.819941    0.233843    0.852343
    119          1           0        7.363965    1.454591   -0.176726
    120          1           0        8.668285   -1.237004   -0.964095
    121          1           0        8.666622   -1.025476    0.775014
    122          1           0        9.488932    1.562576   -0.259223
    123          1           0       10.117042    0.458144   -1.257666
    124          1           0       11.000014   -0.915973    0.609195
    125          1           0       10.050867    1.381554    2.194851
    126          1           0       11.788342    0.954030    2.558258
    127          1           0       10.653949   -0.227905    2.764072
    128          1           0       12.957650    1.180779    0.838418
    129          1           0       11.951307    1.722051   -0.551609
    130          1           0       12.598794    0.017523   -1.990352
    131          1           0       12.897544   -1.137363   -0.657803
    132          1           0       15.115130   -0.743077   -1.255423
    133          1           0       14.822016    0.177031    0.138530
    134          1           0       14.129876    2.000611   -2.149376
    135          1           0       15.288481    0.272200   -3.409250
    136          1           0       16.727415    0.551439   -2.416046
    137          1           0       16.141373    1.844313   -3.509120
    138          1           0       16.829625    2.412398   -0.921511
    139          1           0       15.466209    2.452160    0.191531
    140          1           0       15.553113    3.570573   -1.148917
 ---------------------------------------------------------------------

 SCF Done:  E(RB-LYP) =  -3007.37325544     A.U. after   21 cycles

 Excitation energies and oscillator strengths:

 Excited State   1:      Singlet-A      1.7953 eV  690.60 nm  f=0.2673  <S**2>=0.000
     245 -> 248        0.20353
     246 -> 247        0.68561
     246 <- 247       -0.14305
 This state for optimization and/or second-order correction.
 Total Energy, E(TD-HF/TD-DFT) =  -3007.30727930
 Copying the excited state density for this state as the 1-particle RhoCI density.

 Excited State   2:      Singlet-A      1.8988 eV  652.95 nm  f=0.0027  <S**2>=0.000
     244 -> 247        0.68859
     245 -> 247        0.15152

 Excited State   3:      Singlet-A      1.9908 eV  622.80 nm  f=0.0678  <S**2>=0.000
     243 -> 247        0.18721
     244 -> 247       -0.15610
     245 -> 247        0.60927
     246 -> 248       -0.23791

 Excited State   4:      Singlet-A      2.1003 eV  590.31 nm  f=0.0076  <S**2>=0.000
     243 -> 247        0.67973
     245 -> 247       -0.15844

 Excited State   5:      Singlet-A      2.1275 eV  582.77 nm  f=0.0001  <S**2>=0.000
     242 -> 247        0.70694

 The electronic state is 1-A.
 Alpha  occ. eigenvalues --  -46.28592 -18.83068 -18.82663 -18.77970 -18.77104
 Alpha  occ. eigenvalues --  -18.75920 -18.75365 -14.03298 -14.02894 -14.01318
 Alpha  occ. eigenvalues --  -14.01239 -10.05170 -10.04428  -9.99892  -9.99802
 Alpha  occ. eigenvalues --   -9.98119  -9.97973  -9.96911  -9.96738  -9.96652
 Alpha  occ. eigenvalues --   -9.96424  -9.96399  -9.95724  -9.95458  -9.95166
 Alpha  occ. eigenvalues --   -9.94736  -9.94720  -9.94191  -9.94063  -9.94055
 Alpha  occ. eigenvalues --   -9.93937  -9.93841  -9.93573  -9.93496  -9.93494
 Alpha  occ. eigenvalues --   -9.93466  -9.93249  -9.92750  -9.92724  -9.92713
 Alpha  occ. eigenvalues --   -9.92681  -9.92659  -9.92647  -9.92585  -9.92236
 Alpha  occ. eigenvalues --   -9.92001  -9.91973  -9.91787  -9.91663  -9.91650
 Alpha  occ. eigenvalues --   -9.91592  -9.91494  -9.91385  -9.91313  -9.91272
 Alpha  occ. eigenvalues --   -9.91265  -9.91206  -9.91120  -9.91059  -9.91042
 Alpha  occ. eigenvalues --   -9.90844  -9.90526  -9.90453  -9.90427  -9.90381
 Alpha  occ. eigenvalues --   -9.90359  -2.93006  -1.73406  -1.72913  -1.72710
 Alpha  occ. eigenvalues --   -0.97819  -0.97515  -0.91340  -0.90545  -0.90505
 Alpha  occ. eigenvalues --   -0.89736  -0.86413  -0.85548  -0.85444  -0.84600
 Alpha  occ. eigenvalues --   -0.75990  -0.73497  -0.72623  -0.72104  -0.72070
 Alpha  occ. eigenvalues --   -0.71238  -0.70972  -0.70623  -0.70401  -0.70178
 Alpha  occ. eigenvalues --   -0.69326  -0.68503  -0.68168  -0.67770  -0.67125
 Alpha  occ. eigenvalues --   -0.66229  -0.66076  -0.65466  -0.65364  -0.64645
 Alpha  occ. eigenvalues --   -0.63804  -0.62722  -0.61901  -0.61310  -0.60539
 Alpha  occ. eigenvalues --   -0.60416  -0.59802  -0.59713  -0.59146  -0.57915
 Alpha  occ. eigenvalues --   -0.57727  -0.57374  -0.56719  -0.55398  -0.54718
 Alpha  occ. eigenvalues --   -0.54073  -0.53195  -0.52282  -0.51705  -0.51308
 Alpha  occ. eigenvalues --   -0.51069  -0.50911  -0.50693  -0.50342  -0.49667
 Alpha  occ. eigenvalues --   -0.49287  -0.48785  -0.48661  -0.47687  -0.46505
 Alpha  occ. eigenvalues --   -0.46382  -0.45879  -0.45115  -0.45030  -0.44811
 Alpha  occ. eigenvalues --   -0.44384  -0.43643  -0.43143  -0.42773  -0.42471
 Alpha  occ. eigenvalues --   -0.42200  -0.41870  -0.41600  -0.41455  -0.40982
 Alpha  occ. eigenvalues --   -0.40806  -0.40686  -0.40408  -0.40252  -0.40029
 Alpha  occ. eigenvalues --   -0.39545  -0.39328  -0.39241  -0.39206  -0.39129
 Alpha  occ. eigenvalues --   -0.38989  -0.38789  -0.38591  -0.38516  -0.38193
 Alpha  occ. eigenvalues --   -0.38047  -0.37933  -0.37506  -0.37449  -0.37364
 Alpha  occ. eigenvalues --   -0.37188  -0.36933  -0.36844  -0.36363  -0.36140
 Alpha  occ. eigenvalues --   -0.36065  -0.35875  -0.35754  -0.35276  -0.35136
 Alpha  occ. eigenvalues --   -0.35008  -0.34827  -0.34638  -0.34549  -0.34469
 Alpha  occ. eigenvalues --   -0.34409  -0.34139  -0.34085  -0.33862  -0.33738
 Alpha  occ. eigenvalues --   -0.33364  -0.33314  -0.33115  -0.33059  -0.32926
 Alpha  occ. eigenvalues --   -0.32899  -0.32871  -0.32620  -0.32545  -0.32439
 Alpha  occ. eigenvalues --   -0.32130  -0.32063  -0.31951  -0.31818  -0.31547
 Alpha  occ. eigenvalues --   -0.31437  -0.31018  -0.30948  -0.30534  -0.30315
 Alpha  occ. eigenvalues --   -0.30207  -0.30171  -0.30028  -0.29831  -0.29683
 Alpha  occ. eigenvalues --   -0.29598  -0.29395  -0.29351  -0.28776  -0.28650
 Alpha  occ. eigenvalues --   -0.28551  -0.28232  -0.27921  -0.27732  -0.27661
 Alpha  occ. eigenvalues --   -0.27443  -0.27117  -0.26787  -0.26503  -0.26454
 Alpha  occ. eigenvalues --   -0.26181  -0.26120  -0.26064  -0.25526  -0.25345
 Alpha  occ. eigenvalues --   -0.25095  -0.25036  -0.24597  -0.23790  -0.23462
 Alpha  occ. eigenvalues --   -0.22960  -0.22601  -0.22554  -0.21778  -0.20806
 Alpha  occ. eigenvalues --   -0.20329  -0.19341  -0.19094  -0.18433  -0.17253
 Alpha  occ. eigenvalues --   -0.15843
 Alpha virt. eigenvalues --   -0.11523  -0.07106  -0.06412  -0.04714  -0.04048
 Alpha virt. eigenvalues --   -0.03326  -0.02937  -0.01826  -0.01675   0.00104
 Alpha virt. eigenvalues --    0.01269   0.01689   0.02354   0.02470   0.02920

 Mulliken charges:
               1
     1  Mg   0.688421
     2  C   -0.055489
     3  C   -0.051219
     4  C   -0.039979
     5  C   -0.067094
     6  N   -0.195403
     7  C   -0.094128
     8  C    0.060134
     9  C    0.006479
    10  C   -0.034036
    11  C    0.121592
    12  C    0.101898
    13  C    0.106948
    14  C    0.127732
    15  O   -0.188956
    16  O   -0.278922
    17  N   -0.282848
    18  C    0.160555
    19  C   -0.128260
    20  C   -0.022824
    21  C    0.152591
    22  C    0.156385
    23  C   -0.067805
    24  O   -0.164204
    25  C    0.146948
    26  N   -0.204327
    27  C   -0.067611
    28  C    0.020488
    29  C    0.096862
    30  C    0.015870
    31  C    0.102710
    32  C    0.026610
    33  C    0.077455
    34  N   -0.264921
    35  C    0.077511
    36  C   -0.189862
    37  C    0.121998
    38  C    0.103272
    39  C    0.187361
    40  C   -0.061797
    41  O   -0.131035
    42  C    0.131340
    43  C    0.099772
    44  O   -0.193488
    45  O   -0.267127
    46  C    0.200826
    47  C    0.349322
    48  C   -0.144720
    49  C   -0.180175
    50  C    0.190276
    51  C    0.145893
    52  C    0.078969
    53  C    0.063434
    54  C   -0.087247
    55  C    0.114610
    56  C    0.085167
    57  C    0.072828
    58  C    0.053196
    59  C   -0.063693
    60  C    0.127065
    61  C    0.086640
    62  C    0.066330
    63  C    0.100243
    64  C   -0.077387
    65  C    0.065721
    66  C    0.126099
    67  H   -0.055635
    68  H   -0.092218
    69  H   -0.068797
    70  H   -0.042572
    71  H   -0.017183
    72  H   -0.008912
    73  H   -0.000554
    74  H   -0.001706
    75  H   -0.021907
    76  H   -0.016687
    77  H    0.029021
    78  H   -0.024574
    79  H    0.002667
    80  H    0.004409
    81  H   -0.005755
    82  H   -0.003507
    83  H    0.015488
    84  H    0.016140
    85  H   -0.001545
    86  H   -0.024427
    87  H   -0.018413
    88  H    0.017737
    89  H   -0.016766
    90  H   -0.026304
    91  H   -0.029592
    92  H    0.002298
    93  H    0.014175
    94  H   -0.004723
    95  H    0.005659
    96  H    0.007491
    97  H    0.009676
    98  H   -0.014410
    99  H    0.017514
   100  H    0.014815
   101  H    0.038632
   102  H    0.012764
   103  H    0.025489
   104  H   -0.030108
   105  H   -0.024132
   106  H    0.012236
   107  H   -0.006685
   108  H   -0.031700
   109  H   -0.046691
   110  H   -0.030474
   111  H   -0.033923
   112  H   -0.031631
   113  H   -0.027480
   114  H   -0.037011
   115  H   -0.020017
   116  H   -0.012092
   117  H   -0.026164
   118  H   -0.036412
   119  H   -0.022365
   120  H   -0.008599
   121  H   -0.029141
   122  H   -0.037388
   123  H   -0.051609
   124  H   -0.036263
   125  H   -0.005539
   126  H   -0.026891
   127  H   -0.026370
   128  H   -0.030245
   129  H   -0.024486
   130  H   -0.016907
   131  H   -0.034029
   132  H   -0.034804
   133  H   -0.046103
   134  H   -0.025003
   135  H   -0.016110
   136  H   -0.013520
   137  H   -0.020297
   138  H   -0.022010
   139  H   -0.022580
   140  H   -0.018237
 Sum of Mulliken charges =  -0.00000

 Dipole moment (field-independent basis, Debye):
    X=             -0.4156    Y=              0.1726    Z=             -0.1208  Tot=              0.4660
 Quadrupole moment (field-independent basis, Debye-Ang):
   XX=           -410.4731   YY=           -378.2275   ZZ=           -419.6380
   XY=            -35.5577   XZ=            -14.6966   YZ=            -33.8489

 Normal termination of Gaussian 16 at Wed May  4 14:54:44 2022.
