 Gaussian 16, Revision A.03,
 Gaussian 16:  ES64L-G16RevA.03 25-Dec-2016

 -----------------------------------
 #p cam-b3lyp/Def2SVP td=(nstates=5)
 -----------------------------------

 --------------------------------------------------------
 step_1801_chromophore_11 TDDFT with cam-b3lyp functional
 --------------------------------------------------------
 Symbolic Z-matrix:
 Charge =  0 Multiplicity = 1

                         Standard orientation:
 ---------------------------------------------------------------------
 Center     Atomic      Atomic             Coordinates (Angstroms)
 Number     Number       Type             X           Y           Z
 ---------------------------------------------------------------------
      1         12           0       -4.707095    1.503771    0.669238
      2          6           0       -5.705282   -1.771330   -0.181021
      3          6           0       -2.680646    0.222344    3.094687
      4          6           0       -3.075749    4.485333    0.753571
      5          6           0       -6.597988    2.682066   -2.053954
      6          7           0       -4.069243   -0.651430    1.278873
      7          6           0       -4.780598   -1.782785    0.897332
      8          6           0       -4.508565   -2.953092    1.875930
      9          6           0       -3.881601   -2.187059    3.053169
     10          6           0       -3.456380   -0.845810    2.468347
     11          6           0       -4.772094   -1.971253    4.301454
     12          6           0       -3.656045   -4.157529    1.379985
     13          6           0       -2.464699   -3.942763    0.476294
     14          6           0       -1.072861   -4.266979    1.140121
     15          8           0       -0.901376   -4.095971    2.339296
     16          8           0       -0.125597   -4.762799    0.242958
     17          7           0       -3.101041    2.308378    1.728376
     18          6           0       -2.413473    1.575307    2.736187
     19          6           0       -1.554153    2.484008    3.430388
     20          6           0       -1.599402    3.788271    2.762696
     21          6           0       -2.631857    3.540837    1.678253
     22          6           0       -0.667843    1.913082    4.573495
     23          6           0       -0.790977    5.043464    3.200126
     24          8           0       -0.071492    5.117184    4.203753
     25          6           0       -0.996693    6.300323    2.446925
     26          7           0       -4.743522    3.359547   -0.568438
     27          6           0       -3.989037    4.474437   -0.312924
     28          6           0       -4.190327    5.575654   -1.399827
     29          6           0       -5.450641    4.960400   -2.184938
     30          6           0       -5.667666    3.577281   -1.548860
     31          6           0       -4.407577    6.938415   -0.628227
     32          6           0       -5.315198    4.902299   -3.796815
     33          6           0       -4.615547    3.616181   -4.361375
     34          7           0       -5.976862    0.711489   -0.772630
     35          6           0       -6.736890    1.323554   -1.762213
     36          6           0       -7.580070    0.301810   -2.420443
     37          6           0       -7.156751   -0.903318   -1.841583
     38          6           0       -6.161042   -0.609290   -0.903864
     39          6           0       -8.574035    0.708113   -3.449760
     40          6           0       -7.420059   -2.305193   -1.830541
     41          8           0       -8.275605   -2.908095   -2.468685
     42          6           0       -6.486164   -2.929963   -0.716922
     43          6           0       -5.538884   -3.822474   -1.442675
     44          8           0       -4.744072   -3.481492   -2.330729
     45          8           0       -5.770069   -5.123387   -1.053118
     46          6           0       -4.926233   -6.174584   -1.589464
     47          6           0        1.209539   -4.972913    0.892985
     48          6           0        2.196158   -4.436997   -0.039155
     49          6           0        3.513004   -4.208355    0.237357
     50          6           0        4.248176   -4.546397    1.484632
     51          6           0        4.416008   -3.824876   -0.976465
     52          6           0        4.655016   -2.335540   -1.234788
     53          6           0        6.067205   -1.805861   -0.987044
     54          6           0        6.194411   -0.195659   -1.189173
     55          6           0        6.674136    0.195588   -2.604639
     56          6           0        7.254032    0.370634   -0.137528
     57          6           0        8.565835   -0.495283   -0.171970
     58          6           0        9.795012    0.516721   -0.218660
     59          6           0       11.002716    0.173556    0.658831
     60          6           0       10.841086    0.633636    2.124461
     61          6           0       12.313284    0.866055    0.017490
     62          6           0       13.039746   -0.112288   -1.001577
     63          6           0       14.563627    0.136179   -0.919787
     64          6           0       14.965278    1.522573   -1.638476
     65          6           0       15.848345    1.024567   -2.853338
     66          6           0       15.748968    2.538036   -0.857672
     67          1           0       -2.327593   -0.096686    4.076840
     68          1           0       -2.549669    5.441184    0.721358
     69          1           0       -7.248179    3.013760   -2.865936
     70          1           0       -5.482977   -3.315603    2.203639
     71          1           0       -2.989311   -2.693953    3.421453
     72          1           0       -5.160144   -0.952858    4.290939
     73          1           0       -4.075066   -2.049230    5.136205
     74          1           0       -5.609968   -2.657154    4.424352
     75          1           0       -4.336724   -4.841833    0.874917
     76          1           0       -3.314667   -4.667015    2.281372
     77          1           0       -2.510138   -3.013880   -0.092202
     78          1           0       -2.742293   -4.621285   -0.329570
     79          1           0        0.038740    1.206198    4.139653
     80          1           0       -1.223759    1.472234    5.400980
     81          1           0       -0.016636    2.683432    4.986472
     82          1           0       -0.361878    7.081937    2.865684
     83          1           0       -2.070346    6.474245    2.526143
     84          1           0       -0.780551    6.093096    1.399419
     85          1           0       -3.266670    5.736788   -1.955775
     86          1           0       -6.384616    5.481108   -1.970270
     87          1           0       -3.694869    7.680419   -0.989257
     88          1           0       -4.367616    6.928384    0.460847
     89          1           0       -5.358973    7.270960   -1.042323
     90          1           0       -4.781261    5.761476   -4.203388
     91          1           0       -6.269275    5.043624   -4.303782
     92          1           0       -5.385682    2.875965   -4.580762
     93          1           0       -3.927710    3.201759   -3.623601
     94          1           0       -4.145072    4.014052   -5.260538
     95          1           0       -9.252632    1.381516   -2.924777
     96          1           0       -9.099887   -0.162176   -3.843266
     97          1           0       -8.018345    1.220344   -4.234660
     98          1           0       -6.933937   -3.418723    0.148332
     99          1           0       -5.613340   -6.886254   -2.048015
    100          1           0       -4.460465   -6.703866   -0.758143
    101          1           0       -4.192399   -5.812819   -2.309841
    102          1           0        1.444022   -6.029538    1.023453
    103          1           0        1.368269   -4.364139    1.782633
    104          1           0        1.907142   -4.179373   -1.058087
    105          1           0        3.563070   -4.323385    2.303315
    106          1           0        5.269005   -4.173574    1.562679
    107          1           0        4.183298   -5.632617    1.543901
    108          1           0        4.075133   -4.171753   -1.951537
    109          1           0        5.389241   -4.279688   -0.792383
    110          1           0        4.027455   -1.780298   -0.536717
    111          1           0        4.319811   -2.065465   -2.235622
    112          1           0        6.739572   -2.300967   -1.686843
    113          1           0        6.419248   -2.128792   -0.006552
    114          1           0        5.230586    0.314582   -1.184048
    115          1           0        6.985239   -0.703575   -3.136308
    116          1           0        7.361212    1.028078   -2.450964
    117          1           0        5.829284    0.558882   -3.190668
    118          1           0        6.819941    0.233843    0.852343
    119          1           0        7.363965    1.454591   -0.176726
    120          1           0        8.668285   -1.237004   -0.964095
    121          1           0        8.666622   -1.025476    0.775014
    122          1           0        9.488932    1.562576   -0.259223
    123          1           0       10.117042    0.458144   -1.257666
    124          1           0       11.000014   -0.915973    0.609195
    125          1           0       10.050867    1.381554    2.194851
    126          1           0       11.788342    0.954030    2.558258
    127          1           0       10.653949   -0.227905    2.764072
    128          1           0       12.957650    1.180779    0.838418
    129          1           0       11.951307    1.722051   -0.551609
    130          1           0       12.598794    0.017523   -1.990352
    131          1           0       12.897544   -1.137363   -0.657803
    132          1           0       15.115130   -0.743077   -1.255423
    133          1           0       14.822016    0.177031    0.138530
    134          1           0       14.129876    2.000611   -2.149376
    135          1           0       15.288481    0.272200   -3.409250
    136          1           0       16.727415    0.551439   -2.416046
    137          1           0       16.141373    1.844313   -3.509120
    138          1           0       16.829625    2.412398   -0.921511
    139          1           0       15.466209    2.452160    0.191531
    140          1           0       15.553113    3.570573   -1.148917
 ---------------------------------------------------------------------

 SCF Done:  E(RCAM-B3LYP) =  -3007.15190446     A.U. after   18 cycles

 Excitation energies and oscillator strengths:

 Excited State   1:      Singlet-A      1.7065 eV  726.53 nm  f=0.3475  <S**2>=0.000
     245 -> 248        0.19274
     246 -> 247        0.68165
     245 <- 248        0.11089
 This state for optimization and/or second-order correction.
 Total Energy, E(TD-HF/TD-DFT) =  -3007.08919078
 Copying the excited state density for this state as the 1-particle RhoCI density.

 Excited State   2:      Singlet-A      2.2242 eV  557.43 nm  f=0.0864  <S**2>=0.000
     245 -> 247        0.62741
     246 -> 248       -0.31459

 Excited State   3:      Singlet-A      3.4173 eV  362.82 nm  f=0.1547  <S**2>=0.000
     242 -> 247       -0.18661
     243 -> 247        0.54382
     245 -> 247       -0.14380
     246 -> 248       -0.36723

 Excited State   4:      Singlet-A      3.4818 eV  356.09 nm  f=0.4837  <S**2>=0.000
     242 -> 247        0.12377
     243 -> 247        0.41844
     245 -> 247        0.25014
     246 -> 248        0.47313

 Excited State   5:      Singlet-A      3.5993 eV  344.47 nm  f=0.0009  <S**2>=0.000
     239 -> 247        0.11159
     240 -> 247        0.15911
     246 -> 249        0.43391
     246 -> 250        0.48194

 The electronic state is 1-A.
 Alpha  occ. eigenvalues --  -46.90267 -19.25935 -19.25696 -19.20962 -19.20295
 Alpha  occ. eigenvalues --  -19.19010 -19.18647 -14.42365 -14.41618 -14.39896
 Alpha  occ. eigenvalues --  -14.39573 -10.40557 -10.40050 -10.35231 -10.35074
 Alpha  occ. eigenvalues --  -10.32143 -10.32011 -10.31599 -10.31302 -10.31169
 Alpha  occ. eigenvalues --  -10.31136 -10.30660 -10.30312 -10.29494 -10.29213
 Alpha  occ. eigenvalues --  -10.28877 -10.28837 -10.28690 -10.28591 -10.28458
 Alpha  occ. eigenvalues --  -10.28173 -10.28134 -10.28041 -10.28040 -10.27500
 Alpha  occ. eigenvalues --  -10.27481 -10.26992 -10.26858 -10.26688 -10.26519
 Alpha  occ. eigenvalues --  -10.26473 -10.26354 -10.26297 -10.26223 -10.26188
 Alpha  occ. eigenvalues --  -10.25831 -10.25720 -10.25716 -10.25619 -10.25425
 Alpha  occ. eigenvalues --  -10.25309 -10.25220 -10.25138 -10.25069 -10.25053
 Alpha  occ. eigenvalues --  -10.25002 -10.24955 -10.24931 -10.24930 -10.24820
 Alpha  occ. eigenvalues --  -10.24481 -10.24135 -10.24089 -10.24037 -10.24005
 Alpha  occ. eigenvalues --  -10.23957  -3.18571  -1.93450  -1.93027  -1.92867
 Alpha  occ. eigenvalues --   -1.16416  -1.15936  -1.09652  -1.09004  -1.08329
 Alpha  occ. eigenvalues --   -1.07776  -1.04049  -1.03204  -1.03134  -1.02147
 Alpha  occ. eigenvalues --   -0.93152  -0.90354  -0.89436  -0.88889  -0.88792
 Alpha  occ. eigenvalues --   -0.87919  -0.87487  -0.87206  -0.86873  -0.86726
 Alpha  occ. eigenvalues --   -0.85792  -0.85176  -0.84421  -0.83960  -0.83370
 Alpha  occ. eigenvalues --   -0.82205  -0.82150  -0.81423  -0.81213  -0.80579
 Alpha  occ. eigenvalues --   -0.79614  -0.78368  -0.77369  -0.76913  -0.76118
 Alpha  occ. eigenvalues --   -0.75790  -0.75164  -0.74986  -0.74447  -0.72986
 Alpha  occ. eigenvalues --   -0.72801  -0.72369  -0.71649  -0.70226  -0.69256
 Alpha  occ. eigenvalues --   -0.68674  -0.67779  -0.66789  -0.65985  -0.65631
 Alpha  occ. eigenvalues --   -0.65102  -0.64940  -0.64676  -0.64503  -0.63480
 Alpha  occ. eigenvalues --   -0.63289  -0.62708  -0.62383  -0.61503  -0.60208
 Alpha  occ. eigenvalues --   -0.60039  -0.59361  -0.58866  -0.58488  -0.58157
 Alpha  occ. eigenvalues --   -0.57785  -0.56974  -0.56444  -0.55933  -0.55511
 Alpha  occ. eigenvalues --   -0.55287  -0.54973  -0.54767  -0.54425  -0.54224
 Alpha  occ. eigenvalues --   -0.53688  -0.53347  -0.53322  -0.52902  -0.52622
 Alpha  occ. eigenvalues --   -0.52306  -0.51927  -0.51858  -0.51817  -0.51764
 Alpha  occ. eigenvalues --   -0.51583  -0.51306  -0.51013  -0.50885  -0.50663
 Alpha  occ. eigenvalues --   -0.50409  -0.50234  -0.50088  -0.49843  -0.49646
 Alpha  occ. eigenvalues --   -0.49449  -0.49201  -0.48955  -0.48881  -0.48584
 Alpha  occ. eigenvalues --   -0.48302  -0.48073  -0.47948  -0.47824  -0.47267
 Alpha  occ. eigenvalues --   -0.46872  -0.46850  -0.46745  -0.46524  -0.46328
 Alpha  occ. eigenvalues --   -0.46268  -0.46250  -0.45943  -0.45820  -0.45629
 Alpha  occ. eigenvalues --   -0.45248  -0.45026  -0.44843  -0.44722  -0.44673
 Alpha  occ. eigenvalues --   -0.44570  -0.44499  -0.44371  -0.44216  -0.44030
 Alpha  occ. eigenvalues --   -0.43824  -0.43627  -0.43544  -0.43371  -0.43327
 Alpha  occ. eigenvalues --   -0.43154  -0.42522  -0.42346  -0.42269  -0.41982
 Alpha  occ. eigenvalues --   -0.41572  -0.41405  -0.41263  -0.41211  -0.40959
 Alpha  occ. eigenvalues --   -0.40951  -0.40785  -0.40532  -0.39895  -0.39602
 Alpha  occ. eigenvalues --   -0.39581  -0.39154  -0.38890  -0.38831  -0.38592
 Alpha  occ. eigenvalues --   -0.38343  -0.38022  -0.37884  -0.37796  -0.37143
 Alpha  occ. eigenvalues --   -0.37026  -0.36838  -0.36777  -0.36513  -0.36477
 Alpha  occ. eigenvalues --   -0.36360  -0.35640  -0.35152  -0.35060  -0.34902
 Alpha  occ. eigenvalues --   -0.34353  -0.33185  -0.32807  -0.31264  -0.30855
 Alpha  occ. eigenvalues --   -0.30794  -0.30037  -0.29810  -0.28875  -0.24021
 Alpha  occ. eigenvalues --   -0.21093
 Alpha virt. eigenvalues --   -0.08565  -0.02114  -0.00029   0.00968   0.02314
 Alpha virt. eigenvalues --    0.04717   0.04729   0.05498   0.05588   0.07057
 Alpha virt. eigenvalues --    0.07983   0.08448   0.08804   0.08932   0.09161

 Mulliken charges:
               1
     1  Mg   0.817014
     2  C   -0.078853
     3  C   -0.066263
     4  C   -0.074927
     5  C   -0.082125
     6  N   -0.255935
     7  C   -0.062030
     8  C    0.016198
     9  C   -0.052223
    10  C   -0.011051
    11  C    0.064936
    12  C    0.047251
    13  C    0.040468
    14  C    0.208802
    15  O   -0.233089
    16  O   -0.344140
    17  N   -0.371488
    18  C    0.162340
    19  C   -0.130580
    20  C   -0.089439
    21  C    0.189244
    22  C    0.098481
    23  C    0.017454
    24  O   -0.205513
    25  C    0.058471
    26  N   -0.276131
    27  C   -0.031751
    28  C   -0.031357
    29  C    0.038067
    30  C    0.034859
    31  C    0.044488
    32  C   -0.024216
    33  C    0.019147
    34  N   -0.353057
    35  C    0.082722
    36  C   -0.179033
    37  C    0.036451
    38  C    0.141225
    39  C    0.132433
    40  C    0.033646
    41  O   -0.170575
    42  C    0.050044
    43  C    0.190441
    44  O   -0.229738
    45  O   -0.330142
    46  C    0.160029
    47  C    0.311130
    48  C   -0.158536
    49  C   -0.200186
    50  C    0.119492
    51  C    0.079764
    52  C    0.032155
    53  C    0.009700
    54  C   -0.138257
    55  C    0.055726
    56  C    0.033450
    57  C    0.014647
    58  C    0.008452
    59  C   -0.119257
    60  C    0.066575
    61  C    0.034042
    62  C    0.016142
    63  C    0.043123
    64  C   -0.140931
    65  C    0.012012
    66  C    0.067096
    67  H   -0.019248
    68  H   -0.058303
    69  H   -0.032555
    70  H   -0.005694
    71  H    0.020820
    72  H    0.016184
    73  H    0.022726
    74  H    0.023225
    75  H    0.006170
    76  H    0.017649
    77  H    0.061144
    78  H    0.008478
    79  H    0.031078
    80  H    0.029875
    81  H    0.027947
    82  H    0.033304
    83  H    0.040646
    84  H    0.041985
    85  H    0.031852
    86  H    0.011137
    87  H    0.007046
    88  H    0.040615
    89  H    0.009003
    90  H    0.001357
    91  H   -0.001072
    92  H    0.022749
    93  H    0.035288
    94  H    0.018285
    95  H    0.030487
    96  H    0.035741
    97  H    0.031646
    98  H    0.031401
    99  H    0.042162
   100  H    0.033818
   101  H    0.064515
   102  H    0.039049
   103  H    0.055251
   104  H    0.006093
   105  H    0.001404
   106  H    0.036152
   107  H    0.019354
   108  H    0.000698
   109  H   -0.015266
   110  H   -0.001545
   111  H   -0.006219
   112  H   -0.006100
   113  H   -0.002752
   114  H   -0.004168
   115  H    0.003379
   116  H    0.011526
   117  H   -0.000996
   118  H   -0.006565
   119  H    0.005195
   120  H    0.018026
   121  H   -0.001332
   122  H   -0.009684
   123  H   -0.022788
   124  H   -0.005462
   125  H    0.017446
   126  H   -0.001562
   127  H   -0.001891
   128  H   -0.004580
   129  H    0.002142
   130  H    0.008013
   131  H   -0.005173
   132  H   -0.004534
   133  H   -0.016413
   134  H    0.005199
   135  H    0.007197
   136  H    0.008118
   137  H    0.004669
   138  H    0.002422
   139  H    0.000076
   140  H    0.007262
 Sum of Mulliken charges =  -0.00000

 Dipole moment (field-independent basis, Debye):
    X=             -0.0797    Y=              0.4016    Z=              0.3104  Tot=              0.5138
 Quadrupole moment (field-independent basis, Debye-Ang):
   XX=           -412.7794   YY=           -374.0879   ZZ=           -418.6043
   XY=            -35.7539   XZ=            -16.4544   YZ=            -34.5532

 Normal termination of Gaussian 16 at Wed May  4 13:48:18 2022.
