 Gaussian 16, Revision A.03,
 Gaussian 16:  ES64L-G16RevA.03 25-Dec-2016

 ---------------------------------
 #p PBE1PBE/Def2SVP td=(nstates=5)
 ---------------------------------

 ------------------------------------------------------
 step_1801_chromophore_11 TDDFT with PBE1PBE functional
 ------------------------------------------------------
 Symbolic Z-matrix:
 Charge =  0 Multiplicity = 1

                         Standard orientation:
 ---------------------------------------------------------------------
 Center     Atomic      Atomic             Coordinates (Angstroms)
 Number     Number       Type             X           Y           Z
 ---------------------------------------------------------------------
      1         12           0       -4.707095    1.503771    0.669238
      2          6           0       -5.705282   -1.771330   -0.181021
      3          6           0       -2.680646    0.222344    3.094687
      4          6           0       -3.075749    4.485333    0.753571
      5          6           0       -6.597988    2.682066   -2.053954
      6          7           0       -4.069243   -0.651430    1.278873
      7          6           0       -4.780598   -1.782785    0.897332
      8          6           0       -4.508565   -2.953092    1.875930
      9          6           0       -3.881601   -2.187059    3.053169
     10          6           0       -3.456380   -0.845810    2.468347
     11          6           0       -4.772094   -1.971253    4.301454
     12          6           0       -3.656045   -4.157529    1.379985
     13          6           0       -2.464699   -3.942763    0.476294
     14          6           0       -1.072861   -4.266979    1.140121
     15          8           0       -0.901376   -4.095971    2.339296
     16          8           0       -0.125597   -4.762799    0.242958
     17          7           0       -3.101041    2.308378    1.728376
     18          6           0       -2.413473    1.575307    2.736187
     19          6           0       -1.554153    2.484008    3.430388
     20          6           0       -1.599402    3.788271    2.762696
     21          6           0       -2.631857    3.540837    1.678253
     22          6           0       -0.667843    1.913082    4.573495
     23          6           0       -0.790977    5.043464    3.200126
     24          8           0       -0.071492    5.117184    4.203753
     25          6           0       -0.996693    6.300323    2.446925
     26          7           0       -4.743522    3.359547   -0.568438
     27          6           0       -3.989037    4.474437   -0.312924
     28          6           0       -4.190327    5.575654   -1.399827
     29          6           0       -5.450641    4.960400   -2.184938
     30          6           0       -5.667666    3.577281   -1.548860
     31          6           0       -4.407577    6.938415   -0.628227
     32          6           0       -5.315198    4.902299   -3.796815
     33          6           0       -4.615547    3.616181   -4.361375
     34          7           0       -5.976862    0.711489   -0.772630
     35          6           0       -6.736890    1.323554   -1.762213
     36          6           0       -7.580070    0.301810   -2.420443
     37          6           0       -7.156751   -0.903318   -1.841583
     38          6           0       -6.161042   -0.609290   -0.903864
     39          6           0       -8.574035    0.708113   -3.449760
     40          6           0       -7.420059   -2.305193   -1.830541
     41          8           0       -8.275605   -2.908095   -2.468685
     42          6           0       -6.486164   -2.929963   -0.716922
     43          6           0       -5.538884   -3.822474   -1.442675
     44          8           0       -4.744072   -3.481492   -2.330729
     45          8           0       -5.770069   -5.123387   -1.053118
     46          6           0       -4.926233   -6.174584   -1.589464
     47          6           0        1.209539   -4.972913    0.892985
     48          6           0        2.196158   -4.436997   -0.039155
     49          6           0        3.513004   -4.208355    0.237357
     50          6           0        4.248176   -4.546397    1.484632
     51          6           0        4.416008   -3.824876   -0.976465
     52          6           0        4.655016   -2.335540   -1.234788
     53          6           0        6.067205   -1.805861   -0.987044
     54          6           0        6.194411   -0.195659   -1.189173
     55          6           0        6.674136    0.195588   -2.604639
     56          6           0        7.254032    0.370634   -0.137528
     57          6           0        8.565835   -0.495283   -0.171970
     58          6           0        9.795012    0.516721   -0.218660
     59          6           0       11.002716    0.173556    0.658831
     60          6           0       10.841086    0.633636    2.124461
     61          6           0       12.313284    0.866055    0.017490
     62          6           0       13.039746   -0.112288   -1.001577
     63          6           0       14.563627    0.136179   -0.919787
     64          6           0       14.965278    1.522573   -1.638476
     65          6           0       15.848345    1.024567   -2.853338
     66          6           0       15.748968    2.538036   -0.857672
     67          1           0       -2.327593   -0.096686    4.076840
     68          1           0       -2.549669    5.441184    0.721358
     69          1           0       -7.248179    3.013760   -2.865936
     70          1           0       -5.482977   -3.315603    2.203639
     71          1           0       -2.989311   -2.693953    3.421453
     72          1           0       -5.160144   -0.952858    4.290939
     73          1           0       -4.075066   -2.049230    5.136205
     74          1           0       -5.609968   -2.657154    4.424352
     75          1           0       -4.336724   -4.841833    0.874917
     76          1           0       -3.314667   -4.667015    2.281372
     77          1           0       -2.510138   -3.013880   -0.092202
     78          1           0       -2.742293   -4.621285   -0.329570
     79          1           0        0.038740    1.206198    4.139653
     80          1           0       -1.223759    1.472234    5.400980
     81          1           0       -0.016636    2.683432    4.986472
     82          1           0       -0.361878    7.081937    2.865684
     83          1           0       -2.070346    6.474245    2.526143
     84          1           0       -0.780551    6.093096    1.399419
     85          1           0       -3.266670    5.736788   -1.955775
     86          1           0       -6.384616    5.481108   -1.970270
     87          1           0       -3.694869    7.680419   -0.989257
     88          1           0       -4.367616    6.928384    0.460847
     89          1           0       -5.358973    7.270960   -1.042323
     90          1           0       -4.781261    5.761476   -4.203388
     91          1           0       -6.269275    5.043624   -4.303782
     92          1           0       -5.385682    2.875965   -4.580762
     93          1           0       -3.927710    3.201759   -3.623601
     94          1           0       -4.145072    4.014052   -5.260538
     95          1           0       -9.252632    1.381516   -2.924777
     96          1           0       -9.099887   -0.162176   -3.843266
     97          1           0       -8.018345    1.220344   -4.234660
     98          1           0       -6.933937   -3.418723    0.148332
     99          1           0       -5.613340   -6.886254   -2.048015
    100          1           0       -4.460465   -6.703866   -0.758143
    101          1           0       -4.192399   -5.812819   -2.309841
    102          1           0        1.444022   -6.029538    1.023453
    103          1           0        1.368269   -4.364139    1.782633
    104          1           0        1.907142   -4.179373   -1.058087
    105          1           0        3.563070   -4.323385    2.303315
    106          1           0        5.269005   -4.173574    1.562679
    107          1           0        4.183298   -5.632617    1.543901
    108          1           0        4.075133   -4.171753   -1.951537
    109          1           0        5.389241   -4.279688   -0.792383
    110          1           0        4.027455   -1.780298   -0.536717
    111          1           0        4.319811   -2.065465   -2.235622
    112          1           0        6.739572   -2.300967   -1.686843
    113          1           0        6.419248   -2.128792   -0.006552
    114          1           0        5.230586    0.314582   -1.184048
    115          1           0        6.985239   -0.703575   -3.136308
    116          1           0        7.361212    1.028078   -2.450964
    117          1           0        5.829284    0.558882   -3.190668
    118          1           0        6.819941    0.233843    0.852343
    119          1           0        7.363965    1.454591   -0.176726
    120          1           0        8.668285   -1.237004   -0.964095
    121          1           0        8.666622   -1.025476    0.775014
    122          1           0        9.488932    1.562576   -0.259223
    123          1           0       10.117042    0.458144   -1.257666
    124          1           0       11.000014   -0.915973    0.609195
    125          1           0       10.050867    1.381554    2.194851
    126          1           0       11.788342    0.954030    2.558258
    127          1           0       10.653949   -0.227905    2.764072
    128          1           0       12.957650    1.180779    0.838418
    129          1           0       11.951307    1.722051   -0.551609
    130          1           0       12.598794    0.017523   -1.990352
    131          1           0       12.897544   -1.137363   -0.657803
    132          1           0       15.115130   -0.743077   -1.255423
    133          1           0       14.822016    0.177031    0.138530
    134          1           0       14.129876    2.000611   -2.149376
    135          1           0       15.288481    0.272200   -3.409250
    136          1           0       16.727415    0.551439   -2.416046
    137          1           0       16.141373    1.844313   -3.509120
    138          1           0       16.829625    2.412398   -0.921511
    139          1           0       15.466209    2.452160    0.191531
    140          1           0       15.553113    3.570573   -1.148917
 ---------------------------------------------------------------------

 SCF Done:  E(RPBE1PBE) =  -3005.34135114     A.U. after   15 cycles

 Excitation energies and oscillator strengths:

 Excited State   1:      Singlet-A      1.8552 eV  668.32 nm  f=0.3353  <S**2>=0.000
     245 -> 248        0.18623
     246 -> 247        0.68883
     246 <- 247       -0.10080
 This state for optimization and/or second-order correction.
 Total Energy, E(TD-HF/TD-DFT) =  -3005.27317479
 Copying the excited state density for this state as the 1-particle RhoCI density.

 Excited State   2:      Singlet-A      2.2236 eV  557.59 nm  f=0.0916  <S**2>=0.000
     245 -> 247        0.64309
     246 -> 248       -0.28265

 Excited State   3:      Singlet-A      3.0545 eV  405.91 nm  f=0.0001  <S**2>=0.000
     242 -> 247        0.66854
     242 -> 249       -0.15141
     242 -> 250       -0.10518

 Excited State   4:      Singlet-A      3.0907 eV  401.16 nm  f=0.0031  <S**2>=0.000
     240 -> 247        0.22834
     243 -> 247        0.65474

 Excited State   5:      Singlet-A      3.1362 eV  395.33 nm  f=0.0027  <S**2>=0.000
     239 -> 247        0.11333
     240 -> 247        0.60199
     240 -> 249        0.17414
     241 -> 247       -0.11707
     243 -> 247       -0.22888
     246 -> 248        0.11058

 The electronic state is 1-A.
 Alpha  occ. eigenvalues --  -46.93652 -19.26630 -19.26346 -19.21227 -19.20508
 Alpha  occ. eigenvalues --  -19.19329 -19.18785 -14.41770 -14.41230 -14.39470
 Alpha  occ. eigenvalues --  -14.39291 -10.37593 -10.37052 -10.32295 -10.32282
 Alpha  occ. eigenvalues --  -10.29532 -10.29238 -10.29228 -10.29036 -10.28949
 Alpha  occ. eigenvalues --  -10.28611 -10.28512 -10.27866 -10.27406 -10.27046
 Alpha  occ. eigenvalues --  -10.26679 -10.26606 -10.26371 -10.26248 -10.26208
 Alpha  occ. eigenvalues --  -10.25948 -10.25939 -10.25826 -10.25556 -10.25254
 Alpha  occ. eigenvalues --  -10.24948 -10.24699 -10.24520 -10.24320 -10.24288
 Alpha  occ. eigenvalues --  -10.23981 -10.23941 -10.23805 -10.23756 -10.23664
 Alpha  occ. eigenvalues --  -10.23541 -10.23382 -10.23121 -10.22981 -10.22939
 Alpha  occ. eigenvalues --  -10.22782 -10.22775 -10.22764 -10.22691 -10.22631
 Alpha  occ. eigenvalues --  -10.22583 -10.22568 -10.22513 -10.22496 -10.22411
 Alpha  occ. eigenvalues --  -10.21976 -10.21708 -10.21431 -10.21407 -10.21395
 Alpha  occ. eigenvalues --  -10.21319  -3.15542  -1.88359  -1.87915  -1.87759
 Alpha  occ. eigenvalues --   -1.11162  -1.10711  -1.04470  -1.03647  -1.03184
 Alpha  occ. eigenvalues --   -1.02555  -0.98737  -0.97838  -0.97719  -0.96783
 Alpha  occ. eigenvalues --   -0.87545  -0.84486  -0.83656  -0.83110  -0.82932
 Alpha  occ. eigenvalues --   -0.81971  -0.81771  -0.81538  -0.81262  -0.80811
 Alpha  occ. eigenvalues --   -0.80006  -0.79337  -0.78599  -0.78251  -0.77582
 Alpha  occ. eigenvalues --   -0.76435  -0.76305  -0.75684  -0.75460  -0.74894
 Alpha  occ. eigenvalues --   -0.73732  -0.72679  -0.71744  -0.71175  -0.70366
 Alpha  occ. eigenvalues --   -0.69933  -0.69347  -0.69228  -0.68540  -0.67346
 Alpha  occ. eigenvalues --   -0.67066  -0.66674  -0.66078  -0.64518  -0.63622
 Alpha  occ. eigenvalues --   -0.63189  -0.61936  -0.61192  -0.60276  -0.59793
 Alpha  occ. eigenvalues --   -0.59537  -0.59373  -0.59249  -0.59001  -0.57973
 Alpha  occ. eigenvalues --   -0.57425  -0.56970  -0.56853  -0.55724  -0.54577
 Alpha  occ. eigenvalues --   -0.54560  -0.54010  -0.53232  -0.53071  -0.52686
 Alpha  occ. eigenvalues --   -0.52235  -0.51563  -0.50865  -0.50445  -0.50144
 Alpha  occ. eigenvalues --   -0.49763  -0.49477  -0.49288  -0.48993  -0.48812
 Alpha  occ. eigenvalues --   -0.48132  -0.47987  -0.47692  -0.47305  -0.47253
 Alpha  occ. eigenvalues --   -0.46821  -0.46578  -0.46317  -0.46297  -0.46087
 Alpha  occ. eigenvalues --   -0.46038  -0.45837  -0.45638  -0.45366  -0.45220
 Alpha  occ. eigenvalues --   -0.44970  -0.44703  -0.44674  -0.44351  -0.44209
 Alpha  occ. eigenvalues --   -0.44070  -0.43818  -0.43519  -0.43488  -0.43194
 Alpha  occ. eigenvalues --   -0.42923  -0.42714  -0.42567  -0.42379  -0.41929
 Alpha  occ. eigenvalues --   -0.41521  -0.41488  -0.41376  -0.41199  -0.40924
 Alpha  occ. eigenvalues --   -0.40911  -0.40809  -0.40677  -0.40574  -0.40361
 Alpha  occ. eigenvalues --   -0.39995  -0.39716  -0.39552  -0.39495  -0.39345
 Alpha  occ. eigenvalues --   -0.39307  -0.39156  -0.39124  -0.38949  -0.38728
 Alpha  occ. eigenvalues --   -0.38647  -0.38508  -0.38320  -0.38150  -0.38036
 Alpha  occ. eigenvalues --   -0.37873  -0.37386  -0.37135  -0.37011  -0.36855
 Alpha  occ. eigenvalues --   -0.36453  -0.36213  -0.36128  -0.35957  -0.35894
 Alpha  occ. eigenvalues --   -0.35712  -0.35672  -0.35236  -0.34799  -0.34506
 Alpha  occ. eigenvalues --   -0.34326  -0.34133  -0.33740  -0.33673  -0.33320
 Alpha  occ. eigenvalues --   -0.33117  -0.32910  -0.32795  -0.32675  -0.31953
 Alpha  occ. eigenvalues --   -0.31899  -0.31836  -0.31573  -0.31531  -0.31485
 Alpha  occ. eigenvalues --   -0.31298  -0.30487  -0.30032  -0.29829  -0.29727
 Alpha  occ. eigenvalues --   -0.29544  -0.28825  -0.27790  -0.26759  -0.25973
 Alpha  occ. eigenvalues --   -0.25758  -0.25464  -0.25332  -0.24160  -0.20953
 Alpha  occ. eigenvalues --   -0.18764
 Alpha virt. eigenvalues --   -0.11081  -0.05545  -0.04155  -0.02198  -0.01773
 Alpha virt. eigenvalues --    0.00051   0.00086   0.01133   0.01226   0.03113
 Alpha virt. eigenvalues --    0.04287   0.04529   0.05137   0.05561   0.05662

 Mulliken charges:
               1
     1  Mg   0.954797
     2  C   -0.097454
     3  C   -0.069560
     4  C   -0.080058
     5  C   -0.079511
     6  N   -0.350917
     7  C    0.020175
     8  C   -0.047127
     9  C   -0.135111
    10  C    0.034692
    11  C    0.009046
    12  C   -0.014742
    13  C   -0.031544
    14  C    0.269940
    15  O   -0.263778
    16  O   -0.373949
    17  N   -0.484559
    18  C    0.177272
    19  C   -0.149117
    20  C   -0.129177
    21  C    0.214694
    22  C    0.037417
    23  C    0.068751
    24  O   -0.243244
    25  C   -0.024249
    26  N   -0.373646
    27  C    0.016419
    28  C   -0.107969
    29  C   -0.029522
    30  C    0.069181
    31  C   -0.013254
    32  C   -0.084515
    33  C   -0.058311
    34  N   -0.478651
    35  C    0.110008
    36  C   -0.185761
    37  C   -0.024791
    38  C    0.201936
    39  C    0.073394
    40  C    0.131275
    41  O   -0.216550
    42  C   -0.067736
    43  C    0.286029
    44  O   -0.264206
    45  O   -0.363625
    46  C    0.105629
    47  C    0.263836
    48  C   -0.162079
    49  C   -0.244013
    50  C    0.049211
    51  C    0.014988
    52  C   -0.025092
    53  C   -0.049112
    54  C   -0.219515
    55  C   -0.001899
    56  C   -0.025930
    57  C   -0.047205
    58  C   -0.038209
    59  C   -0.207284
    60  C    0.009086
    61  C   -0.021048
    62  C   -0.048064
    63  C   -0.015089
    64  C   -0.229270
    65  C   -0.053452
    66  C    0.008603
    67  H    0.012153
    68  H   -0.022079
    69  H   -0.000575
    70  H    0.032777
    71  H    0.058650
    72  H    0.045071
    73  H    0.049798
    74  H    0.049637
    75  H    0.044444
    76  H    0.050815
    77  H    0.091792
    78  H    0.045540
    79  H    0.059051
    80  H    0.055487
    81  H    0.056143
    82  H    0.061068
    83  H    0.068671
    84  H    0.068605
    85  H    0.066738
    86  H    0.048104
    87  H    0.035351
    88  H    0.066581
    89  H    0.037648
    90  H    0.034404
    91  H    0.030743
    92  H    0.051451
    93  H    0.065774
    94  H    0.046949
    95  H    0.059236
    96  H    0.065000
    97  H    0.059951
    98  H    0.066887
    99  H    0.064859
   100  H    0.054296
   101  H    0.083699
   102  H    0.065924
   103  H    0.081822
   104  H    0.036278
   105  H    0.030605
   106  H    0.061855
   107  H    0.048762
   108  H    0.032502
   109  H    0.018569
   110  H    0.033322
   111  H    0.026307
   112  H    0.025528
   113  H    0.031146
   114  H    0.032428
   115  H    0.029886
   116  H    0.039818
   117  H    0.027142
   118  H    0.028228
   119  H    0.035531
   120  H    0.048014
   121  H    0.032096
   122  H    0.020612
   123  H    0.013224
   124  H    0.031647
   125  H    0.044392
   126  H    0.025416
   127  H    0.025526
   128  H    0.026123
   129  H    0.034936
   130  H    0.039264
   131  H    0.028459
   132  H    0.026579
   133  H    0.016854
   134  H    0.041706
   135  H    0.036655
   136  H    0.036613
   137  H    0.033289
   138  H    0.028970
   139  H    0.027828
   140  H    0.034940
 Sum of Mulliken charges =  -0.00000

 Dipole moment (field-independent basis, Debye):
    X=             -0.3273    Y=              0.4106    Z=              0.0756  Tot=              0.5305
 Quadrupole moment (field-independent basis, Debye-Ang):
   XX=           -407.5879   YY=           -370.4763   ZZ=           -415.0861
   XY=            -36.6799   XZ=            -14.8312   YZ=            -36.2795

 Normal termination of Gaussian 16 at Wed May  4 14:08:57 2022.
