 Gaussian 16, Revision A.03,
 Gaussian 16:  ES64L-G16RevA.03 25-Dec-2016

 --------------------------------
 #p wB97XD/Def2SVP td=(nstates=5)
 --------------------------------

 -----------------------------------------------------
 step_1801_chromophore_11 TDDFT with wB97XD functional
 -----------------------------------------------------
 Symbolic Z-matrix:
 Charge =  0 Multiplicity = 1

                         Standard orientation:
 ---------------------------------------------------------------------
 Center     Atomic      Atomic             Coordinates (Angstroms)
 Number     Number       Type             X           Y           Z
 ---------------------------------------------------------------------
      1         12           0       -4.707095    1.503771    0.669238
      2          6           0       -5.705282   -1.771330   -0.181021
      3          6           0       -2.680646    0.222344    3.094687
      4          6           0       -3.075749    4.485333    0.753571
      5          6           0       -6.597988    2.682066   -2.053954
      6          7           0       -4.069243   -0.651430    1.278873
      7          6           0       -4.780598   -1.782785    0.897332
      8          6           0       -4.508565   -2.953092    1.875930
      9          6           0       -3.881601   -2.187059    3.053169
     10          6           0       -3.456380   -0.845810    2.468347
     11          6           0       -4.772094   -1.971253    4.301454
     12          6           0       -3.656045   -4.157529    1.379985
     13          6           0       -2.464699   -3.942763    0.476294
     14          6           0       -1.072861   -4.266979    1.140121
     15          8           0       -0.901376   -4.095971    2.339296
     16          8           0       -0.125597   -4.762799    0.242958
     17          7           0       -3.101041    2.308378    1.728376
     18          6           0       -2.413473    1.575307    2.736187
     19          6           0       -1.554153    2.484008    3.430388
     20          6           0       -1.599402    3.788271    2.762696
     21          6           0       -2.631857    3.540837    1.678253
     22          6           0       -0.667843    1.913082    4.573495
     23          6           0       -0.790977    5.043464    3.200126
     24          8           0       -0.071492    5.117184    4.203753
     25          6           0       -0.996693    6.300323    2.446925
     26          7           0       -4.743522    3.359547   -0.568438
     27          6           0       -3.989037    4.474437   -0.312924
     28          6           0       -4.190327    5.575654   -1.399827
     29          6           0       -5.450641    4.960400   -2.184938
     30          6           0       -5.667666    3.577281   -1.548860
     31          6           0       -4.407577    6.938415   -0.628227
     32          6           0       -5.315198    4.902299   -3.796815
     33          6           0       -4.615547    3.616181   -4.361375
     34          7           0       -5.976862    0.711489   -0.772630
     35          6           0       -6.736890    1.323554   -1.762213
     36          6           0       -7.580070    0.301810   -2.420443
     37          6           0       -7.156751   -0.903318   -1.841583
     38          6           0       -6.161042   -0.609290   -0.903864
     39          6           0       -8.574035    0.708113   -3.449760
     40          6           0       -7.420059   -2.305193   -1.830541
     41          8           0       -8.275605   -2.908095   -2.468685
     42          6           0       -6.486164   -2.929963   -0.716922
     43          6           0       -5.538884   -3.822474   -1.442675
     44          8           0       -4.744072   -3.481492   -2.330729
     45          8           0       -5.770069   -5.123387   -1.053118
     46          6           0       -4.926233   -6.174584   -1.589464
     47          6           0        1.209539   -4.972913    0.892985
     48          6           0        2.196158   -4.436997   -0.039155
     49          6           0        3.513004   -4.208355    0.237357
     50          6           0        4.248176   -4.546397    1.484632
     51          6           0        4.416008   -3.824876   -0.976465
     52          6           0        4.655016   -2.335540   -1.234788
     53          6           0        6.067205   -1.805861   -0.987044
     54          6           0        6.194411   -0.195659   -1.189173
     55          6           0        6.674136    0.195588   -2.604639
     56          6           0        7.254032    0.370634   -0.137528
     57          6           0        8.565835   -0.495283   -0.171970
     58          6           0        9.795012    0.516721   -0.218660
     59          6           0       11.002716    0.173556    0.658831
     60          6           0       10.841086    0.633636    2.124461
     61          6           0       12.313284    0.866055    0.017490
     62          6           0       13.039746   -0.112288   -1.001577
     63          6           0       14.563627    0.136179   -0.919787
     64          6           0       14.965278    1.522573   -1.638476
     65          6           0       15.848345    1.024567   -2.853338
     66          6           0       15.748968    2.538036   -0.857672
     67          1           0       -2.327593   -0.096686    4.076840
     68          1           0       -2.549669    5.441184    0.721358
     69          1           0       -7.248179    3.013760   -2.865936
     70          1           0       -5.482977   -3.315603    2.203639
     71          1           0       -2.989311   -2.693953    3.421453
     72          1           0       -5.160144   -0.952858    4.290939
     73          1           0       -4.075066   -2.049230    5.136205
     74          1           0       -5.609968   -2.657154    4.424352
     75          1           0       -4.336724   -4.841833    0.874917
     76          1           0       -3.314667   -4.667015    2.281372
     77          1           0       -2.510138   -3.013880   -0.092202
     78          1           0       -2.742293   -4.621285   -0.329570
     79          1           0        0.038740    1.206198    4.139653
     80          1           0       -1.223759    1.472234    5.400980
     81          1           0       -0.016636    2.683432    4.986472
     82          1           0       -0.361878    7.081937    2.865684
     83          1           0       -2.070346    6.474245    2.526143
     84          1           0       -0.780551    6.093096    1.399419
     85          1           0       -3.266670    5.736788   -1.955775
     86          1           0       -6.384616    5.481108   -1.970270
     87          1           0       -3.694869    7.680419   -0.989257
     88          1           0       -4.367616    6.928384    0.460847
     89          1           0       -5.358973    7.270960   -1.042323
     90          1           0       -4.781261    5.761476   -4.203388
     91          1           0       -6.269275    5.043624   -4.303782
     92          1           0       -5.385682    2.875965   -4.580762
     93          1           0       -3.927710    3.201759   -3.623601
     94          1           0       -4.145072    4.014052   -5.260538
     95          1           0       -9.252632    1.381516   -2.924777
     96          1           0       -9.099887   -0.162176   -3.843266
     97          1           0       -8.018345    1.220344   -4.234660
     98          1           0       -6.933937   -3.418723    0.148332
     99          1           0       -5.613340   -6.886254   -2.048015
    100          1           0       -4.460465   -6.703866   -0.758143
    101          1           0       -4.192399   -5.812819   -2.309841
    102          1           0        1.444022   -6.029538    1.023453
    103          1           0        1.368269   -4.364139    1.782633
    104          1           0        1.907142   -4.179373   -1.058087
    105          1           0        3.563070   -4.323385    2.303315
    106          1           0        5.269005   -4.173574    1.562679
    107          1           0        4.183298   -5.632617    1.543901
    108          1           0        4.075133   -4.171753   -1.951537
    109          1           0        5.389241   -4.279688   -0.792383
    110          1           0        4.027455   -1.780298   -0.536717
    111          1           0        4.319811   -2.065465   -2.235622
    112          1           0        6.739572   -2.300967   -1.686843
    113          1           0        6.419248   -2.128792   -0.006552
    114          1           0        5.230586    0.314582   -1.184048
    115          1           0        6.985239   -0.703575   -3.136308
    116          1           0        7.361212    1.028078   -2.450964
    117          1           0        5.829284    0.558882   -3.190668
    118          1           0        6.819941    0.233843    0.852343
    119          1           0        7.363965    1.454591   -0.176726
    120          1           0        8.668285   -1.237004   -0.964095
    121          1           0        8.666622   -1.025476    0.775014
    122          1           0        9.488932    1.562576   -0.259223
    123          1           0       10.117042    0.458144   -1.257666
    124          1           0       11.000014   -0.915973    0.609195
    125          1           0       10.050867    1.381554    2.194851
    126          1           0       11.788342    0.954030    2.558258
    127          1           0       10.653949   -0.227905    2.764072
    128          1           0       12.957650    1.180779    0.838418
    129          1           0       11.951307    1.722051   -0.551609
    130          1           0       12.598794    0.017523   -1.990352
    131          1           0       12.897544   -1.137363   -0.657803
    132          1           0       15.115130   -0.743077   -1.255423
    133          1           0       14.822016    0.177031    0.138530
    134          1           0       14.129876    2.000611   -2.149376
    135          1           0       15.288481    0.272200   -3.409250
    136          1           0       16.727415    0.551439   -2.416046
    137          1           0       16.141373    1.844313   -3.509120
    138          1           0       16.829625    2.412398   -0.921511
    139          1           0       15.466209    2.452160    0.191531
    140          1           0       15.553113    3.570573   -1.148917
 ---------------------------------------------------------------------

 SCF Done:  E(RwB97XD) =  -3007.85444167     A.U. after   19 cycles

 Excitation energies and oscillator strengths:

 Excited State   1:      Singlet-A      1.6528 eV  750.16 nm  f=0.3461  <S**2>=0.000
     245 -> 248        0.19812
     246 -> 247        0.67956
     245 <- 248        0.12035
 This state for optimization and/or second-order correction.
 Total Energy, E(TD-HF/TD-DFT) =  -3007.79370382
 Copying the excited state density for this state as the 1-particle RhoCI density.

 Excited State   2:      Singlet-A      2.1695 eV  571.48 nm  f=0.0841  <S**2>=0.000
     245 -> 247        0.62565
     246 -> 248       -0.31652

 Excited State   3:      Singlet-A      3.4283 eV  361.64 nm  f=0.1968  <S**2>=0.000
     242 -> 247       -0.29531
     243 -> 247        0.45950
     245 -> 247       -0.15745
     246 -> 248       -0.40013

 Excited State   4:      Singlet-A      3.5033 eV  353.91 nm  f=0.4524  <S**2>=0.000
     243 -> 247        0.46789
     245 -> 247        0.24129
     246 -> 248        0.44338

 Excited State   5:      Singlet-A      3.6134 eV  343.12 nm  f=0.0035  <S**2>=0.000
     241 -> 247        0.52582
     241 -> 248        0.12211
     241 -> 249       -0.30660
     241 -> 251        0.27340

 The electronic state is 1-A.
 Alpha  occ. eigenvalues --  -46.96599 -19.31193 -19.30924 -19.25892 -19.25237
 Alpha  occ. eigenvalues --  -19.24047 -19.23708 -14.46978 -14.46173 -14.44507
 Alpha  occ. eigenvalues --  -14.44131 -10.44383 -10.43905 -10.39233 -10.39075
 Alpha  occ. eigenvalues --  -10.36030 -10.35761 -10.35674 -10.35365 -10.35211
 Alpha  occ. eigenvalues --  -10.35202 -10.34626 -10.34439 -10.33471 -10.33266
 Alpha  occ. eigenvalues --  -10.33098 -10.32788 -10.32734 -10.32623 -10.32601
 Alpha  occ. eigenvalues --  -10.32355 -10.32210 -10.32176 -10.32103 -10.31566
 Alpha  occ. eigenvalues --  -10.31389 -10.30916 -10.30866 -10.30681 -10.30495
 Alpha  occ. eigenvalues --  -10.30354 -10.30264 -10.30247 -10.30119 -10.30029
 Alpha  occ. eigenvalues --  -10.29821 -10.29667 -10.29609 -10.29591 -10.29412
 Alpha  occ. eigenvalues --  -10.29154 -10.29107 -10.29084 -10.29017 -10.28965
 Alpha  occ. eigenvalues --  -10.28945 -10.28927 -10.28871 -10.28864 -10.28769
 Alpha  occ. eigenvalues --  -10.28383 -10.28081 -10.27878 -10.27851 -10.27832
 Alpha  occ. eigenvalues --  -10.27764  -3.22390  -1.95947  -1.95504  -1.95345
 Alpha  occ. eigenvalues --   -1.18581  -1.18103  -1.11867  -1.11250  -1.10535
 Alpha  occ. eigenvalues --   -1.09956  -1.06039  -1.05231  -1.05147  -1.04174
 Alpha  occ. eigenvalues --   -0.95121  -0.92172  -0.91298  -0.90717  -0.90632
 Alpha  occ. eigenvalues --   -0.89670  -0.89328  -0.89135  -0.88791  -0.88497
 Alpha  occ. eigenvalues --   -0.87688  -0.87145  -0.86272  -0.85864  -0.85273
 Alpha  occ. eigenvalues --   -0.84074  -0.84003  -0.83329  -0.83110  -0.82541
 Alpha  occ. eigenvalues --   -0.81418  -0.80282  -0.79294  -0.78870  -0.78072
 Alpha  occ. eigenvalues --   -0.77625  -0.76944  -0.76929  -0.76247  -0.74896
 Alpha  occ. eigenvalues --   -0.74706  -0.74299  -0.73628  -0.72155  -0.71136
 Alpha  occ. eigenvalues --   -0.70679  -0.69620  -0.68806  -0.67883  -0.67472
 Alpha  occ. eigenvalues --   -0.67041  -0.66868  -0.66670  -0.66522  -0.65449
 Alpha  occ. eigenvalues --   -0.65103  -0.64522  -0.64360  -0.63360  -0.62119
 Alpha  occ. eigenvalues --   -0.62033  -0.61371  -0.60793  -0.60466  -0.60116
 Alpha  occ. eigenvalues --   -0.59712  -0.58964  -0.58330  -0.57854  -0.57482
 Alpha  occ. eigenvalues --   -0.57232  -0.56916  -0.56710  -0.56352  -0.56182
 Alpha  occ. eigenvalues --   -0.55567  -0.55275  -0.55184  -0.54750  -0.54558
 Alpha  occ. eigenvalues --   -0.54264  -0.53850  -0.53794  -0.53693  -0.53651
 Alpha  occ. eigenvalues --   -0.53437  -0.53197  -0.52904  -0.52752  -0.52590
 Alpha  occ. eigenvalues --   -0.52308  -0.52084  -0.51973  -0.51786  -0.51567
 Alpha  occ. eigenvalues --   -0.51341  -0.51110  -0.50821  -0.50803  -0.50540
 Alpha  occ. eigenvalues --   -0.50227  -0.50000  -0.49857  -0.49687  -0.49226
 Alpha  occ. eigenvalues --   -0.48820  -0.48755  -0.48655  -0.48463  -0.48179
 Alpha  occ. eigenvalues --   -0.48170  -0.48116  -0.47844  -0.47763  -0.47546
 Alpha  occ. eigenvalues --   -0.47151  -0.46907  -0.46719  -0.46672  -0.46547
 Alpha  occ. eigenvalues --   -0.46469  -0.46352  -0.46299  -0.46113  -0.45912
 Alpha  occ. eigenvalues --   -0.45773  -0.45534  -0.45446  -0.45268  -0.45254
 Alpha  occ. eigenvalues --   -0.45042  -0.44502  -0.44250  -0.44187  -0.43916
 Alpha  occ. eigenvalues --   -0.43502  -0.43281  -0.43255  -0.43182  -0.42865
 Alpha  occ. eigenvalues --   -0.42817  -0.42642  -0.42370  -0.41807  -0.41476
 Alpha  occ. eigenvalues --   -0.41448  -0.41037  -0.40750  -0.40721  -0.40412
 Alpha  occ. eigenvalues --   -0.40191  -0.39983  -0.39732  -0.39719  -0.38976
 Alpha  occ. eigenvalues --   -0.38934  -0.38863  -0.38611  -0.38584  -0.38408
 Alpha  occ. eigenvalues --   -0.38236  -0.37488  -0.37003  -0.36969  -0.36809
 Alpha  occ. eigenvalues --   -0.36335  -0.35455  -0.34645  -0.33380  -0.32926
 Alpha  occ. eigenvalues --   -0.32761  -0.32199  -0.32009  -0.30912  -0.25935
 Alpha  occ. eigenvalues --   -0.22898
 Alpha virt. eigenvalues --   -0.06913  -0.00209   0.02118   0.04054   0.04458
 Alpha virt. eigenvalues --    0.06855   0.06937   0.07859   0.07958   0.09766
 Alpha virt. eigenvalues --    0.10851   0.11328   0.11774   0.12251   0.12360

 Mulliken charges:
               1
     1  Mg   0.948106
     2  C   -0.088999
     3  C   -0.079628
     4  C   -0.091704
     5  C   -0.093185
     6  N   -0.317412
     7  C   -0.024686
     8  C   -0.023431
     9  C   -0.107619
    10  C    0.018177
    11  C    0.018334
    12  C    0.008801
    13  C   -0.016525
    14  C    0.264356
    15  O   -0.262790
    16  O   -0.374082
    17  N   -0.454723
    18  C    0.173082
    19  C   -0.144454
    20  C   -0.128352
    21  C    0.214822
    22  C    0.051878
    23  C    0.065261
    24  O   -0.237092
    25  C   -0.005140
    26  N   -0.343504
    27  C    0.005698
    28  C   -0.087231
    29  C   -0.009707
    30  C    0.058655
    31  C   -0.001101
    32  C   -0.070943
    33  C   -0.035779
    34  N   -0.441678
    35  C    0.096802
    36  C   -0.185255
    37  C   -0.015974
    38  C    0.176866
    39  C    0.084413
    40  C    0.110315
    41  O   -0.207401
    42  C   -0.025493
    43  C    0.257976
    44  O   -0.257646
    45  O   -0.360355
    46  C    0.118997
    47  C    0.280547
    48  C   -0.174201
    49  C   -0.229632
    50  C    0.064636
    51  C    0.032154
    52  C   -0.009382
    53  C   -0.030998
    54  C   -0.192160
    55  C    0.008007
    56  C   -0.006663
    57  C   -0.033453
    58  C   -0.023139
    59  C   -0.176216
    60  C    0.019469
    61  C   -0.002441
    62  C   -0.031180
    63  C    0.002214
    64  C   -0.205586
    65  C   -0.035505
    66  C    0.019289
    67  H    0.006640
    68  H   -0.039142
    69  H   -0.008648
    70  H    0.021481
    71  H    0.047759
    72  H    0.037258
    73  H    0.044645
    74  H    0.045660
    75  H    0.028119
    76  H    0.042303
    77  H    0.086095
    78  H    0.034543
    79  H    0.054394
    80  H    0.051528
    81  H    0.052441
    82  H    0.060721
    83  H    0.060234
    84  H    0.062503
    85  H    0.058975
    86  H    0.038001
    87  H    0.030053
    88  H    0.059948
    89  H    0.031249
    90  H    0.026005
    91  H    0.023721
    92  H    0.042799
    93  H    0.055920
    94  H    0.041511
    95  H    0.052962
    96  H    0.061612
    97  H    0.053061
    98  H    0.061875
    99  H    0.062049
   100  H    0.050568
   101  H    0.080745
   102  H    0.061842
   103  H    0.074341
   104  H    0.033566
   105  H    0.023323
   106  H    0.058515
   107  H    0.042110
   108  H    0.026780
   109  H    0.009316
   110  H    0.022027
   111  H    0.018961
   112  H    0.014009
   113  H    0.018404
   114  H    0.022880
   115  H    0.023363
   116  H    0.032333
   117  H    0.021990
   118  H    0.019106
   119  H    0.027005
   120  H    0.039420
   121  H    0.022219
   122  H    0.010140
   123  H    0.000696
   124  H    0.018728
   125  H    0.038487
   126  H    0.019525
   127  H    0.019975
   128  H    0.014219
   129  H    0.024572
   130  H    0.030920
   131  H    0.019805
   132  H    0.019301
   133  H    0.006882
   134  H    0.031034
   135  H    0.028762
   136  H    0.027657
   137  H    0.027970
   138  H    0.023192
   139  H    0.020456
   140  H    0.030172
 Sum of Mulliken charges =  -0.00000

 Dipole moment (field-independent basis, Debye):
    X=             -0.0063    Y=              0.4679    Z=              0.4227  Tot=              0.6306
 Quadrupole moment (field-independent basis, Debye-Ang):
   XX=           -409.4877   YY=           -369.6586   ZZ=           -414.5410
   XY=            -35.8387   XZ=            -16.5256   YZ=            -35.1035

 Normal termination of Gaussian 16 at Wed May  4 14:42:48 2022.
