 Gaussian 16, Revision A.03,
 Gaussian 16:  ES64L-G16RevA.03 25-Dec-2016

 --------------------
 #p ZINDO=(nstates=5)
 --------------------

 ------------------------------
 step_1801_chromophore_11 ZINDO
 ------------------------------
 Symbolic Z-matrix:
 Charge =  0 Multiplicity = 1

                         Standard orientation:
 ---------------------------------------------------------------------
 Center     Atomic      Atomic             Coordinates (Angstroms)
 Number     Number       Type             X           Y           Z
 ---------------------------------------------------------------------
      1         12           0       -4.707095    1.503771    0.669238
      2          6           0       -5.705282   -1.771330   -0.181021
      3          6           0       -2.680646    0.222344    3.094687
      4          6           0       -3.075749    4.485333    0.753571
      5          6           0       -6.597988    2.682066   -2.053954
      6          7           0       -4.069243   -0.651430    1.278873
      7          6           0       -4.780598   -1.782785    0.897332
      8          6           0       -4.508565   -2.953092    1.875930
      9          6           0       -3.881601   -2.187059    3.053169
     10          6           0       -3.456380   -0.845810    2.468347
     11          6           0       -4.772094   -1.971253    4.301454
     12          6           0       -3.656045   -4.157529    1.379985
     13          6           0       -2.464699   -3.942763    0.476294
     14          6           0       -1.072861   -4.266979    1.140121
     15          8           0       -0.901376   -4.095971    2.339296
     16          8           0       -0.125597   -4.762799    0.242958
     17          7           0       -3.101041    2.308378    1.728376
     18          6           0       -2.413473    1.575307    2.736187
     19          6           0       -1.554153    2.484008    3.430388
     20          6           0       -1.599402    3.788271    2.762696
     21          6           0       -2.631857    3.540837    1.678253
     22          6           0       -0.667843    1.913082    4.573495
     23          6           0       -0.790977    5.043464    3.200126
     24          8           0       -0.071492    5.117184    4.203753
     25          6           0       -0.996693    6.300323    2.446925
     26          7           0       -4.743522    3.359547   -0.568438
     27          6           0       -3.989037    4.474437   -0.312924
     28          6           0       -4.190327    5.575654   -1.399827
     29          6           0       -5.450641    4.960400   -2.184938
     30          6           0       -5.667666    3.577281   -1.548860
     31          6           0       -4.407577    6.938415   -0.628227
     32          6           0       -5.315198    4.902299   -3.796815
     33          6           0       -4.615547    3.616181   -4.361375
     34          7           0       -5.976862    0.711489   -0.772630
     35          6           0       -6.736890    1.323554   -1.762213
     36          6           0       -7.580070    0.301810   -2.420443
     37          6           0       -7.156751   -0.903318   -1.841583
     38          6           0       -6.161042   -0.609290   -0.903864
     39          6           0       -8.574035    0.708113   -3.449760
     40          6           0       -7.420059   -2.305193   -1.830541
     41          8           0       -8.275605   -2.908095   -2.468685
     42          6           0       -6.486164   -2.929963   -0.716922
     43          6           0       -5.538884   -3.822474   -1.442675
     44          8           0       -4.744072   -3.481492   -2.330729
     45          8           0       -5.770069   -5.123387   -1.053118
     46          6           0       -4.926233   -6.174584   -1.589464
     47          6           0        1.209539   -4.972913    0.892985
     48          6           0        2.196158   -4.436997   -0.039155
     49          6           0        3.513004   -4.208355    0.237357
     50          6           0        4.248176   -4.546397    1.484632
     51          6           0        4.416008   -3.824876   -0.976465
     52          6           0        4.655016   -2.335540   -1.234788
     53          6           0        6.067205   -1.805861   -0.987044
     54          6           0        6.194411   -0.195659   -1.189173
     55          6           0        6.674136    0.195588   -2.604639
     56          6           0        7.254032    0.370634   -0.137528
     57          6           0        8.565835   -0.495283   -0.171970
     58          6           0        9.795012    0.516721   -0.218660
     59          6           0       11.002716    0.173556    0.658831
     60          6           0       10.841086    0.633636    2.124461
     61          6           0       12.313284    0.866055    0.017490
     62          6           0       13.039746   -0.112288   -1.001577
     63          6           0       14.563627    0.136179   -0.919787
     64          6           0       14.965278    1.522573   -1.638476
     65          6           0       15.848345    1.024567   -2.853338
     66          6           0       15.748968    2.538036   -0.857672
     67          1           0       -2.327593   -0.096686    4.076840
     68          1           0       -2.549669    5.441184    0.721358
     69          1           0       -7.248179    3.013760   -2.865936
     70          1           0       -5.482977   -3.315603    2.203639
     71          1           0       -2.989311   -2.693953    3.421453
     72          1           0       -5.160144   -0.952858    4.290939
     73          1           0       -4.075066   -2.049230    5.136205
     74          1           0       -5.609968   -2.657154    4.424352
     75          1           0       -4.336724   -4.841833    0.874917
     76          1           0       -3.314667   -4.667015    2.281372
     77          1           0       -2.510138   -3.013880   -0.092202
     78          1           0       -2.742293   -4.621285   -0.329570
     79          1           0        0.038740    1.206198    4.139653
     80          1           0       -1.223759    1.472234    5.400980
     81          1           0       -0.016636    2.683432    4.986472
     82          1           0       -0.361878    7.081937    2.865684
     83          1           0       -2.070346    6.474245    2.526143
     84          1           0       -0.780551    6.093096    1.399419
     85          1           0       -3.266670    5.736788   -1.955775
     86          1           0       -6.384616    5.481108   -1.970270
     87          1           0       -3.694869    7.680419   -0.989257
     88          1           0       -4.367616    6.928384    0.460847
     89          1           0       -5.358973    7.270960   -1.042323
     90          1           0       -4.781261    5.761476   -4.203388
     91          1           0       -6.269275    5.043624   -4.303782
     92          1           0       -5.385682    2.875965   -4.580762
     93          1           0       -3.927710    3.201759   -3.623601
     94          1           0       -4.145072    4.014052   -5.260538
     95          1           0       -9.252632    1.381516   -2.924777
     96          1           0       -9.099887   -0.162176   -3.843266
     97          1           0       -8.018345    1.220344   -4.234660
     98          1           0       -6.933937   -3.418723    0.148332
     99          1           0       -5.613340   -6.886254   -2.048015
    100          1           0       -4.460465   -6.703866   -0.758143
    101          1           0       -4.192399   -5.812819   -2.309841
    102          1           0        1.444022   -6.029538    1.023453
    103          1           0        1.368269   -4.364139    1.782633
    104          1           0        1.907142   -4.179373   -1.058087
    105          1           0        3.563070   -4.323385    2.303315
    106          1           0        5.269005   -4.173574    1.562679
    107          1           0        4.183298   -5.632617    1.543901
    108          1           0        4.075133   -4.171753   -1.951537
    109          1           0        5.389241   -4.279688   -0.792383
    110          1           0        4.027455   -1.780298   -0.536717
    111          1           0        4.319811   -2.065465   -2.235622
    112          1           0        6.739572   -2.300967   -1.686843
    113          1           0        6.419248   -2.128792   -0.006552
    114          1           0        5.230586    0.314582   -1.184048
    115          1           0        6.985239   -0.703575   -3.136308
    116          1           0        7.361212    1.028078   -2.450964
    117          1           0        5.829284    0.558882   -3.190668
    118          1           0        6.819941    0.233843    0.852343
    119          1           0        7.363965    1.454591   -0.176726
    120          1           0        8.668285   -1.237004   -0.964095
    121          1           0        8.666622   -1.025476    0.775014
    122          1           0        9.488932    1.562576   -0.259223
    123          1           0       10.117042    0.458144   -1.257666
    124          1           0       11.000014   -0.915973    0.609195
    125          1           0       10.050867    1.381554    2.194851
    126          1           0       11.788342    0.954030    2.558258
    127          1           0       10.653949   -0.227905    2.764072
    128          1           0       12.957650    1.180779    0.838418
    129          1           0       11.951307    1.722051   -0.551609
    130          1           0       12.598794    0.017523   -1.990352
    131          1           0       12.897544   -1.137363   -0.657803
    132          1           0       15.115130   -0.743077   -1.255423
    133          1           0       14.822016    0.177031    0.138530
    134          1           0       14.129876    2.000611   -2.149376
    135          1           0       15.288481    0.272200   -3.409250
    136          1           0       16.727415    0.551439   -2.416046
    137          1           0       16.141373    1.844313   -3.509120
    138          1           0       16.829625    2.412398   -0.921511
    139          1           0       15.466209    2.452160    0.191531
    140          1           0       15.553113    3.570573   -1.148917
 ---------------------------------------------------------------------

 SCF Done:  E(RZINDO/S) =  -473.852468375     A.U. after   19 cycles

 Excitation energies and oscillator strengths:

 Excited State   1:      Singlet-A      1.2438 eV  996.84 nm  f=0.5530  <S**2>=0.000
     175 ->178        -0.19379
     176 ->177         0.66270
 This state for optimization and/or second-order correction.
 Total Energy, E(CIS/TDA) =  -473.806760394
 Copying the excited state density for this state as the 1-particle RhoCI density.

 Excited State   2:      Singlet-A      1.8777 eV  660.28 nm  f=0.0203  <S**2>=0.000
     175 ->177         0.52604
     176 ->178         0.44773

 Excited State   3:      Singlet-A      2.8559 eV  434.13 nm  f=0.0887  <S**2>=0.000
     175 ->177         0.13332
     176 ->178        -0.18933
     176 ->179         0.52439
     176 ->180        -0.32987
     176 ->181        -0.17031

 Excited State   4:      Singlet-A      2.9161 eV  425.17 nm  f=0.6015  <S**2>=0.000
     175 ->177         0.30780
     176 ->178        -0.37564
     176 ->180         0.47327

 Excited State   5:      Singlet-A      3.0085 eV  412.11 nm  f=0.0226  <S**2>=0.000
     168 ->177        -0.29987
     168 ->179        -0.34871
     168 ->181        -0.34326
     168 ->185        -0.26356

 The electronic state is 1-A.
 Alpha  occ. eigenvalues --   -1.83710  -1.79357  -1.78607  -1.72270  -1.71113
 Alpha  occ. eigenvalues --   -1.69408  -1.63110  -1.59257  -1.58804  -1.58366
 Alpha  occ. eigenvalues --   -1.54695  -1.51566  -1.48760  -1.48531  -1.45130
 Alpha  occ. eigenvalues --   -1.42955  -1.42281  -1.39765  -1.37884  -1.37694
 Alpha  occ. eigenvalues --   -1.36231  -1.34150  -1.33174  -1.30117  -1.28347
 Alpha  occ. eigenvalues --   -1.26660  -1.26414  -1.23343  -1.20603  -1.18313
 Alpha  occ. eigenvalues --   -1.16953  -1.15779  -1.15378  -1.14482  -1.13400
 Alpha  occ. eigenvalues --   -1.11783  -1.08584  -1.07795  -1.04207  -1.04033
 Alpha  occ. eigenvalues --   -1.01332  -1.01011  -0.98465  -0.97405  -0.96987
 Alpha  occ. eigenvalues --   -0.96015  -0.93790  -0.93150  -0.92707  -0.91095
 Alpha  occ. eigenvalues --   -0.90008  -0.89645  -0.88595  -0.87860  -0.85640
 Alpha  occ. eigenvalues --   -0.84794  -0.83440  -0.82957  -0.81437  -0.80459
 Alpha  occ. eigenvalues --   -0.79813  -0.78801  -0.77323  -0.76188  -0.76044
 Alpha  occ. eigenvalues --   -0.75444  -0.75335  -0.74992  -0.74851  -0.73606
 Alpha  occ. eigenvalues --   -0.73267  -0.72331  -0.72099  -0.71434  -0.70861
 Alpha  occ. eigenvalues --   -0.70040  -0.69077  -0.68821  -0.68501  -0.68425
 Alpha  occ. eigenvalues --   -0.67901  -0.67304  -0.66359  -0.65601  -0.65310
 Alpha  occ. eigenvalues --   -0.64856  -0.64689  -0.64493  -0.64281  -0.63542
 Alpha  occ. eigenvalues --   -0.63289  -0.63143  -0.62875  -0.62278  -0.61881
 Alpha  occ. eigenvalues --   -0.61519  -0.61120  -0.60935  -0.60271  -0.59683
 Alpha  occ. eigenvalues --   -0.59387  -0.58631  -0.58598  -0.57924  -0.57508
 Alpha  occ. eigenvalues --   -0.57344  -0.56944  -0.56798  -0.56412  -0.56190
 Alpha  occ. eigenvalues --   -0.56032  -0.55975  -0.55496  -0.55346  -0.54701
 Alpha  occ. eigenvalues --   -0.54331  -0.54305  -0.53688  -0.53209  -0.52771
 Alpha  occ. eigenvalues --   -0.52558  -0.52537  -0.51916  -0.51790  -0.51547
 Alpha  occ. eigenvalues --   -0.51182  -0.50908  -0.50493  -0.50253  -0.49995
 Alpha  occ. eigenvalues --   -0.49723  -0.49537  -0.49104  -0.48910  -0.48784
 Alpha  occ. eigenvalues --   -0.48573  -0.48334  -0.48330  -0.47868  -0.47436
 Alpha  occ. eigenvalues --   -0.47223  -0.47166  -0.47079  -0.46819  -0.46734
 Alpha  occ. eigenvalues --   -0.46300  -0.46229  -0.46226  -0.45801  -0.45633
 Alpha  occ. eigenvalues --   -0.45478  -0.45074  -0.44716  -0.44566  -0.44232
 Alpha  occ. eigenvalues --   -0.44064  -0.43732  -0.43080  -0.42721  -0.42471
 Alpha  occ. eigenvalues --   -0.42011  -0.41310  -0.40605  -0.39394  -0.38901
 Alpha  occ. eigenvalues --   -0.38443  -0.37392  -0.35631  -0.34875  -0.34625
 Alpha  occ. eigenvalues --   -0.33236  -0.32367  -0.32045  -0.31079  -0.26564
 Alpha  occ. eigenvalues --   -0.21562
 Alpha virt. eigenvalues --   -0.08333  -0.02365  -0.00761   0.00722   0.01120
 Alpha virt. eigenvalues --    0.01416   0.02609   0.02875   0.04412   0.04822
 Alpha virt. eigenvalues --    0.05894   0.06284   0.07391   0.07615   0.07684

 Mulliken charges:
               1
     1  Mg   0.439965
     2  C   -0.030811
     3  C   -0.068506
     4  C   -0.104630
     5  C   -0.064087
     6  N   -0.281551
     7  C    0.081537
     8  C    0.007907
     9  C    0.017748
    10  C    0.155188
    11  C   -0.048284
    12  C   -0.018346
    13  C    0.000553
    14  C    0.466819
    15  O   -0.516088
    16  O   -0.264760
    17  N   -0.324592
    18  C    0.106848
    19  C    0.044520
    20  C   -0.070916
    21  C    0.172817
    22  C   -0.039940
    23  C    0.335268
    24  O   -0.525165
    25  C   -0.026529
    26  N   -0.292682
    27  C    0.147327
    28  C    0.005243
    29  C    0.004070
    30  C    0.111429
    31  C   -0.059567
    32  C   -0.040447
    33  C   -0.057943
    34  N   -0.312503
    35  C    0.070007
    36  C    0.018536
    37  C   -0.044994
    38  C    0.100109
    39  C   -0.033353
    40  C    0.340376
    41  O   -0.525870
    42  C    0.059490
    43  C    0.491162
    44  O   -0.534987
    45  O   -0.275363
    46  C    0.074961
    47  C    0.107169
    48  C   -0.086574
    49  C   -0.026803
    50  C   -0.043054
    51  C   -0.029420
    52  C   -0.029602
    53  C   -0.033942
    54  C   -0.028083
    55  C   -0.065082
    56  C   -0.034246
    57  C   -0.037304
    58  C   -0.048932
    59  C   -0.016320
    60  C   -0.060297
    61  C   -0.044470
    62  C   -0.037410
    63  C   -0.033252
    64  C   -0.014972
    65  C   -0.063520
    66  C   -0.047686
    67  H    0.027583
    68  H    0.012183
    69  H    0.022908
    70  H    0.022417
    71  H    0.035041
    72  H    0.022506
    73  H    0.021160
    74  H    0.027488
    75  H    0.020873
    76  H    0.027471
    77  H    0.059053
    78  H    0.035651
    79  H    0.032278
    80  H    0.035871
    81  H    0.031493
    82  H    0.044652
    83  H    0.042465
    84  H    0.035993
    85  H    0.046461
    86  H    0.030623
    87  H    0.014860
    88  H    0.037046
    89  H    0.019205
    90  H    0.012042
    91  H    0.018705
    92  H    0.026914
    93  H    0.031519
    94  H    0.019959
    95  H    0.032203
    96  H    0.033427
    97  H    0.034011
    98  H    0.058514
    99  H    0.036649
   100  H    0.031244
   101  H    0.057707
   102  H    0.056185
   103  H    0.067217
   104  H    0.037617
   105  H    0.025038
   106  H    0.038707
   107  H    0.027223
   108  H    0.021149
   109  H    0.013708
   110  H    0.012687
   111  H    0.019984
   112  H    0.015804
   113  H    0.020431
   114  H    0.025967
   115  H    0.025933
   116  H    0.028432
   117  H    0.008577
   118  H    0.004292
   119  H    0.028687
   120  H    0.033309
   121  H    0.016689
   122  H    0.025412
   123  H   -0.001765
   124  H    0.026064
   125  H    0.027857
   126  H    0.017842
   127  H    0.012540
   128  H    0.027412
   129  H    0.022524
   130  H    0.028263
   131  H    0.014641
   132  H    0.021005
   133  H    0.014052
   134  H    0.026275
   135  H    0.014167
   136  H    0.017841
   137  H    0.014665
   138  H    0.020139
   139  H    0.011630
   140  H    0.017459
 Sum of Mulliken charges =  -0.00000

 Dipole moment (field-independent basis, Debye):
    X=              0.2106    Y=              1.4348    Z=              1.9343  Tot=              2.4175
 N-N= 4.357703870204D+03 E-N= 0.000000000000D+00  KE=-9.389609939769D+03
 Leave Link  601 at Wed May  4 14:54:53 2022, MaxMem=  6710886400 cpu:               0.8 elap:               0.0
 (Enter /sw/apps/gaussian-16.0/g16/l9999.exe)
 1\1\GINC-BP1-COMPUTE062\SP\RZINDO CIS\STO-3G\C55H74Mg1N4O6\OF15641\04-
 May-2022\0\\#p ZINDO=(nstates=5)\\step_1801_chromophore_11 ZINDO\\0,1\
 Mg,0,53.383,23.828,44.802\C,0,50.657,26.027,44.379\C,0,51.311,21.191,4
 4.182\C,0,56.136,21.917,44.23\C,0,55.474,26.639,45.127\N,0,51.167,23.6
 33,44.113\C,0,50.253,24.675,44.215\C,0,48.804,24.127,44.252\C,0,49.078
 ,22.646,44.564\C,0,50.547,22.436,44.218\C,0,48.793,22.171,46.01\C,0,47
 .889,24.353,43.013\C,0,48.447,24.264,41.612\C,0,47.917,23.04,40.773\O,

 Normal termination of Gaussian 16 at Wed May  4 14:54:53 2022.
