 Gaussian 16, Revision A.03,
 Gaussian 16:  ES64L-G16RevA.03 25-Dec-2016

 ------------------------------
 #p blyp/Def2SVP td=(nstates=5)
 ------------------------------

 ---------------------------------------------------
 step_1001_chromophore_13 TDDFT with blyp functional
 ---------------------------------------------------
 Symbolic Z-matrix:
 Charge =  0 Multiplicity = 1

                         Standard orientation:
 ---------------------------------------------------------------------
 Center     Atomic      Atomic             Coordinates (Angstroms)
 Number     Number       Type             X           Y           Z
 ---------------------------------------------------------------------
      1         12           0       -6.166642    0.495214   -0.261833
      2          6           0       -3.803251   -2.193419    0.012222
      3          6           0       -3.502424    2.480368    0.816524
      4          6           0       -8.327720    2.763142    0.173664
      5          6           0       -8.615273   -1.894526   -0.804365
      6          7           0       -3.900692    0.117639    0.485143
      7          6           0       -3.161890   -1.021298    0.400083
      8          6           0       -1.649325   -0.819932    0.707977
      9          6           0       -1.565471    0.716665    1.175296
     10          6           0       -3.069558    1.139380    0.795688
     11          6           0       -1.193553    0.938765    2.707074
     12          6           0       -0.727490   -1.205415   -0.464286
     13          6           0        0.607470   -1.777001   -0.031419
     14          6           0        1.855466   -1.296192   -0.820947
     15          8           0        1.986256   -0.514358   -1.757034
     16          8           0        2.922870   -2.040174   -0.395945
     17          7           0       -5.939281    2.389562    0.268341
     18          6           0       -4.756744    3.077495    0.563665
     19          6           0       -5.119691    4.453782    0.592952
     20          6           0       -6.570815    4.539123    0.491636
     21          6           0       -7.012131    3.198974    0.403566
     22          6           0       -4.081097    5.538974    0.705747
     23          6           0       -7.415971    5.853802    0.496420
     24          8           0       -8.658056    5.806258    0.405170
     25          6           0       -6.792376    7.248815    0.703866
     26          7           0       -8.195237    0.415596   -0.215016
     27          6           0       -8.892893    1.514978   -0.035598
     28          6           0      -10.345161    1.255944   -0.205189
     29          6           0      -10.492447   -0.243718   -0.585490
     30          6           0       -9.011335   -0.590872   -0.633887
     31          6           0      -11.178640    1.715382    0.996873
     32          6           0      -11.286530   -0.435968   -2.028109
     33          6           0      -10.353412   -0.580286   -3.282465
     34          7           0       -6.188655   -1.617320   -0.378755
     35          6           0       -7.341369   -2.428455   -0.669504
     36          6           0       -6.902516   -3.786480   -0.754269
     37          6           0       -5.491811   -3.711392   -0.559102
     38          6           0       -5.126919   -2.391605   -0.308533
     39          6           0       -7.750008   -5.078342   -0.881781
     40          6           0       -4.375066   -4.583335   -0.347940
     41          8           0       -4.183490   -5.789138   -0.409396
     42          6           0       -3.264563   -3.619327    0.056901
     43          6           0       -2.816776   -3.929577    1.435272
     44          8           0       -3.401076   -3.667258    2.427384
     45          8           0       -1.541547   -4.570950    1.361033
     46          6           0       -0.856928   -4.756113    2.676644
     47          6           0        4.217831   -1.861844   -1.089687
     48          6           0        5.152945   -1.038207   -0.283237
     49          6           0        6.495617   -0.964272   -0.376526
     50          6           0        7.326826   -1.470447   -1.484927
     51          6           0        7.233044   -0.040300    0.637999
     52          6           0        7.670653    1.377839    0.039870
     53          6           0        9.120654    1.724384    0.194844
     54          6           0        9.899539    2.068697   -1.087953
     55          6           0        9.139571    3.219666   -1.736800
     56          6           0       10.200708    0.859780   -2.034296
     57          6           0       11.564904    0.944466   -2.749845
     58          6           0       12.755064    0.099553   -2.080266
     59          6           0       13.888057    0.990271   -1.468738
     60          6           0       14.557861    1.787591   -2.586914
     61          6           0       14.871250    0.080340   -0.646168
     62          6           0       14.736564    0.376493    0.818977
     63          6           0       13.958535   -0.655449    1.627204
     64          6           0       13.086307    0.024304    2.734168
     65          6           0       12.973825   -0.874737    4.006120
     66          6           0       11.657503    0.450349    2.302345
     67          1           0       -2.685933    3.197771    0.925960
     68          1           0       -9.027423    3.592406    0.301723
     69          1           0       -9.422325   -2.615722   -0.950496
     70          1           0       -1.329033   -1.385579    1.583943
     71          1           0       -0.818446    1.253312    0.590735
     72          1           0       -0.330479    1.601132    2.777663
     73          1           0       -0.996074   -0.018339    3.189790
     74          1           0       -2.037654    1.499352    3.107904
     75          1           0       -0.346402   -0.379742   -1.065709
     76          1           0       -1.256666   -1.874462   -1.142395
     77          1           0        0.565746   -2.865500   -0.079584
     78          1           0        0.735050   -1.613008    1.039066
     79          1           0       -3.989249    6.292888   -0.075050
     80          1           0       -3.069475    5.140746    0.780882
     81          1           0       -4.306406    6.201092    1.541952
     82          1           0       -5.978796    7.327304    1.425744
     83          1           0       -7.431014    8.119035    0.857217
     84          1           0       -6.311691    7.173709   -0.271413
     85          1           0      -10.687149    1.881337   -1.029799
     86          1           0      -11.051459   -0.766773    0.190847
     87          1           0      -10.616356    2.041006    1.872187
     88          1           0      -11.816276    0.912733    1.367035
     89          1           0      -11.784736    2.560369    0.668761
     90          1           0      -12.050416    0.337110   -2.115086
     91          1           0      -11.749830   -1.414339   -1.902851
     92          1           0      -10.166540   -1.607005   -3.598176
     93          1           0       -9.405315   -0.057533   -3.155132
     94          1           0      -10.871905   -0.015819   -4.057312
     95          1           0       -7.361025   -5.650106   -1.723811
     96          1           0       -8.756696   -4.808462   -1.201216
     97          1           0       -7.703221   -5.636829    0.052915
     98          1           0       -2.423577   -3.780611   -0.618008
     99          1           0        0.144894   -4.331993    2.750872
    100          1           0       -0.634328   -5.815863    2.803029
    101          1           0       -1.486724   -4.440600    3.508209
    102          1           0        4.138609   -1.582652   -2.140056
    103          1           0        4.603325   -2.879335   -1.030278
    104          1           0        4.713579   -0.529340    0.574872
    105          1           0        7.358807   -0.647335   -2.199546
    106          1           0        6.830634   -2.354197   -1.887114
    107          1           0        8.271983   -1.692151   -0.989924
    108          1           0        8.086791   -0.625339    0.977326
    109          1           0        6.540378    0.179006    1.450366
    110          1           0        7.091569    2.110566    0.602238
    111          1           0        7.306423    1.434450   -0.986570
    112          1           0        9.598442    0.897357    0.720359
    113          1           0        9.305444    2.580087    0.844094
    114          1           0       10.810776    2.555328   -0.738596
    115          1           0        8.584111    2.833386   -2.591415
    116          1           0        9.763206    3.995973   -2.181420
    117          1           0        8.437255    3.684895   -1.045733
    118          1           0        9.454054    0.925670   -2.824658
    119          1           0       10.127101   -0.085152   -1.494274
    120          1           0       11.832925    2.001311   -2.725219
    121          1           0       11.427022    0.488982   -3.731146
    122          1           0       13.133281   -0.703082   -2.713050
    123          1           0       12.311625   -0.549222   -1.324861
    124          1           0       13.451544    1.767656   -0.841255
    125          1           0       14.148867    1.563303   -3.571438
    126          1           0       15.636026    1.625298   -2.576009
    127          1           0       14.339589    2.852176   -2.504699
    128          1           0       15.943144    0.230376   -0.771989
    129          1           0       14.610181   -0.962049   -0.826681
    130          1           0       14.142204    1.266053    1.027883
    131          1           0       15.738794    0.465482    1.236995
    132          1           0       14.749298   -1.329913    1.956276
    133          1           0       13.236769   -1.205418    1.022382
    134          1           0       13.639389    0.924660    2.999824
    135          1           0       13.308205   -1.901317    3.855198
    136          1           0       12.020404   -0.825142    4.532843
    137          1           0       13.770865   -0.386607    4.566662
    138          1           0       10.954650   -0.379742    2.241342
    139          1           0       11.674222    0.975011    1.347259
    140          1           0       11.218311    1.207130    2.951790
 ---------------------------------------------------------------------

 SCF Done:  E(RB-LYP) =  -3007.35721691     A.U. after   21 cycles

 Excitation energies and oscillator strengths:

 Excited State   1:      Singlet-A      1.8303 eV  677.40 nm  f=0.0437  <S**2>=0.000
     244 -> 247        0.64332
     246 -> 247        0.28190
 This state for optimization and/or second-order correction.
 Total Energy, E(TD-HF/TD-DFT) =  -3007.28995475
 Copying the excited state density for this state as the 1-particle RhoCI density.

 Excited State   2:      Singlet-A      1.8948 eV  654.34 nm  f=0.0916  <S**2>=0.000
     243 -> 247        0.56787
     244 -> 247       -0.18691
     245 -> 248       -0.11319
     246 -> 247        0.36312

 Excited State   3:      Singlet-A      1.9061 eV  650.47 nm  f=0.1619  <S**2>=0.000
     243 -> 247       -0.41954
     244 -> 247       -0.22254
     245 -> 248       -0.15944
     246 -> 247        0.50145
     246 <- 247       -0.10065

 Excited State   4:      Singlet-A      2.0344 eV  609.43 nm  f=0.1070  <S**2>=0.000
     240 -> 247        0.12210
     245 -> 247        0.65238
     246 -> 248        0.22714

 Excited State   5:      Singlet-A      2.2326 eV  555.34 nm  f=0.0000  <S**2>=0.000
     242 -> 247        0.70710

 The electronic state is 1-A.
 Alpha  occ. eigenvalues --  -46.26582 -18.81730 -18.81230 -18.77386 -18.77317
 Alpha  occ. eigenvalues --  -18.75602 -18.75106 -14.03240 -14.02869 -14.00615
 Alpha  occ. eigenvalues --  -14.00317 -10.04537 -10.03506 -10.00886  -9.98647
 Alpha  occ. eigenvalues --   -9.97941  -9.97068  -9.96786  -9.96556  -9.95973
 Alpha  occ. eigenvalues --   -9.95848  -9.95716  -9.95572  -9.95260  -9.94858
 Alpha  occ. eigenvalues --   -9.94530  -9.94107  -9.93935  -9.93796  -9.93753
 Alpha  occ. eigenvalues --   -9.93588  -9.93585  -9.93133  -9.93121  -9.93117
 Alpha  occ. eigenvalues --   -9.92998  -9.92957  -9.92822  -9.92746  -9.92700
 Alpha  occ. eigenvalues --   -9.92641  -9.92553  -9.92377  -9.92319  -9.92283
 Alpha  occ. eigenvalues --   -9.92201  -9.92172  -9.92107  -9.92017  -9.91781
 Alpha  occ. eigenvalues --   -9.91761  -9.91666  -9.91575  -9.91447  -9.91377
 Alpha  occ. eigenvalues --   -9.91368  -9.91315  -9.91098  -9.90782  -9.90749
 Alpha  occ. eigenvalues --   -9.90746  -9.90709  -9.90589  -9.90397  -9.90376
 Alpha  occ. eigenvalues --   -9.90316  -2.91464  -1.71853  -1.71411  -1.71141
 Alpha  occ. eigenvalues --   -0.97805  -0.97298  -0.90804  -0.90438  -0.89853
 Alpha  occ. eigenvalues --   -0.89485  -0.87776  -0.86186  -0.85570  -0.84942
 Alpha  occ. eigenvalues --   -0.75833  -0.73837  -0.73169  -0.72888  -0.72374
 Alpha  occ. eigenvalues --   -0.72330  -0.71717  -0.70932  -0.70738  -0.70031
 Alpha  occ. eigenvalues --   -0.69389  -0.68962  -0.68041  -0.67233  -0.67127
 Alpha  occ. eigenvalues --   -0.66518  -0.65876  -0.65599  -0.65006  -0.64469
 Alpha  occ. eigenvalues --   -0.64196  -0.62719  -0.62353  -0.61742  -0.60608
 Alpha  occ. eigenvalues --   -0.60392  -0.60136  -0.60000  -0.59553  -0.59159
 Alpha  occ. eigenvalues --   -0.58356  -0.57951  -0.56890  -0.55509  -0.55326
 Alpha  occ. eigenvalues --   -0.54161  -0.53650  -0.52757  -0.52362  -0.51421
 Alpha  occ. eigenvalues --   -0.51372  -0.50829  -0.50251  -0.50170  -0.49883
 Alpha  occ. eigenvalues --   -0.48996  -0.48901  -0.47897  -0.47566  -0.47412
 Alpha  occ. eigenvalues --   -0.46125  -0.45924  -0.45732  -0.45223  -0.44659
 Alpha  occ. eigenvalues --   -0.44435  -0.44263  -0.42982  -0.42643  -0.42475
 Alpha  occ. eigenvalues --   -0.42044  -0.41685  -0.41436  -0.41325  -0.40986
 Alpha  occ. eigenvalues --   -0.40827  -0.40665  -0.40565  -0.40312  -0.40128
 Alpha  occ. eigenvalues --   -0.39820  -0.39783  -0.39619  -0.39431  -0.39324
 Alpha  occ. eigenvalues --   -0.39037  -0.38799  -0.38623  -0.38523  -0.38340
 Alpha  occ. eigenvalues --   -0.38026  -0.37883  -0.37705  -0.37559  -0.37426
 Alpha  occ. eigenvalues --   -0.37260  -0.36922  -0.36734  -0.36524  -0.36498
 Alpha  occ. eigenvalues --   -0.36059  -0.36039  -0.35863  -0.35812  -0.35732
 Alpha  occ. eigenvalues --   -0.35524  -0.35245  -0.34993  -0.34780  -0.34668
 Alpha  occ. eigenvalues --   -0.34516  -0.34355  -0.33971  -0.33927  -0.33723
 Alpha  occ. eigenvalues --   -0.33476  -0.33468  -0.33282  -0.33183  -0.32926
 Alpha  occ. eigenvalues --   -0.32825  -0.32778  -0.32585  -0.32513  -0.32239
 Alpha  occ. eigenvalues --   -0.31973  -0.31944  -0.31655  -0.31592  -0.31444
 Alpha  occ. eigenvalues --   -0.31381  -0.31191  -0.31093  -0.30953  -0.30492
 Alpha  occ. eigenvalues --   -0.30438  -0.30163  -0.30000  -0.29869  -0.29823
 Alpha  occ. eigenvalues --   -0.29736  -0.29530  -0.29447  -0.29315  -0.29123
 Alpha  occ. eigenvalues --   -0.28544  -0.28380  -0.28105  -0.27742  -0.27602
 Alpha  occ. eigenvalues --   -0.27311  -0.27187  -0.27122  -0.26857  -0.26645
 Alpha  occ. eigenvalues --   -0.26444  -0.26305  -0.25931  -0.25908  -0.25184
 Alpha  occ. eigenvalues --   -0.24903  -0.24611  -0.24436  -0.24291  -0.23481
 Alpha  occ. eigenvalues --   -0.23307  -0.22831  -0.22486  -0.22034  -0.20318
 Alpha  occ. eigenvalues --   -0.20046  -0.19852  -0.18547  -0.18298  -0.17231
 Alpha  occ. eigenvalues --   -0.16310
 Alpha virt. eigenvalues --   -0.11648  -0.06730  -0.05949  -0.04455  -0.03131
 Alpha virt. eigenvalues --   -0.02997  -0.01899  -0.01645  -0.01431   0.00423
 Alpha virt. eigenvalues --    0.01328   0.01695   0.01933   0.02393   0.02532

 Mulliken charges:
               1
     1  Mg   0.715890
     2  C    0.019991
     3  C   -0.041878
     4  C   -0.075476
     5  C   -0.071459
     6  N   -0.144478
     7  C   -0.104245
     8  C    0.029671
     9  C   -0.033252
    10  C   -0.010145
    11  C    0.125304
    12  C    0.143107
    13  C    0.055968
    14  C    0.101274
    15  O   -0.189767
    16  O   -0.283013
    17  N   -0.360688
    18  C    0.148459
    19  C   -0.098869
    20  C    0.031072
    21  C    0.103504
    22  C    0.140936
    23  C   -0.029380
    24  O   -0.186890
    25  C    0.115506
    26  N   -0.236137
    27  C    0.051906
    28  C    0.035737
    29  C    0.027159
    30  C    0.017092
    31  C    0.120819
    32  C    0.045132
    33  C    0.072843
    34  N   -0.256014
    35  C    0.141497
    36  C   -0.175915
    37  C    0.059995
    38  C    0.090460
    39  C    0.185712
    40  C   -0.050927
    41  O   -0.127626
    42  C    0.053068
    43  C    0.106558
    44  O   -0.122974
    45  O   -0.314506
    46  C    0.196879
    47  C    0.326384
    48  C   -0.087455
    49  C   -0.234311
    50  C    0.182971
    51  C    0.121310
    52  C    0.085589
    53  C    0.062519
    54  C   -0.093352
    55  C    0.105433
    56  C    0.121934
    57  C    0.081737
    58  C    0.067716
    59  C   -0.069312
    60  C    0.117197
    61  C    0.153173
    62  C    0.032115
    63  C    0.086411
    64  C   -0.076589
    65  C    0.103493
    66  C    0.047467
    67  H   -0.068123
    68  H   -0.047432
    69  H   -0.066282
    70  H   -0.015152
    71  H   -0.013256
    72  H   -0.008141
    73  H    0.005486
    74  H   -0.000404
    75  H   -0.012924
    76  H   -0.015537
    77  H    0.016584
    78  H   -0.001847
    79  H   -0.007065
    80  H   -0.017810
    81  H   -0.003567
    82  H    0.000438
    83  H    0.008973
    84  H    0.008364
    85  H   -0.021559
    86  H   -0.016606
    87  H   -0.000683
    88  H   -0.020066
    89  H   -0.002596
    90  H   -0.003525
    91  H   -0.018317
    92  H    0.005066
    93  H    0.001026
    94  H   -0.010331
    95  H    0.006106
    96  H   -0.024746
    97  H    0.028617
    98  H   -0.010429
    99  H    0.008141
   100  H    0.008911
   101  H    0.024593
   102  H    0.016879
   103  H   -0.002255
   104  H   -0.042225
   105  H    0.021816
   106  H   -0.014087
   107  H   -0.001335
   108  H   -0.020046
   109  H   -0.035796
   110  H   -0.031743
   111  H   -0.016349
   112  H   -0.029137
   113  H   -0.039187
   114  H   -0.038214
   115  H   -0.027550
   116  H   -0.021145
   117  H   -0.012154
   118  H   -0.031026
   119  H   -0.027618
   120  H   -0.020099
   121  H   -0.030525
   122  H   -0.035120
   123  H   -0.054039
   124  H   -0.027246
   125  H   -0.019191
   126  H   -0.017691
   127  H   -0.024973
   128  H   -0.040474
   129  H   -0.030731
   130  H   -0.026670
   131  H   -0.035231
   132  H   -0.033718
   133  H   -0.033340
   134  H   -0.032937
   135  H   -0.013156
   136  H   -0.013215
   137  H   -0.021653
   138  H    0.003424
   139  H    0.000453
   140  H   -0.014937
 Sum of Mulliken charges =  -0.00000

 Dipole moment (field-independent basis, Debye):
    X=              2.7157    Y=              2.9817    Z=             -0.1495  Tot=              4.0358
 Quadrupole moment (field-independent basis, Debye-Ang):
   XX=           -370.3988   YY=           -424.9810   ZZ=           -406.8375
   XY=              2.3890   XZ=             17.3867   YZ=              2.6718

 Normal termination of Gaussian 16 at Tue Apr 26 20:42:35 2022.
