 Gaussian 16, Revision A.03,
 Gaussian 16:  ES64L-G16RevA.03 25-Dec-2016

 -----------------------------------
 #p cam-b3lyp/Def2SVP td=(nstates=5)
 -----------------------------------

 --------------------------------------------------------
 step_1001_chromophore_13 TDDFT with cam-b3lyp functional
 --------------------------------------------------------
 Symbolic Z-matrix:
 Charge =  0 Multiplicity = 1

                         Standard orientation:
 ---------------------------------------------------------------------
 Center     Atomic      Atomic             Coordinates (Angstroms)
 Number     Number       Type             X           Y           Z
 ---------------------------------------------------------------------
      1         12           0       -6.166642    0.495214   -0.261833
      2          6           0       -3.803251   -2.193419    0.012222
      3          6           0       -3.502424    2.480368    0.816524
      4          6           0       -8.327720    2.763142    0.173664
      5          6           0       -8.615273   -1.894526   -0.804365
      6          7           0       -3.900692    0.117639    0.485143
      7          6           0       -3.161890   -1.021298    0.400083
      8          6           0       -1.649325   -0.819932    0.707977
      9          6           0       -1.565471    0.716665    1.175296
     10          6           0       -3.069558    1.139380    0.795688
     11          6           0       -1.193553    0.938765    2.707074
     12          6           0       -0.727490   -1.205415   -0.464286
     13          6           0        0.607470   -1.777001   -0.031419
     14          6           0        1.855466   -1.296192   -0.820947
     15          8           0        1.986256   -0.514358   -1.757034
     16          8           0        2.922870   -2.040174   -0.395945
     17          7           0       -5.939281    2.389562    0.268341
     18          6           0       -4.756744    3.077495    0.563665
     19          6           0       -5.119691    4.453782    0.592952
     20          6           0       -6.570815    4.539123    0.491636
     21          6           0       -7.012131    3.198974    0.403566
     22          6           0       -4.081097    5.538974    0.705747
     23          6           0       -7.415971    5.853802    0.496420
     24          8           0       -8.658056    5.806258    0.405170
     25          6           0       -6.792376    7.248815    0.703866
     26          7           0       -8.195237    0.415596   -0.215016
     27          6           0       -8.892893    1.514978   -0.035598
     28          6           0      -10.345161    1.255944   -0.205189
     29          6           0      -10.492447   -0.243718   -0.585490
     30          6           0       -9.011335   -0.590872   -0.633887
     31          6           0      -11.178640    1.715382    0.996873
     32          6           0      -11.286530   -0.435968   -2.028109
     33          6           0      -10.353412   -0.580286   -3.282465
     34          7           0       -6.188655   -1.617320   -0.378755
     35          6           0       -7.341369   -2.428455   -0.669504
     36          6           0       -6.902516   -3.786480   -0.754269
     37          6           0       -5.491811   -3.711392   -0.559102
     38          6           0       -5.126919   -2.391605   -0.308533
     39          6           0       -7.750008   -5.078342   -0.881781
     40          6           0       -4.375066   -4.583335   -0.347940
     41          8           0       -4.183490   -5.789138   -0.409396
     42          6           0       -3.264563   -3.619327    0.056901
     43          6           0       -2.816776   -3.929577    1.435272
     44          8           0       -3.401076   -3.667258    2.427384
     45          8           0       -1.541547   -4.570950    1.361033
     46          6           0       -0.856928   -4.756113    2.676644
     47          6           0        4.217831   -1.861844   -1.089687
     48          6           0        5.152945   -1.038207   -0.283237
     49          6           0        6.495617   -0.964272   -0.376526
     50          6           0        7.326826   -1.470447   -1.484927
     51          6           0        7.233044   -0.040300    0.637999
     52          6           0        7.670653    1.377839    0.039870
     53          6           0        9.120654    1.724384    0.194844
     54          6           0        9.899539    2.068697   -1.087953
     55          6           0        9.139571    3.219666   -1.736800
     56          6           0       10.200708    0.859780   -2.034296
     57          6           0       11.564904    0.944466   -2.749845
     58          6           0       12.755064    0.099553   -2.080266
     59          6           0       13.888057    0.990271   -1.468738
     60          6           0       14.557861    1.787591   -2.586914
     61          6           0       14.871250    0.080340   -0.646168
     62          6           0       14.736564    0.376493    0.818977
     63          6           0       13.958535   -0.655449    1.627204
     64          6           0       13.086307    0.024304    2.734168
     65          6           0       12.973825   -0.874737    4.006120
     66          6           0       11.657503    0.450349    2.302345
     67          1           0       -2.685933    3.197771    0.925960
     68          1           0       -9.027423    3.592406    0.301723
     69          1           0       -9.422325   -2.615722   -0.950496
     70          1           0       -1.329033   -1.385579    1.583943
     71          1           0       -0.818446    1.253312    0.590735
     72          1           0       -0.330479    1.601132    2.777663
     73          1           0       -0.996074   -0.018339    3.189790
     74          1           0       -2.037654    1.499352    3.107904
     75          1           0       -0.346402   -0.379742   -1.065709
     76          1           0       -1.256666   -1.874462   -1.142395
     77          1           0        0.565746   -2.865500   -0.079584
     78          1           0        0.735050   -1.613008    1.039066
     79          1           0       -3.989249    6.292888   -0.075050
     80          1           0       -3.069475    5.140746    0.780882
     81          1           0       -4.306406    6.201092    1.541952
     82          1           0       -5.978796    7.327304    1.425744
     83          1           0       -7.431014    8.119035    0.857217
     84          1           0       -6.311691    7.173709   -0.271413
     85          1           0      -10.687149    1.881337   -1.029799
     86          1           0      -11.051459   -0.766773    0.190847
     87          1           0      -10.616356    2.041006    1.872187
     88          1           0      -11.816276    0.912733    1.367035
     89          1           0      -11.784736    2.560369    0.668761
     90          1           0      -12.050416    0.337110   -2.115086
     91          1           0      -11.749830   -1.414339   -1.902851
     92          1           0      -10.166540   -1.607005   -3.598176
     93          1           0       -9.405315   -0.057533   -3.155132
     94          1           0      -10.871905   -0.015819   -4.057312
     95          1           0       -7.361025   -5.650106   -1.723811
     96          1           0       -8.756696   -4.808462   -1.201216
     97          1           0       -7.703221   -5.636829    0.052915
     98          1           0       -2.423577   -3.780611   -0.618008
     99          1           0        0.144894   -4.331993    2.750872
    100          1           0       -0.634328   -5.815863    2.803029
    101          1           0       -1.486724   -4.440600    3.508209
    102          1           0        4.138609   -1.582652   -2.140056
    103          1           0        4.603325   -2.879335   -1.030278
    104          1           0        4.713579   -0.529340    0.574872
    105          1           0        7.358807   -0.647335   -2.199546
    106          1           0        6.830634   -2.354197   -1.887114
    107          1           0        8.271983   -1.692151   -0.989924
    108          1           0        8.086791   -0.625339    0.977326
    109          1           0        6.540378    0.179006    1.450366
    110          1           0        7.091569    2.110566    0.602238
    111          1           0        7.306423    1.434450   -0.986570
    112          1           0        9.598442    0.897357    0.720359
    113          1           0        9.305444    2.580087    0.844094
    114          1           0       10.810776    2.555328   -0.738596
    115          1           0        8.584111    2.833386   -2.591415
    116          1           0        9.763206    3.995973   -2.181420
    117          1           0        8.437255    3.684895   -1.045733
    118          1           0        9.454054    0.925670   -2.824658
    119          1           0       10.127101   -0.085152   -1.494274
    120          1           0       11.832925    2.001311   -2.725219
    121          1           0       11.427022    0.488982   -3.731146
    122          1           0       13.133281   -0.703082   -2.713050
    123          1           0       12.311625   -0.549222   -1.324861
    124          1           0       13.451544    1.767656   -0.841255
    125          1           0       14.148867    1.563303   -3.571438
    126          1           0       15.636026    1.625298   -2.576009
    127          1           0       14.339589    2.852176   -2.504699
    128          1           0       15.943144    0.230376   -0.771989
    129          1           0       14.610181   -0.962049   -0.826681
    130          1           0       14.142204    1.266053    1.027883
    131          1           0       15.738794    0.465482    1.236995
    132          1           0       14.749298   -1.329913    1.956276
    133          1           0       13.236769   -1.205418    1.022382
    134          1           0       13.639389    0.924660    2.999824
    135          1           0       13.308205   -1.901317    3.855198
    136          1           0       12.020404   -0.825142    4.532843
    137          1           0       13.770865   -0.386607    4.566662
    138          1           0       10.954650   -0.379742    2.241342
    139          1           0       11.674222    0.975011    1.347259
    140          1           0       11.218311    1.207130    2.951790
 ---------------------------------------------------------------------

 SCF Done:  E(RCAM-B3LYP) =  -3007.15556597     A.U. after   17 cycles

 Excitation energies and oscillator strengths:

 Excited State   1:      Singlet-A      1.7916 eV  692.01 nm  f=0.3725  <S**2>=0.000
     245 -> 248       -0.19787
     246 -> 247        0.68081
     245 <- 248       -0.11017
 This state for optimization and/or second-order correction.
 Total Energy, E(TD-HF/TD-DFT) =  -3007.08972438
 Copying the excited state density for this state as the 1-particle RhoCI density.

 Excited State   2:      Singlet-A      2.2216 eV  558.08 nm  f=0.1554  <S**2>=0.000
     245 -> 247        0.65329
     246 -> 248        0.25616

 Excited State   3:      Singlet-A      3.2366 eV  383.07 nm  f=0.0005  <S**2>=0.000
     242 -> 247       -0.39749
     244 -> 247        0.56648

 Excited State   4:      Singlet-A      3.3688 eV  368.04 nm  f=0.0047  <S**2>=0.000
     241 -> 247        0.15782
     241 -> 249        0.11123
     242 -> 247        0.52741
     244 -> 247        0.36985
     246 -> 248       -0.13208

 Excited State   5:      Singlet-A      3.4615 eV  358.18 nm  f=0.0016  <S**2>=0.000
     241 -> 247        0.58014
     241 -> 249        0.25929
     241 -> 251       -0.16603
     242 -> 247       -0.14834
     244 -> 247       -0.14008

 The electronic state is 1-A.
 Alpha  occ. eigenvalues --  -46.88077 -19.24591 -19.24165 -19.20570 -19.20312
 Alpha  occ. eigenvalues --  -19.18889 -19.18191 -14.42245 -14.41647 -14.39029
 Alpha  occ. eigenvalues --  -14.38615 -10.39889 -10.38998 -10.36315 -10.33853
 Alpha  occ. eigenvalues --  -10.31949 -10.31425 -10.31137 -10.31034 -10.30277
 Alpha  occ. eigenvalues --  -10.30196 -10.30167 -10.30056 -10.29328 -10.29101
 Alpha  occ. eigenvalues --  -10.28891 -10.28717 -10.27908 -10.27863 -10.27857
 Alpha  occ. eigenvalues --  -10.27854 -10.27667 -10.27419 -10.27361 -10.27241
 Alpha  occ. eigenvalues --  -10.27166 -10.26950 -10.26940 -10.26760 -10.26659
 Alpha  occ. eigenvalues --  -10.26491 -10.26409 -10.26347 -10.26306 -10.25974
 Alpha  occ. eigenvalues --  -10.25958 -10.25931 -10.25761 -10.25717 -10.25520
 Alpha  occ. eigenvalues --  -10.25434 -10.25384 -10.25375 -10.25297 -10.25271
 Alpha  occ. eigenvalues --  -10.25117 -10.25086 -10.24761 -10.24429 -10.24418
 Alpha  occ. eigenvalues --  -10.24398 -10.24359 -10.24306 -10.24182 -10.23943
 Alpha  occ. eigenvalues --  -10.23933  -3.16873  -1.91732  -1.91378  -1.91147
 Alpha  occ. eigenvalues --   -1.16279  -1.15974  -1.09127  -1.08883  -1.07744
 Alpha  occ. eigenvalues --   -1.07320  -1.05504  -1.03939  -1.03195  -1.02443
 Alpha  occ. eigenvalues --   -0.92947  -0.90759  -0.90013  -0.89743  -0.89110
 Alpha  occ. eigenvalues --   -0.89082  -0.88274  -0.87547  -0.87330  -0.86700
 Alpha  occ. eigenvalues --   -0.85912  -0.85322  -0.84324  -0.83382  -0.83240
 Alpha  occ. eigenvalues --   -0.82607  -0.81982  -0.81640  -0.80963  -0.80299
 Alpha  occ. eigenvalues --   -0.79985  -0.78509  -0.78007  -0.77217  -0.76014
 Alpha  occ. eigenvalues --   -0.75794  -0.75492  -0.75285  -0.74852  -0.74427
 Alpha  occ. eigenvalues --   -0.73428  -0.72981  -0.71812  -0.70353  -0.69933
 Alpha  occ. eigenvalues --   -0.68816  -0.68241  -0.67222  -0.66859  -0.65603
 Alpha  occ. eigenvalues --   -0.65367  -0.65058  -0.64424  -0.64095  -0.63923
 Alpha  occ. eigenvalues --   -0.62867  -0.62700  -0.61682  -0.61311  -0.61114
 Alpha  occ. eigenvalues --   -0.59803  -0.59462  -0.59285  -0.58563  -0.58305
 Alpha  occ. eigenvalues --   -0.57886  -0.57689  -0.56217  -0.55661  -0.55517
 Alpha  occ. eigenvalues --   -0.55211  -0.54655  -0.54507  -0.54216  -0.53780
 Alpha  occ. eigenvalues --   -0.53726  -0.53523  -0.53355  -0.53006  -0.52874
 Alpha  occ. eigenvalues --   -0.52679  -0.52499  -0.52299  -0.52171  -0.51978
 Alpha  occ. eigenvalues --   -0.51923  -0.51661  -0.51303  -0.51114  -0.50662
 Alpha  occ. eigenvalues --   -0.50589  -0.50442  -0.50057  -0.49868  -0.49763
 Alpha  occ. eigenvalues --   -0.49529  -0.49246  -0.48974  -0.48796  -0.48544
 Alpha  occ. eigenvalues --   -0.48525  -0.48402  -0.48142  -0.48018  -0.47846
 Alpha  occ. eigenvalues --   -0.47737  -0.47336  -0.47235  -0.46608  -0.46594
 Alpha  occ. eigenvalues --   -0.46405  -0.46135  -0.45793  -0.45620  -0.45587
 Alpha  occ. eigenvalues --   -0.45473  -0.45160  -0.45135  -0.44804  -0.44702
 Alpha  occ. eigenvalues --   -0.44551  -0.44387  -0.44357  -0.44130  -0.43985
 Alpha  occ. eigenvalues --   -0.43735  -0.43418  -0.43299  -0.43169  -0.43014
 Alpha  occ. eigenvalues --   -0.42972  -0.42683  -0.42520  -0.42472  -0.42046
 Alpha  occ. eigenvalues --   -0.41806  -0.41735  -0.41604  -0.41466  -0.41154
 Alpha  occ. eigenvalues --   -0.41020  -0.40907  -0.40720  -0.40652  -0.40302
 Alpha  occ. eigenvalues --   -0.39508  -0.39372  -0.39106  -0.38658  -0.38486
 Alpha  occ. eigenvalues --   -0.38272  -0.38133  -0.37985  -0.37670  -0.37614
 Alpha  occ. eigenvalues --   -0.37394  -0.37206  -0.36890  -0.36659  -0.36111
 Alpha  occ. eigenvalues --   -0.36019  -0.35713  -0.35181  -0.34918  -0.34722
 Alpha  occ. eigenvalues --   -0.34441  -0.33731  -0.33723  -0.31263  -0.30837
 Alpha  occ. eigenvalues --   -0.30366  -0.29629  -0.29434  -0.29272  -0.23853
 Alpha  occ. eigenvalues --   -0.21766
 Alpha virt. eigenvalues --   -0.08809  -0.01584   0.00533   0.01963   0.02595
 Alpha virt. eigenvalues --    0.04671   0.05634   0.05917   0.05998   0.07321
 Alpha virt. eigenvalues --    0.07828   0.07909   0.08338   0.08778   0.08914

 Mulliken charges:
               1
     1  Mg   0.847847
     2  C   -0.008253
     3  C   -0.054975
     4  C   -0.095130
     5  C   -0.073609
     6  N   -0.206876
     7  C   -0.067155
     8  C   -0.012542
     9  C   -0.071603
    10  C    0.001528
    11  C    0.068642
    12  C    0.085198
    13  C   -0.008280
    14  C    0.181456
    15  O   -0.233226
    16  O   -0.347343
    17  N   -0.452219
    18  C    0.155397
    19  C   -0.108118
    20  C   -0.033472
    21  C    0.134443
    22  C    0.084116
    23  C    0.045420
    24  O   -0.228220
    25  C    0.042192
    26  N   -0.311985
    27  C    0.074159
    28  C   -0.025273
    29  C   -0.021034
    30  C    0.024559
    31  C    0.060885
    32  C   -0.002168
    33  C    0.011054
    34  N   -0.345158
    35  C    0.136503
    36  C   -0.170915
    37  C   -0.021781
    38  C    0.134332
    39  C    0.140997
    40  C    0.045596
    41  O   -0.167994
    42  C   -0.025298
    43  C    0.194774
    44  O   -0.158583
    45  O   -0.379591
    46  C    0.161456
    47  C    0.290200
    48  C   -0.107830
    49  C   -0.249973
    50  C    0.120181
    51  C    0.070200
    52  C    0.022776
    53  C    0.017658
    54  C   -0.145936
    55  C    0.044783
    56  C    0.072126
    57  C    0.027334
    58  C    0.021455
    59  C   -0.123744
    60  C    0.056649
    61  C    0.093714
    62  C   -0.021410
    63  C    0.037228
    64  C   -0.135214
    65  C    0.042111
    66  C   -0.001737
    67  H   -0.034063
    68  H   -0.006418
    69  H   -0.031557
    70  H    0.014633
    71  H    0.020267
    72  H    0.016191
    73  H    0.028495
    74  H    0.025664
    75  H    0.022414
    76  H    0.015287
    77  H    0.049620
    78  H    0.028640
    79  H    0.021441
    80  H    0.010868
    81  H    0.021356
    82  H    0.027314
    83  H    0.043416
    84  H    0.030713
    85  H    0.014037
    86  H    0.017917
    87  H    0.025799
    88  H    0.004899
    89  H    0.021286
    90  H    0.022793
    91  H    0.008890
    92  H    0.027986
    93  H    0.022241
    94  H    0.013570
    95  H    0.031908
    96  H   -0.001077
    97  H    0.053136
    98  H    0.032968
    99  H    0.027063
   100  H    0.031657
   101  H    0.050607
   102  H    0.048110
   103  H    0.026574
   104  H   -0.008924
   105  H    0.043658
   106  H    0.010929
   107  H    0.020779
   108  H    0.005887
   109  H   -0.004795
   110  H   -0.000795
   111  H    0.010733
   112  H   -0.008179
   113  H   -0.008593
   114  H   -0.007623
   115  H   -0.003922
   116  H    0.004687
   117  H    0.013220
   118  H   -0.004429
   119  H   -0.003705
   120  H    0.004585
   121  H    0.000235
   122  H   -0.005460
   123  H   -0.028374
   124  H    0.000827
   125  H    0.005531
   126  H    0.007431
   127  H   -0.000696
   128  H   -0.008975
   129  H   -0.001889
   130  H   -0.000324
   131  H   -0.005699
   132  H   -0.003731
   133  H   -0.007421
   134  H   -0.001502
   135  H    0.011279
   136  H    0.011863
   137  H    0.002246
   138  H    0.022904
   139  H    0.013484
   140  H    0.009788
 Sum of Mulliken charges =  -0.00000

 Dipole moment (field-independent basis, Debye):
    X=              2.8984    Y=              3.6643    Z=              0.0728  Tot=              4.6726
 Quadrupole moment (field-independent basis, Debye-Ang):
   XX=           -371.4629   YY=           -420.9226   ZZ=           -406.8109
   XY=             -0.8088   XZ=             17.6949   YZ=              3.2072

 Normal termination of Gaussian 16 at Tue Apr 26 19:20:03 2022.
