 Gaussian 16, Revision A.03,
 Gaussian 16:  ES64L-G16RevA.03 25-Dec-2016

 ---------------------------------
 #p PBE1PBE/Def2SVP td=(nstates=5)
 ---------------------------------

 ------------------------------------------------------
 step_1001_chromophore_13 TDDFT with PBE1PBE functional
 ------------------------------------------------------
 Symbolic Z-matrix:
 Charge =  0 Multiplicity = 1

                         Standard orientation:
 ---------------------------------------------------------------------
 Center     Atomic      Atomic             Coordinates (Angstroms)
 Number     Number       Type             X           Y           Z
 ---------------------------------------------------------------------
      1         12           0       -6.166642    0.495214   -0.261833
      2          6           0       -3.803251   -2.193419    0.012222
      3          6           0       -3.502424    2.480368    0.816524
      4          6           0       -8.327720    2.763142    0.173664
      5          6           0       -8.615273   -1.894526   -0.804365
      6          7           0       -3.900692    0.117639    0.485143
      7          6           0       -3.161890   -1.021298    0.400083
      8          6           0       -1.649325   -0.819932    0.707977
      9          6           0       -1.565471    0.716665    1.175296
     10          6           0       -3.069558    1.139380    0.795688
     11          6           0       -1.193553    0.938765    2.707074
     12          6           0       -0.727490   -1.205415   -0.464286
     13          6           0        0.607470   -1.777001   -0.031419
     14          6           0        1.855466   -1.296192   -0.820947
     15          8           0        1.986256   -0.514358   -1.757034
     16          8           0        2.922870   -2.040174   -0.395945
     17          7           0       -5.939281    2.389562    0.268341
     18          6           0       -4.756744    3.077495    0.563665
     19          6           0       -5.119691    4.453782    0.592952
     20          6           0       -6.570815    4.539123    0.491636
     21          6           0       -7.012131    3.198974    0.403566
     22          6           0       -4.081097    5.538974    0.705747
     23          6           0       -7.415971    5.853802    0.496420
     24          8           0       -8.658056    5.806258    0.405170
     25          6           0       -6.792376    7.248815    0.703866
     26          7           0       -8.195237    0.415596   -0.215016
     27          6           0       -8.892893    1.514978   -0.035598
     28          6           0      -10.345161    1.255944   -0.205189
     29          6           0      -10.492447   -0.243718   -0.585490
     30          6           0       -9.011335   -0.590872   -0.633887
     31          6           0      -11.178640    1.715382    0.996873
     32          6           0      -11.286530   -0.435968   -2.028109
     33          6           0      -10.353412   -0.580286   -3.282465
     34          7           0       -6.188655   -1.617320   -0.378755
     35          6           0       -7.341369   -2.428455   -0.669504
     36          6           0       -6.902516   -3.786480   -0.754269
     37          6           0       -5.491811   -3.711392   -0.559102
     38          6           0       -5.126919   -2.391605   -0.308533
     39          6           0       -7.750008   -5.078342   -0.881781
     40          6           0       -4.375066   -4.583335   -0.347940
     41          8           0       -4.183490   -5.789138   -0.409396
     42          6           0       -3.264563   -3.619327    0.056901
     43          6           0       -2.816776   -3.929577    1.435272
     44          8           0       -3.401076   -3.667258    2.427384
     45          8           0       -1.541547   -4.570950    1.361033
     46          6           0       -0.856928   -4.756113    2.676644
     47          6           0        4.217831   -1.861844   -1.089687
     48          6           0        5.152945   -1.038207   -0.283237
     49          6           0        6.495617   -0.964272   -0.376526
     50          6           0        7.326826   -1.470447   -1.484927
     51          6           0        7.233044   -0.040300    0.637999
     52          6           0        7.670653    1.377839    0.039870
     53          6           0        9.120654    1.724384    0.194844
     54          6           0        9.899539    2.068697   -1.087953
     55          6           0        9.139571    3.219666   -1.736800
     56          6           0       10.200708    0.859780   -2.034296
     57          6           0       11.564904    0.944466   -2.749845
     58          6           0       12.755064    0.099553   -2.080266
     59          6           0       13.888057    0.990271   -1.468738
     60          6           0       14.557861    1.787591   -2.586914
     61          6           0       14.871250    0.080340   -0.646168
     62          6           0       14.736564    0.376493    0.818977
     63          6           0       13.958535   -0.655449    1.627204
     64          6           0       13.086307    0.024304    2.734168
     65          6           0       12.973825   -0.874737    4.006120
     66          6           0       11.657503    0.450349    2.302345
     67          1           0       -2.685933    3.197771    0.925960
     68          1           0       -9.027423    3.592406    0.301723
     69          1           0       -9.422325   -2.615722   -0.950496
     70          1           0       -1.329033   -1.385579    1.583943
     71          1           0       -0.818446    1.253312    0.590735
     72          1           0       -0.330479    1.601132    2.777663
     73          1           0       -0.996074   -0.018339    3.189790
     74          1           0       -2.037654    1.499352    3.107904
     75          1           0       -0.346402   -0.379742   -1.065709
     76          1           0       -1.256666   -1.874462   -1.142395
     77          1           0        0.565746   -2.865500   -0.079584
     78          1           0        0.735050   -1.613008    1.039066
     79          1           0       -3.989249    6.292888   -0.075050
     80          1           0       -3.069475    5.140746    0.780882
     81          1           0       -4.306406    6.201092    1.541952
     82          1           0       -5.978796    7.327304    1.425744
     83          1           0       -7.431014    8.119035    0.857217
     84          1           0       -6.311691    7.173709   -0.271413
     85          1           0      -10.687149    1.881337   -1.029799
     86          1           0      -11.051459   -0.766773    0.190847
     87          1           0      -10.616356    2.041006    1.872187
     88          1           0      -11.816276    0.912733    1.367035
     89          1           0      -11.784736    2.560369    0.668761
     90          1           0      -12.050416    0.337110   -2.115086
     91          1           0      -11.749830   -1.414339   -1.902851
     92          1           0      -10.166540   -1.607005   -3.598176
     93          1           0       -9.405315   -0.057533   -3.155132
     94          1           0      -10.871905   -0.015819   -4.057312
     95          1           0       -7.361025   -5.650106   -1.723811
     96          1           0       -8.756696   -4.808462   -1.201216
     97          1           0       -7.703221   -5.636829    0.052915
     98          1           0       -2.423577   -3.780611   -0.618008
     99          1           0        0.144894   -4.331993    2.750872
    100          1           0       -0.634328   -5.815863    2.803029
    101          1           0       -1.486724   -4.440600    3.508209
    102          1           0        4.138609   -1.582652   -2.140056
    103          1           0        4.603325   -2.879335   -1.030278
    104          1           0        4.713579   -0.529340    0.574872
    105          1           0        7.358807   -0.647335   -2.199546
    106          1           0        6.830634   -2.354197   -1.887114
    107          1           0        8.271983   -1.692151   -0.989924
    108          1           0        8.086791   -0.625339    0.977326
    109          1           0        6.540378    0.179006    1.450366
    110          1           0        7.091569    2.110566    0.602238
    111          1           0        7.306423    1.434450   -0.986570
    112          1           0        9.598442    0.897357    0.720359
    113          1           0        9.305444    2.580087    0.844094
    114          1           0       10.810776    2.555328   -0.738596
    115          1           0        8.584111    2.833386   -2.591415
    116          1           0        9.763206    3.995973   -2.181420
    117          1           0        8.437255    3.684895   -1.045733
    118          1           0        9.454054    0.925670   -2.824658
    119          1           0       10.127101   -0.085152   -1.494274
    120          1           0       11.832925    2.001311   -2.725219
    121          1           0       11.427022    0.488982   -3.731146
    122          1           0       13.133281   -0.703082   -2.713050
    123          1           0       12.311625   -0.549222   -1.324861
    124          1           0       13.451544    1.767656   -0.841255
    125          1           0       14.148867    1.563303   -3.571438
    126          1           0       15.636026    1.625298   -2.576009
    127          1           0       14.339589    2.852176   -2.504699
    128          1           0       15.943144    0.230376   -0.771989
    129          1           0       14.610181   -0.962049   -0.826681
    130          1           0       14.142204    1.266053    1.027883
    131          1           0       15.738794    0.465482    1.236995
    132          1           0       14.749298   -1.329913    1.956276
    133          1           0       13.236769   -1.205418    1.022382
    134          1           0       13.639389    0.924660    2.999824
    135          1           0       13.308205   -1.901317    3.855198
    136          1           0       12.020404   -0.825142    4.532843
    137          1           0       13.770865   -0.386607    4.566662
    138          1           0       10.954650   -0.379742    2.241342
    139          1           0       11.674222    0.975011    1.347259
    140          1           0       11.218311    1.207130    2.951790
 ---------------------------------------------------------------------

 SCF Done:  E(RPBE1PBE) =  -3005.34408333     A.U. after   15 cycles

 Excitation energies and oscillator strengths:

 Excited State   1:      Singlet-A      1.9459 eV  637.16 nm  f=0.3570  <S**2>=0.000
     245 -> 248       -0.19098
     246 -> 247        0.68654
 This state for optimization and/or second-order correction.
 Total Energy, E(TD-HF/TD-DFT) =  -3005.27257320
 Copying the excited state density for this state as the 1-particle RhoCI density.

 Excited State   2:      Singlet-A      2.2350 eV  554.75 nm  f=0.1455  <S**2>=0.000
     245 -> 247        0.66002
     246 -> 248        0.23679

 Excited State   3:      Singlet-A      2.8788 eV  430.67 nm  f=0.0005  <S**2>=0.000
     241 -> 247       -0.36160
     241 -> 249       -0.10422
     242 -> 247        0.26908
     243 -> 247        0.51534

 Excited State   4:      Singlet-A      2.9214 eV  424.40 nm  f=0.0031  <S**2>=0.000
     241 -> 247       -0.18620
     242 -> 247        0.51620
     243 -> 247       -0.42352

 Excited State   5:      Singlet-A      3.0236 eV  410.06 nm  f=0.0077  <S**2>=0.000
     240 -> 247        0.28497
     241 -> 247        0.51371
     242 -> 247        0.30200
     243 -> 247        0.19736

 The electronic state is 1-A.
 Alpha  occ. eigenvalues --  -46.91512 -19.25322 -19.24840 -19.20728 -19.20623
 Alpha  occ. eigenvalues --  -19.19080 -19.18494 -14.41673 -14.41181 -14.38700
 Alpha  occ. eigenvalues --  -14.38352 -10.36946 -10.35989 -10.33437 -10.31025
 Alpha  occ. eigenvalues --  -10.29370 -10.29094 -10.28815 -10.28371 -10.28042
 Alpha  occ. eigenvalues --  -10.27896 -10.27771 -10.27613 -10.27183 -10.26887
 Alpha  occ. eigenvalues --  -10.26528 -10.26454 -10.25759 -10.25732 -10.25573
 Alpha  occ. eigenvalues --  -10.25348 -10.25312 -10.25079 -10.25027 -10.24977
 Alpha  occ. eigenvalues --  -10.24591 -10.24568 -10.24533 -10.24195 -10.24097
 Alpha  occ. eigenvalues --  -10.24095 -10.24065 -10.24016 -10.23805 -10.23659
 Alpha  occ. eigenvalues --  -10.23531 -10.23470 -10.23320 -10.23220 -10.23190
 Alpha  occ. eigenvalues --  -10.23129 -10.22937 -10.22875 -10.22851 -10.22808
 Alpha  occ. eigenvalues --  -10.22702 -10.22642 -10.22149 -10.22138 -10.21996
 Alpha  occ. eigenvalues --  -10.21959 -10.21958 -10.21765 -10.21574 -10.21460
 Alpha  occ. eigenvalues --  -10.21321  -3.13878  -1.86677  -1.86303  -1.86075
 Alpha  occ. eigenvalues --   -1.11114  -1.10680  -1.03926  -1.03555  -1.02578
 Alpha  occ. eigenvalues --   -1.02212  -1.00165  -0.98544  -0.97856  -0.97151
 Alpha  occ. eigenvalues --   -0.87363  -0.84871  -0.84132  -0.83896  -0.83449
 Alpha  occ. eigenvalues --   -0.83217  -0.82600  -0.81872  -0.81419  -0.80960
 Alpha  occ. eigenvalues --   -0.80241  -0.79562  -0.78482  -0.77649  -0.77550
 Alpha  occ. eigenvalues --   -0.76828  -0.76158  -0.75806  -0.75235  -0.74629
 Alpha  occ. eigenvalues --   -0.74157  -0.72792  -0.72266  -0.71551  -0.70225
 Alpha  occ. eigenvalues --   -0.70051  -0.69650  -0.69565  -0.68984  -0.68584
 Alpha  occ. eigenvalues --   -0.67825  -0.67367  -0.66267  -0.64613  -0.64287
 Alpha  occ. eigenvalues --   -0.63095  -0.62710  -0.61450  -0.61236  -0.60063
 Alpha  occ. eigenvalues --   -0.59866  -0.59533  -0.58690  -0.58646  -0.58025
 Alpha  occ. eigenvalues --   -0.57261  -0.57041  -0.55909  -0.55881  -0.55644
 Alpha  occ. eigenvalues --   -0.54332  -0.53857  -0.53809  -0.53231  -0.52730
 Alpha  occ. eigenvalues --   -0.52422  -0.52259  -0.50814  -0.50209  -0.49973
 Alpha  occ. eigenvalues --   -0.49779  -0.49188  -0.49009  -0.48645  -0.48327
 Alpha  occ. eigenvalues --   -0.48230  -0.47986  -0.47768  -0.47591  -0.47435
 Alpha  occ. eigenvalues --   -0.47184  -0.47015  -0.46813  -0.46660  -0.46467
 Alpha  occ. eigenvalues --   -0.46350  -0.46221  -0.45819  -0.45622  -0.45185
 Alpha  occ. eigenvalues --   -0.45130  -0.45031  -0.44584  -0.44418  -0.44299
 Alpha  occ. eigenvalues --   -0.44059  -0.43816  -0.43624  -0.43409  -0.43161
 Alpha  occ. eigenvalues --   -0.43100  -0.42978  -0.42766  -0.42654  -0.42540
 Alpha  occ. eigenvalues --   -0.42339  -0.42004  -0.41923  -0.41329  -0.41265
 Alpha  occ. eigenvalues --   -0.41148  -0.40785  -0.40559  -0.40293  -0.40240
 Alpha  occ. eigenvalues --   -0.40182  -0.39873  -0.39710  -0.39600  -0.39468
 Alpha  occ. eigenvalues --   -0.39375  -0.39190  -0.38995  -0.38876  -0.38683
 Alpha  occ. eigenvalues --   -0.38522  -0.38128  -0.38111  -0.37982  -0.37795
 Alpha  occ. eigenvalues --   -0.37676  -0.37532  -0.37342  -0.37206  -0.36865
 Alpha  occ. eigenvalues --   -0.36680  -0.36497  -0.36471  -0.36324  -0.35959
 Alpha  occ. eigenvalues --   -0.35890  -0.35736  -0.35506  -0.35416  -0.35202
 Alpha  occ. eigenvalues --   -0.34475  -0.34170  -0.33957  -0.33651  -0.33273
 Alpha  occ. eigenvalues --   -0.33244  -0.32906  -0.32786  -0.32661  -0.32470
 Alpha  occ. eigenvalues --   -0.32295  -0.32221  -0.31955  -0.31491  -0.31002
 Alpha  occ. eigenvalues --   -0.30975  -0.30619  -0.30075  -0.29834  -0.29668
 Alpha  occ. eigenvalues --   -0.29500  -0.29292  -0.28657  -0.26956  -0.25677
 Alpha  occ. eigenvalues --   -0.25352  -0.25091  -0.24928  -0.24747  -0.20866
 Alpha  occ. eigenvalues --   -0.19344
 Alpha virt. eigenvalues --   -0.11270  -0.05095  -0.03673  -0.01864  -0.00781
 Alpha virt. eigenvalues --    0.00086   0.01180   0.01260   0.01573   0.03439
 Alpha virt. eigenvalues --    0.04320   0.04547   0.04677   0.05266   0.05431

 Mulliken charges:
               1
     1  Mg   0.995882
     2  C   -0.029672
     3  C   -0.055253
     4  C   -0.081356
     5  C   -0.061215
     6  N   -0.304304
     7  C    0.006162
     8  C   -0.078743
     9  C   -0.132007
    10  C    0.035191
    11  C    0.009713
    12  C    0.035134
    13  C   -0.078198
    14  C    0.243939
    15  O   -0.266660
    16  O   -0.377765
    17  N   -0.568917
    18  C    0.177978
    19  C   -0.142659
    20  C   -0.080732
    21  C    0.166415
    22  C    0.030225
    23  C    0.088914
    24  O   -0.264208
    25  C   -0.027647
    26  N   -0.425420
    27  C    0.107251
    28  C   -0.102932
    29  C   -0.088553
    30  C    0.052792
    31  C    0.006059
    32  C   -0.060364
    33  C   -0.064705
    34  N   -0.473698
    35  C    0.150319
    36  C   -0.177339
    37  C   -0.070739
    38  C    0.200712
    39  C    0.087109
    40  C    0.134109
    41  O   -0.216356
    42  C   -0.134944
    43  C    0.287830
    44  O   -0.194244
    45  O   -0.410553
    46  C    0.107001
    47  C    0.247838
    48  C   -0.112856
    49  C   -0.294795
    50  C    0.053265
    51  C    0.005805
    52  C   -0.034138
    53  C   -0.049754
    54  C   -0.234427
    55  C   -0.011882
    56  C    0.016867
    57  C   -0.039000
    58  C   -0.029469
    59  C   -0.214460
    60  C    0.000797
    61  C    0.039044
    62  C   -0.088685
    63  C   -0.010240
    64  C   -0.231355
    65  C   -0.017956
    66  C   -0.070263
    67  H   -0.001325
    68  H    0.026709
    69  H    0.000373
    70  H    0.054088
    71  H    0.055247
    72  H    0.043338
    73  H    0.054126
    74  H    0.053941
    75  H    0.054678
    76  H    0.049012
    77  H    0.082083
    78  H    0.060150
    79  H    0.048195
    80  H    0.038214
    81  H    0.049125
    82  H    0.053621
    83  H    0.069434
    84  H    0.058738
    85  H    0.051783
    86  H    0.053475
    87  H    0.053436
    88  H    0.032398
    89  H    0.047875
    90  H    0.053780
    91  H    0.041921
    92  H    0.054808
    93  H    0.053058
    94  H    0.042747
    95  H    0.059841
    96  H    0.026720
    97  H    0.079943
    98  H    0.070526
    99  H    0.048390
   100  H    0.053889
   101  H    0.071146
   102  H    0.073433
   103  H    0.054298
   104  H    0.020973
   105  H    0.071674
   106  H    0.039449
   107  H    0.047609
   108  H    0.038067
   109  H    0.027460
   110  H    0.032202
   111  H    0.043196
   112  H    0.033368
   113  H    0.025117
   114  H    0.031736
   115  H    0.022787
   116  H    0.032699
   117  H    0.041158
   118  H    0.027591
   119  H    0.029918
   120  H    0.038028
   121  H    0.033183
   122  H    0.026159
   123  H    0.006066
   124  H    0.039189
   125  H    0.033461
   126  H    0.034969
   127  H    0.026151
   128  H    0.022702
   129  H    0.030599
   130  H    0.033491
   131  H    0.027314
   132  H    0.028533
   133  H    0.026287
   134  H    0.036443
   135  H    0.038557
   136  H    0.038806
   137  H    0.030439
   138  H    0.049155
   139  H    0.046177
   140  H    0.038182
 Sum of Mulliken charges =  -0.00000

 Dipole moment (field-independent basis, Debye):
    X=              2.7729    Y=              3.4741    Z=             -0.0076  Tot=              4.4451
 Quadrupole moment (field-independent basis, Debye-Ang):
   XX=           -364.5122   YY=           -418.3732   ZZ=           -404.4050
   XY=              0.9949   XZ=             18.5445   YZ=              3.3257

 Normal termination of Gaussian 16 at Tue Apr 26 19:46:01 2022.
