 Gaussian 16, Revision A.03,
 Gaussian 16:  ES64L-G16RevA.03 25-Dec-2016

 --------------------------------
 #p wB97XD/Def2SVP td=(nstates=5)
 --------------------------------

 -----------------------------------------------------
 step_1001_chromophore_13 TDDFT with wB97XD functional
 -----------------------------------------------------
 Symbolic Z-matrix:
 Charge =  0 Multiplicity = 1

                         Standard orientation:
 ---------------------------------------------------------------------
 Center     Atomic      Atomic             Coordinates (Angstroms)
 Number     Number       Type             X           Y           Z
 ---------------------------------------------------------------------
      1         12           0       -6.166642    0.495214   -0.261833
      2          6           0       -3.803251   -2.193419    0.012222
      3          6           0       -3.502424    2.480368    0.816524
      4          6           0       -8.327720    2.763142    0.173664
      5          6           0       -8.615273   -1.894526   -0.804365
      6          7           0       -3.900692    0.117639    0.485143
      7          6           0       -3.161890   -1.021298    0.400083
      8          6           0       -1.649325   -0.819932    0.707977
      9          6           0       -1.565471    0.716665    1.175296
     10          6           0       -3.069558    1.139380    0.795688
     11          6           0       -1.193553    0.938765    2.707074
     12          6           0       -0.727490   -1.205415   -0.464286
     13          6           0        0.607470   -1.777001   -0.031419
     14          6           0        1.855466   -1.296192   -0.820947
     15          8           0        1.986256   -0.514358   -1.757034
     16          8           0        2.922870   -2.040174   -0.395945
     17          7           0       -5.939281    2.389562    0.268341
     18          6           0       -4.756744    3.077495    0.563665
     19          6           0       -5.119691    4.453782    0.592952
     20          6           0       -6.570815    4.539123    0.491636
     21          6           0       -7.012131    3.198974    0.403566
     22          6           0       -4.081097    5.538974    0.705747
     23          6           0       -7.415971    5.853802    0.496420
     24          8           0       -8.658056    5.806258    0.405170
     25          6           0       -6.792376    7.248815    0.703866
     26          7           0       -8.195237    0.415596   -0.215016
     27          6           0       -8.892893    1.514978   -0.035598
     28          6           0      -10.345161    1.255944   -0.205189
     29          6           0      -10.492447   -0.243718   -0.585490
     30          6           0       -9.011335   -0.590872   -0.633887
     31          6           0      -11.178640    1.715382    0.996873
     32          6           0      -11.286530   -0.435968   -2.028109
     33          6           0      -10.353412   -0.580286   -3.282465
     34          7           0       -6.188655   -1.617320   -0.378755
     35          6           0       -7.341369   -2.428455   -0.669504
     36          6           0       -6.902516   -3.786480   -0.754269
     37          6           0       -5.491811   -3.711392   -0.559102
     38          6           0       -5.126919   -2.391605   -0.308533
     39          6           0       -7.750008   -5.078342   -0.881781
     40          6           0       -4.375066   -4.583335   -0.347940
     41          8           0       -4.183490   -5.789138   -0.409396
     42          6           0       -3.264563   -3.619327    0.056901
     43          6           0       -2.816776   -3.929577    1.435272
     44          8           0       -3.401076   -3.667258    2.427384
     45          8           0       -1.541547   -4.570950    1.361033
     46          6           0       -0.856928   -4.756113    2.676644
     47          6           0        4.217831   -1.861844   -1.089687
     48          6           0        5.152945   -1.038207   -0.283237
     49          6           0        6.495617   -0.964272   -0.376526
     50          6           0        7.326826   -1.470447   -1.484927
     51          6           0        7.233044   -0.040300    0.637999
     52          6           0        7.670653    1.377839    0.039870
     53          6           0        9.120654    1.724384    0.194844
     54          6           0        9.899539    2.068697   -1.087953
     55          6           0        9.139571    3.219666   -1.736800
     56          6           0       10.200708    0.859780   -2.034296
     57          6           0       11.564904    0.944466   -2.749845
     58          6           0       12.755064    0.099553   -2.080266
     59          6           0       13.888057    0.990271   -1.468738
     60          6           0       14.557861    1.787591   -2.586914
     61          6           0       14.871250    0.080340   -0.646168
     62          6           0       14.736564    0.376493    0.818977
     63          6           0       13.958535   -0.655449    1.627204
     64          6           0       13.086307    0.024304    2.734168
     65          6           0       12.973825   -0.874737    4.006120
     66          6           0       11.657503    0.450349    2.302345
     67          1           0       -2.685933    3.197771    0.925960
     68          1           0       -9.027423    3.592406    0.301723
     69          1           0       -9.422325   -2.615722   -0.950496
     70          1           0       -1.329033   -1.385579    1.583943
     71          1           0       -0.818446    1.253312    0.590735
     72          1           0       -0.330479    1.601132    2.777663
     73          1           0       -0.996074   -0.018339    3.189790
     74          1           0       -2.037654    1.499352    3.107904
     75          1           0       -0.346402   -0.379742   -1.065709
     76          1           0       -1.256666   -1.874462   -1.142395
     77          1           0        0.565746   -2.865500   -0.079584
     78          1           0        0.735050   -1.613008    1.039066
     79          1           0       -3.989249    6.292888   -0.075050
     80          1           0       -3.069475    5.140746    0.780882
     81          1           0       -4.306406    6.201092    1.541952
     82          1           0       -5.978796    7.327304    1.425744
     83          1           0       -7.431014    8.119035    0.857217
     84          1           0       -6.311691    7.173709   -0.271413
     85          1           0      -10.687149    1.881337   -1.029799
     86          1           0      -11.051459   -0.766773    0.190847
     87          1           0      -10.616356    2.041006    1.872187
     88          1           0      -11.816276    0.912733    1.367035
     89          1           0      -11.784736    2.560369    0.668761
     90          1           0      -12.050416    0.337110   -2.115086
     91          1           0      -11.749830   -1.414339   -1.902851
     92          1           0      -10.166540   -1.607005   -3.598176
     93          1           0       -9.405315   -0.057533   -3.155132
     94          1           0      -10.871905   -0.015819   -4.057312
     95          1           0       -7.361025   -5.650106   -1.723811
     96          1           0       -8.756696   -4.808462   -1.201216
     97          1           0       -7.703221   -5.636829    0.052915
     98          1           0       -2.423577   -3.780611   -0.618008
     99          1           0        0.144894   -4.331993    2.750872
    100          1           0       -0.634328   -5.815863    2.803029
    101          1           0       -1.486724   -4.440600    3.508209
    102          1           0        4.138609   -1.582652   -2.140056
    103          1           0        4.603325   -2.879335   -1.030278
    104          1           0        4.713579   -0.529340    0.574872
    105          1           0        7.358807   -0.647335   -2.199546
    106          1           0        6.830634   -2.354197   -1.887114
    107          1           0        8.271983   -1.692151   -0.989924
    108          1           0        8.086791   -0.625339    0.977326
    109          1           0        6.540378    0.179006    1.450366
    110          1           0        7.091569    2.110566    0.602238
    111          1           0        7.306423    1.434450   -0.986570
    112          1           0        9.598442    0.897357    0.720359
    113          1           0        9.305444    2.580087    0.844094
    114          1           0       10.810776    2.555328   -0.738596
    115          1           0        8.584111    2.833386   -2.591415
    116          1           0        9.763206    3.995973   -2.181420
    117          1           0        8.437255    3.684895   -1.045733
    118          1           0        9.454054    0.925670   -2.824658
    119          1           0       10.127101   -0.085152   -1.494274
    120          1           0       11.832925    2.001311   -2.725219
    121          1           0       11.427022    0.488982   -3.731146
    122          1           0       13.133281   -0.703082   -2.713050
    123          1           0       12.311625   -0.549222   -1.324861
    124          1           0       13.451544    1.767656   -0.841255
    125          1           0       14.148867    1.563303   -3.571438
    126          1           0       15.636026    1.625298   -2.576009
    127          1           0       14.339589    2.852176   -2.504699
    128          1           0       15.943144    0.230376   -0.771989
    129          1           0       14.610181   -0.962049   -0.826681
    130          1           0       14.142204    1.266053    1.027883
    131          1           0       15.738794    0.465482    1.236995
    132          1           0       14.749298   -1.329913    1.956276
    133          1           0       13.236769   -1.205418    1.022382
    134          1           0       13.639389    0.924660    2.999824
    135          1           0       13.308205   -1.901317    3.855198
    136          1           0       12.020404   -0.825142    4.532843
    137          1           0       13.770865   -0.386607    4.566662
    138          1           0       10.954650   -0.379742    2.241342
    139          1           0       11.674222    0.975011    1.347259
    140          1           0       11.218311    1.207130    2.951790
 ---------------------------------------------------------------------

 SCF Done:  E(RwB97XD) =  -3007.85740720     A.U. after   19 cycles

 Excitation energies and oscillator strengths:

 Excited State   1:      Singlet-A      1.7363 eV  714.07 nm  f=0.3712  <S**2>=0.000
     245 -> 248       -0.20306
     246 -> 247        0.67896
     245 <- 248       -0.11934
 This state for optimization and/or second-order correction.
 Total Energy, E(TD-HF/TD-DFT) =  -3007.79359910
 Copying the excited state density for this state as the 1-particle RhoCI density.

 Excited State   2:      Singlet-A      2.1652 eV  572.61 nm  f=0.1499  <S**2>=0.000
     245 -> 247        0.65060
     246 -> 248        0.25888

 Excited State   3:      Singlet-A      3.2436 eV  382.24 nm  f=0.0006  <S**2>=0.000
     242 -> 247       -0.43624
     244 -> 247        0.52793

 Excited State   4:      Singlet-A      3.3938 eV  365.33 nm  f=0.0025  <S**2>=0.000
     241 -> 249        0.10425
     242 -> 247        0.49272
     244 -> 247        0.41693
     244 -> 249        0.10460
     246 -> 248       -0.15881

 Excited State   5:      Singlet-A      3.4988 eV  354.37 nm  f=0.0008  <S**2>=0.000
     241 -> 247        0.57838
     241 -> 249        0.28530
     241 -> 250        0.18848
     244 -> 247       -0.11007

 The electronic state is 1-A.
 Alpha  occ. eigenvalues --  -46.94436 -19.29871 -19.29394 -19.25458 -19.25275
 Alpha  occ. eigenvalues --  -19.23950 -19.23236 -14.46864 -14.46222 -14.43656
 Alpha  occ. eigenvalues --  -14.43210 -10.43715 -10.42829 -10.40336 -10.37848
 Alpha  occ. eigenvalues --  -10.35853 -10.35488 -10.35056 -10.34885 -10.34285
 Alpha  occ. eigenvalues --  -10.34248 -10.34180 -10.34108 -10.33330 -10.33179
 Alpha  occ. eigenvalues --  -10.33079 -10.32804 -10.32019 -10.31914 -10.31813
 Alpha  occ. eigenvalues --  -10.31808 -10.31777 -10.31493 -10.31357 -10.31311
 Alpha  occ. eigenvalues --  -10.31137 -10.30982 -10.30841 -10.30776 -10.30527
 Alpha  occ. eigenvalues --  -10.30475 -10.30401 -10.30331 -10.30167 -10.29950
 Alpha  occ. eigenvalues --  -10.29902 -10.29792 -10.29754 -10.29543 -10.29516
 Alpha  occ. eigenvalues --  -10.29488 -10.29329 -10.29253 -10.29231 -10.29208
 Alpha  occ. eigenvalues --  -10.29071 -10.29040 -10.28619 -10.28352 -10.28352
 Alpha  occ. eigenvalues --  -10.28331 -10.28326 -10.28203 -10.28000 -10.27823
 Alpha  occ. eigenvalues --  -10.27762  -3.20656  -1.94207  -1.93831  -1.93599
 Alpha  occ. eigenvalues --   -1.18481  -1.18086  -1.11348  -1.11117  -1.09946
 Alpha  occ. eigenvalues --   -1.09546  -1.07507  -1.05955  -1.05260  -1.04483
 Alpha  occ. eigenvalues --   -0.94933  -0.92559  -0.91804  -0.91562  -0.91050
 Alpha  occ. eigenvalues --   -0.90884  -0.90138  -0.89491  -0.89098  -0.88656
 Alpha  occ. eigenvalues --   -0.87862  -0.87214  -0.86156  -0.85288  -0.85132
 Alpha  occ. eigenvalues --   -0.84479  -0.83893  -0.83512  -0.82888  -0.82258
 Alpha  occ. eigenvalues --   -0.81827  -0.80488  -0.79916  -0.79140  -0.77878
 Alpha  occ. eigenvalues --   -0.77707  -0.77301  -0.77200  -0.76666  -0.76261
 Alpha  occ. eigenvalues --   -0.75382  -0.74939  -0.73795  -0.72265  -0.71831
 Alpha  occ. eigenvalues --   -0.70725  -0.70232  -0.69101  -0.68853  -0.67566
 Alpha  occ. eigenvalues --   -0.67300  -0.67067  -0.66286  -0.66104  -0.65718
 Alpha  occ. eigenvalues --   -0.64739  -0.64668  -0.63538  -0.63307  -0.63133
 Alpha  occ. eigenvalues --   -0.61775  -0.61354  -0.61253  -0.60555  -0.60253
 Alpha  occ. eigenvalues --   -0.59823  -0.59678  -0.58224  -0.57586  -0.57432
 Alpha  occ. eigenvalues --   -0.57195  -0.56592  -0.56417  -0.56094  -0.55697
 Alpha  occ. eigenvalues --   -0.55649  -0.55413  -0.55225  -0.54933  -0.54812
 Alpha  occ. eigenvalues --   -0.54600  -0.54408  -0.54192  -0.54065  -0.53876
 Alpha  occ. eigenvalues --   -0.53820  -0.53590  -0.53204  -0.53012  -0.52552
 Alpha  occ. eigenvalues --   -0.52532  -0.52364  -0.51941  -0.51757  -0.51649
 Alpha  occ. eigenvalues --   -0.51405  -0.51195  -0.50934  -0.50715  -0.50444
 Alpha  occ. eigenvalues --   -0.50412  -0.50330  -0.50047  -0.49966  -0.49799
 Alpha  occ. eigenvalues --   -0.49614  -0.49280  -0.49158  -0.48557  -0.48486
 Alpha  occ. eigenvalues --   -0.48352  -0.48013  -0.47707  -0.47518  -0.47454
 Alpha  occ. eigenvalues --   -0.47390  -0.47041  -0.46993  -0.46752  -0.46592
 Alpha  occ. eigenvalues --   -0.46483  -0.46362  -0.46211  -0.46053  -0.45866
 Alpha  occ. eigenvalues --   -0.45661  -0.45298  -0.45269  -0.45115  -0.44951
 Alpha  occ. eigenvalues --   -0.44846  -0.44583  -0.44429  -0.44368  -0.43984
 Alpha  occ. eigenvalues --   -0.43792  -0.43606  -0.43518  -0.43387  -0.43068
 Alpha  occ. eigenvalues --   -0.42909  -0.42818  -0.42720  -0.42514  -0.42190
 Alpha  occ. eigenvalues --   -0.41429  -0.41228  -0.40994  -0.40583  -0.40331
 Alpha  occ. eigenvalues --   -0.40203  -0.39976  -0.39834  -0.39572  -0.39524
 Alpha  occ. eigenvalues --   -0.39307  -0.39243  -0.38885  -0.38505  -0.38090
 Alpha  occ. eigenvalues --   -0.37955  -0.37562  -0.37037  -0.36867  -0.36661
 Alpha  occ. eigenvalues --   -0.36426  -0.35989  -0.35567  -0.33497  -0.32826
 Alpha  occ. eigenvalues --   -0.32334  -0.31800  -0.31480  -0.31429  -0.25777
 Alpha  occ. eigenvalues --   -0.23582
 Alpha virt. eigenvalues --   -0.07162   0.00315   0.02608   0.04653   0.05124
 Alpha virt. eigenvalues --    0.06920   0.07923   0.08068   0.08288   0.10049
 Alpha virt. eigenvalues --    0.10953   0.11122   0.11299   0.12017   0.12050

 Mulliken charges:
               1
     1  Mg   0.985392
     2  C   -0.022172
     3  C   -0.067775
     4  C   -0.101714
     5  C   -0.081491
     6  N   -0.269395
     7  C   -0.026672
     8  C   -0.050355
     9  C   -0.115192
    10  C    0.022063
    11  C    0.022299
    12  C    0.047287
    13  C   -0.064131
    14  C    0.235876
    15  O   -0.264180
    16  O   -0.376641
    17  N   -0.539239
    18  C    0.171954
    19  C   -0.129782
    20  C   -0.074106
    21  C    0.159322
    22  C    0.039873
    23  C    0.086437
    24  O   -0.258624
    25  C   -0.014530
    26  N   -0.387996
    27  C    0.098284
    28  C   -0.079835
    29  C   -0.068400
    30  C    0.044234
    31  C    0.014572
    32  C   -0.047774
    33  C   -0.045086
    34  N   -0.435046
    35  C    0.145391
    36  C   -0.180444
    37  C   -0.067515
    38  C    0.175692
    39  C    0.100761
    40  C    0.118940
    41  O   -0.206350
    42  C   -0.095649
    43  C    0.262881
    44  O   -0.189429
    45  O   -0.409596
    46  C    0.123892
    47  C    0.261006
    48  C   -0.125528
    49  C   -0.276699
    50  C    0.068293
    51  C    0.028202
    52  C   -0.024908
    53  C   -0.012881
    54  C   -0.202786
    55  C   -0.001007
    56  C    0.036800
    57  C   -0.019768
    58  C   -0.011714
    59  C   -0.179051
    60  C    0.009254
    61  C    0.051065
    62  C   -0.063193
    63  C   -0.002642
    64  C   -0.194902
    65  C   -0.007790
    66  C   -0.046063
    67  H   -0.008942
    68  H    0.020530
    69  H   -0.006176
    70  H    0.034860
    71  H    0.046876
    72  H    0.038409
    73  H    0.049479
    74  H    0.046883
    75  H    0.045620
    76  H    0.039649
    77  H    0.076377
    78  H    0.052475
    79  H    0.044109
    80  H    0.034800
    81  H    0.042401
    82  H    0.048099
    83  H    0.069890
    84  H    0.049424
    85  H    0.041084
    86  H    0.044314
    87  H    0.047431
    88  H    0.026692
    89  H    0.043027
    90  H    0.046762
    91  H    0.033946
    92  H    0.049918
    93  H    0.042153
    94  H    0.036955
    95  H    0.054702
    96  H    0.020252
    97  H    0.075495
    98  H    0.062478
    99  H    0.044010
   100  H    0.049664
   101  H    0.067317
   102  H    0.070531
   103  H    0.048869
   104  H    0.016931
   105  H    0.064245
   106  H    0.034357
   107  H    0.041207
   108  H    0.028249
   109  H    0.020518
   110  H    0.026075
   111  H    0.029885
   112  H    0.004718
   113  H    0.016807
   114  H    0.017628
   115  H    0.015407
   116  H    0.028184
   117  H    0.034081
   118  H    0.016691
   119  H    0.014606
   120  H    0.025077
   121  H    0.027200
   122  H    0.018628
   123  H   -0.009184
   124  H    0.021955
   125  H    0.026265
   126  H    0.029543
   127  H    0.021271
   128  H    0.016348
   129  H    0.020631
   130  H    0.017353
   131  H    0.020755
   132  H    0.021651
   133  H    0.014036
   134  H    0.024182
   135  H    0.033019
   136  H    0.034345
   137  H    0.024023
   138  H    0.042027
   139  H    0.026710
   140  H    0.032494
 Sum of Mulliken charges =  -0.00000

 Dipole moment (field-independent basis, Debye):
    X=              2.9398    Y=              3.7861    Z=              0.0695  Tot=              4.7940
 Quadrupole moment (field-independent basis, Debye-Ang):
   XX=           -366.5138   YY=           -416.5463   ZZ=           -403.8838
   XY=             -1.1570   XZ=             18.2142   YZ=              3.3894

 Normal termination of Gaussian 16 at Tue Apr 26 20:24:58 2022.
