 Gaussian 16, Revision A.03,
 Gaussian 16:  ES64L-G16RevA.03 25-Dec-2016

 --------------------
 #p ZINDO=(nstates=5)
 --------------------

 ------------------------------
 step_1001_chromophore_13 ZINDO
 ------------------------------
 Symbolic Z-matrix:
 Charge =  0 Multiplicity = 1

                         Standard orientation:
 ---------------------------------------------------------------------
 Center     Atomic      Atomic             Coordinates (Angstroms)
 Number     Number       Type             X           Y           Z
 ---------------------------------------------------------------------
      1         12           0       -6.166642    0.495214   -0.261833
      2          6           0       -3.803251   -2.193419    0.012222
      3          6           0       -3.502424    2.480368    0.816524
      4          6           0       -8.327720    2.763142    0.173664
      5          6           0       -8.615273   -1.894526   -0.804365
      6          7           0       -3.900692    0.117639    0.485143
      7          6           0       -3.161890   -1.021298    0.400083
      8          6           0       -1.649325   -0.819932    0.707977
      9          6           0       -1.565471    0.716665    1.175296
     10          6           0       -3.069558    1.139380    0.795688
     11          6           0       -1.193553    0.938765    2.707074
     12          6           0       -0.727490   -1.205415   -0.464286
     13          6           0        0.607470   -1.777001   -0.031419
     14          6           0        1.855466   -1.296192   -0.820947
     15          8           0        1.986256   -0.514358   -1.757034
     16          8           0        2.922870   -2.040174   -0.395945
     17          7           0       -5.939281    2.389562    0.268341
     18          6           0       -4.756744    3.077495    0.563665
     19          6           0       -5.119691    4.453782    0.592952
     20          6           0       -6.570815    4.539123    0.491636
     21          6           0       -7.012131    3.198974    0.403566
     22          6           0       -4.081097    5.538974    0.705747
     23          6           0       -7.415971    5.853802    0.496420
     24          8           0       -8.658056    5.806258    0.405170
     25          6           0       -6.792376    7.248815    0.703866
     26          7           0       -8.195237    0.415596   -0.215016
     27          6           0       -8.892893    1.514978   -0.035598
     28          6           0      -10.345161    1.255944   -0.205189
     29          6           0      -10.492447   -0.243718   -0.585490
     30          6           0       -9.011335   -0.590872   -0.633887
     31          6           0      -11.178640    1.715382    0.996873
     32          6           0      -11.286530   -0.435968   -2.028109
     33          6           0      -10.353412   -0.580286   -3.282465
     34          7           0       -6.188655   -1.617320   -0.378755
     35          6           0       -7.341369   -2.428455   -0.669504
     36          6           0       -6.902516   -3.786480   -0.754269
     37          6           0       -5.491811   -3.711392   -0.559102
     38          6           0       -5.126919   -2.391605   -0.308533
     39          6           0       -7.750008   -5.078342   -0.881781
     40          6           0       -4.375066   -4.583335   -0.347940
     41          8           0       -4.183490   -5.789138   -0.409396
     42          6           0       -3.264563   -3.619327    0.056901
     43          6           0       -2.816776   -3.929577    1.435272
     44          8           0       -3.401076   -3.667258    2.427384
     45          8           0       -1.541547   -4.570950    1.361033
     46          6           0       -0.856928   -4.756113    2.676644
     47          6           0        4.217831   -1.861844   -1.089687
     48          6           0        5.152945   -1.038207   -0.283237
     49          6           0        6.495617   -0.964272   -0.376526
     50          6           0        7.326826   -1.470447   -1.484927
     51          6           0        7.233044   -0.040300    0.637999
     52          6           0        7.670653    1.377839    0.039870
     53          6           0        9.120654    1.724384    0.194844
     54          6           0        9.899539    2.068697   -1.087953
     55          6           0        9.139571    3.219666   -1.736800
     56          6           0       10.200708    0.859780   -2.034296
     57          6           0       11.564904    0.944466   -2.749845
     58          6           0       12.755064    0.099553   -2.080266
     59          6           0       13.888057    0.990271   -1.468738
     60          6           0       14.557861    1.787591   -2.586914
     61          6           0       14.871250    0.080340   -0.646168
     62          6           0       14.736564    0.376493    0.818977
     63          6           0       13.958535   -0.655449    1.627204
     64          6           0       13.086307    0.024304    2.734168
     65          6           0       12.973825   -0.874737    4.006120
     66          6           0       11.657503    0.450349    2.302345
     67          1           0       -2.685933    3.197771    0.925960
     68          1           0       -9.027423    3.592406    0.301723
     69          1           0       -9.422325   -2.615722   -0.950496
     70          1           0       -1.329033   -1.385579    1.583943
     71          1           0       -0.818446    1.253312    0.590735
     72          1           0       -0.330479    1.601132    2.777663
     73          1           0       -0.996074   -0.018339    3.189790
     74          1           0       -2.037654    1.499352    3.107904
     75          1           0       -0.346402   -0.379742   -1.065709
     76          1           0       -1.256666   -1.874462   -1.142395
     77          1           0        0.565746   -2.865500   -0.079584
     78          1           0        0.735050   -1.613008    1.039066
     79          1           0       -3.989249    6.292888   -0.075050
     80          1           0       -3.069475    5.140746    0.780882
     81          1           0       -4.306406    6.201092    1.541952
     82          1           0       -5.978796    7.327304    1.425744
     83          1           0       -7.431014    8.119035    0.857217
     84          1           0       -6.311691    7.173709   -0.271413
     85          1           0      -10.687149    1.881337   -1.029799
     86          1           0      -11.051459   -0.766773    0.190847
     87          1           0      -10.616356    2.041006    1.872187
     88          1           0      -11.816276    0.912733    1.367035
     89          1           0      -11.784736    2.560369    0.668761
     90          1           0      -12.050416    0.337110   -2.115086
     91          1           0      -11.749830   -1.414339   -1.902851
     92          1           0      -10.166540   -1.607005   -3.598176
     93          1           0       -9.405315   -0.057533   -3.155132
     94          1           0      -10.871905   -0.015819   -4.057312
     95          1           0       -7.361025   -5.650106   -1.723811
     96          1           0       -8.756696   -4.808462   -1.201216
     97          1           0       -7.703221   -5.636829    0.052915
     98          1           0       -2.423577   -3.780611   -0.618008
     99          1           0        0.144894   -4.331993    2.750872
    100          1           0       -0.634328   -5.815863    2.803029
    101          1           0       -1.486724   -4.440600    3.508209
    102          1           0        4.138609   -1.582652   -2.140056
    103          1           0        4.603325   -2.879335   -1.030278
    104          1           0        4.713579   -0.529340    0.574872
    105          1           0        7.358807   -0.647335   -2.199546
    106          1           0        6.830634   -2.354197   -1.887114
    107          1           0        8.271983   -1.692151   -0.989924
    108          1           0        8.086791   -0.625339    0.977326
    109          1           0        6.540378    0.179006    1.450366
    110          1           0        7.091569    2.110566    0.602238
    111          1           0        7.306423    1.434450   -0.986570
    112          1           0        9.598442    0.897357    0.720359
    113          1           0        9.305444    2.580087    0.844094
    114          1           0       10.810776    2.555328   -0.738596
    115          1           0        8.584111    2.833386   -2.591415
    116          1           0        9.763206    3.995973   -2.181420
    117          1           0        8.437255    3.684895   -1.045733
    118          1           0        9.454054    0.925670   -2.824658
    119          1           0       10.127101   -0.085152   -1.494274
    120          1           0       11.832925    2.001311   -2.725219
    121          1           0       11.427022    0.488982   -3.731146
    122          1           0       13.133281   -0.703082   -2.713050
    123          1           0       12.311625   -0.549222   -1.324861
    124          1           0       13.451544    1.767656   -0.841255
    125          1           0       14.148867    1.563303   -3.571438
    126          1           0       15.636026    1.625298   -2.576009
    127          1           0       14.339589    2.852176   -2.504699
    128          1           0       15.943144    0.230376   -0.771989
    129          1           0       14.610181   -0.962049   -0.826681
    130          1           0       14.142204    1.266053    1.027883
    131          1           0       15.738794    0.465482    1.236995
    132          1           0       14.749298   -1.329913    1.956276
    133          1           0       13.236769   -1.205418    1.022382
    134          1           0       13.639389    0.924660    2.999824
    135          1           0       13.308205   -1.901317    3.855198
    136          1           0       12.020404   -0.825142    4.532843
    137          1           0       13.770865   -0.386607    4.566662
    138          1           0       10.954650   -0.379742    2.241342
    139          1           0       11.674222    0.975011    1.347259
    140          1           0       11.218311    1.207130    2.951790
 ---------------------------------------------------------------------

 SCF Done:  E(RZINDO/S) =  -474.357342705     A.U. after   20 cycles

 Excitation energies and oscillator strengths:

 Excited State   1:      Singlet-A      1.2824 eV  966.82 nm  f=0.5776  <S**2>=0.000
     175 ->178         0.20520
     176 ->177         0.65976
 This state for optimization and/or second-order correction.
 Total Energy, E(CIS/TDA) =  -474.310215542
 Copying the excited state density for this state as the 1-particle RhoCI density.

 Excited State   2:      Singlet-A      1.9132 eV  648.05 nm  f=0.1022  <S**2>=0.000
     175 ->177         0.58045
     176 ->178        -0.37683

 Excited State   3:      Singlet-A      2.9618 eV  418.61 nm  f=0.0059  <S**2>=0.000
     168 ->177         0.16319
     168 ->179        -0.23420
     168 ->180        -0.20835
     168 ->185        -0.14096
     169 ->177         0.17123
     169 ->179        -0.24371
     169 ->180        -0.22140
     169 ->185        -0.14131
     171 ->177        -0.25624
     173 ->177        -0.22027

 Excited State   4:      Singlet-A      2.9793 eV  416.16 nm  f=0.0161  <S**2>=0.000
     170 ->177         0.34540
     170 ->178         0.12256
     170 ->179         0.33260
     170 ->180        -0.30146
     170 ->185         0.17298
     170 ->187         0.17182
     176 ->179         0.10632

 Excited State   5:      Singlet-A      3.0688 eV  404.02 nm  f=0.0313  <S**2>=0.000
     168 ->177         0.11016
     168 ->179        -0.14180
     168 ->180        -0.12730
     169 ->177         0.13336
     169 ->179        -0.13218
     169 ->180        -0.11433
     171 ->177         0.37312
     172 ->177        -0.17073
     173 ->177         0.40788
     176 ->178        -0.11710

 The electronic state is 1-A.
 Alpha  occ. eigenvalues --   -1.85648  -1.83852  -1.80070  -1.73042  -1.70962
 Alpha  occ. eigenvalues --   -1.70249  -1.66578  -1.62315  -1.58128  -1.56617
 Alpha  occ. eigenvalues --   -1.54601  -1.51950  -1.49416  -1.49050  -1.45628
 Alpha  occ. eigenvalues --   -1.44612  -1.43375  -1.40928  -1.39717  -1.39117
 Alpha  occ. eigenvalues --   -1.35650  -1.33347  -1.32036  -1.31850  -1.29186
 Alpha  occ. eigenvalues --   -1.27282  -1.25582  -1.22172  -1.20944  -1.18224
 Alpha  occ. eigenvalues --   -1.17241  -1.17074  -1.14752  -1.13557  -1.12860
 Alpha  occ. eigenvalues --   -1.12196  -1.11489  -1.10600  -1.05292  -1.04253
 Alpha  occ. eigenvalues --   -1.03481  -1.01290  -1.00035  -0.98331  -0.97708
 Alpha  occ. eigenvalues --   -0.97153  -0.94472  -0.93682  -0.93447  -0.92372
 Alpha  occ. eigenvalues --   -0.90358  -0.88649  -0.87932  -0.87032  -0.85589
 Alpha  occ. eigenvalues --   -0.85117  -0.84336  -0.82523  -0.81239  -0.81044
 Alpha  occ. eigenvalues --   -0.79221  -0.78839  -0.77605  -0.77176  -0.76306
 Alpha  occ. eigenvalues --   -0.75299  -0.75037  -0.74684  -0.74476  -0.74091
 Alpha  occ. eigenvalues --   -0.73952  -0.73281  -0.72414  -0.72122  -0.71774
 Alpha  occ. eigenvalues --   -0.70738  -0.69272  -0.68738  -0.68227  -0.68124
 Alpha  occ. eigenvalues --   -0.67061  -0.66962  -0.66533  -0.66270  -0.64936
 Alpha  occ. eigenvalues --   -0.64721  -0.64527  -0.63716  -0.63299  -0.63093
 Alpha  occ. eigenvalues --   -0.62915  -0.62728  -0.62496  -0.62344  -0.61763
 Alpha  occ. eigenvalues --   -0.61619  -0.60627  -0.60289  -0.60203  -0.59900
 Alpha  occ. eigenvalues --   -0.59463  -0.59181  -0.58309  -0.57988  -0.57869
 Alpha  occ. eigenvalues --   -0.57779  -0.57451  -0.57071  -0.56976  -0.56514
 Alpha  occ. eigenvalues --   -0.56298  -0.55494  -0.54999  -0.54682  -0.54162
 Alpha  occ. eigenvalues --   -0.54059  -0.53949  -0.53483  -0.53435  -0.52700
 Alpha  occ. eigenvalues --   -0.52408  -0.52237  -0.51779  -0.51562  -0.51371
 Alpha  occ. eigenvalues --   -0.50963  -0.50776  -0.50501  -0.50366  -0.50223
 Alpha  occ. eigenvalues --   -0.50016  -0.49556  -0.49506  -0.49301  -0.48840
 Alpha  occ. eigenvalues --   -0.48607  -0.48259  -0.48214  -0.48052  -0.47987
 Alpha  occ. eigenvalues --   -0.47209  -0.47184  -0.47045  -0.46848  -0.46679
 Alpha  occ. eigenvalues --   -0.46394  -0.45923  -0.45786  -0.45736  -0.45395
 Alpha  occ. eigenvalues --   -0.44899  -0.44619  -0.44434  -0.44132  -0.43818
 Alpha  occ. eigenvalues --   -0.43620  -0.43534  -0.43240  -0.42982  -0.42185
 Alpha  occ. eigenvalues --   -0.41689  -0.41653  -0.41161  -0.39334  -0.39220
 Alpha  occ. eigenvalues --   -0.38412  -0.37019  -0.35508  -0.35248  -0.34295
 Alpha  occ. eigenvalues --   -0.32781  -0.32409  -0.32011  -0.31738  -0.26331
 Alpha  occ. eigenvalues --   -0.22246
 Alpha virt. eigenvalues --   -0.08700  -0.01950  -0.00266   0.01508   0.01667
 Alpha virt. eigenvalues --    0.01702   0.02916   0.03344   0.05049   0.05130
 Alpha virt. eigenvalues --    0.06503   0.06754   0.07480   0.07736   0.08620

 Mulliken charges:
               1
     1  Mg   0.433099
     2  C   -0.036813
     3  C   -0.072434
     4  C   -0.073268
     5  C   -0.045398
     6  N   -0.279539
     7  C    0.124372
     8  C    0.003572
     9  C   -0.010978
    10  C    0.138633
    11  C   -0.053248
    12  C   -0.028527
    13  C    0.007409
    14  C    0.463965
    15  O   -0.514947
    16  O   -0.280915
    17  N   -0.337024
    18  C    0.112607
    19  C    0.010769
    20  C   -0.043869
    21  C    0.156435
    22  C   -0.048117
    23  C    0.326178
    24  O   -0.536033
    25  C   -0.033011
    26  N   -0.251852
    27  C    0.166055
    28  C    0.008860
    29  C   -0.012655
    30  C    0.107606
    31  C   -0.050780
    32  C   -0.038656
    33  C   -0.054497
    34  N   -0.336434
    35  C    0.073643
    36  C    0.022985
    37  C   -0.063019
    38  C    0.141786
    39  C   -0.038231
    40  C    0.333848
    41  O   -0.532791
    42  C    0.052514
    43  C    0.494825
    44  O   -0.501361
    45  O   -0.291130
    46  C    0.065185
    47  C    0.111807
    48  C   -0.085615
    49  C   -0.019921
    50  C   -0.044250
    51  C   -0.035220
    52  C   -0.028072
    53  C   -0.028757
    54  C   -0.011208
    55  C   -0.055849
    56  C   -0.033244
    57  C   -0.043698
    58  C   -0.043859
    59  C   -0.007307
    60  C   -0.058598
    61  C   -0.035988
    62  C   -0.041780
    63  C   -0.037143
    64  C   -0.012293
    65  C   -0.068143
    66  C   -0.055870
    67  H    0.020061
    68  H    0.039319
    69  H    0.024505
    70  H    0.036321
    71  H    0.035933
    72  H    0.020803
    73  H    0.033896
    74  H    0.028775
    75  H    0.036439
    76  H    0.027881
    77  H    0.042855
    78  H    0.042010
    79  H    0.028543
    80  H    0.024153
    81  H    0.026316
    82  H    0.033178
    83  H    0.050272
    84  H    0.042298
    85  H    0.030487
    86  H    0.039011
    87  H    0.025250
    88  H    0.017285
    89  H    0.021383
    90  H    0.032660
    91  H    0.014987
    92  H    0.030766
    93  H    0.024281
    94  H    0.013037
    95  H    0.032866
    96  H    0.019091
    97  H    0.047261
    98  H    0.046051
    99  H    0.034119
   100  H    0.032811
   101  H    0.053266
   102  H    0.064639
   103  H    0.031424
   104  H    0.028944
   105  H    0.042566
   106  H    0.025223
   107  H    0.030480
   108  H    0.026433
   109  H    0.020471
   110  H    0.015106
   111  H    0.026648
   112  H    0.011268
   113  H    0.013325
   114  H    0.014209
   115  H    0.013094
   116  H    0.012550
   117  H    0.021237
   118  H    0.018231
   119  H    0.023822
   120  H    0.030366
   121  H    0.020506
   122  H    0.022235
   123  H    0.006742
   124  H    0.027101
   125  H    0.017003
   126  H    0.019539
   127  H    0.013314
   128  H    0.022808
   129  H    0.022867
   130  H    0.021257
   131  H    0.014890
   132  H    0.020757
   133  H    0.018005
   134  H    0.018782
   135  H    0.022843
   136  H    0.026373
   137  H    0.012805
   138  H    0.022811
   139  H    0.011838
   140  H    0.015504
 Sum of Mulliken charges =  -0.00000

 Dipole moment (field-independent basis, Debye):
    X=              4.4646    Y=              5.4585    Z=              0.3447  Tot=              7.0602
 N-N= 4.267672432662D+03 E-N= 0.000000000000D+00  KE=-9.209865337783D+03
 Leave Link  601 at Tue Apr 26 20:42:45 2022, MaxMem=  6710886400 cpu:               0.8 elap:               0.0
 (Enter /sw/apps/gaussian-16.0/g16/l9999.exe)
 1\1\GINC-BP1-COMPUTE165\SP\RZINDO CIS\STO-3G\C55H74Mg1N4O6\OF15641\26-
 Apr-2022\0\\#p ZINDO=(nstates=5)\\step_1001_chromophore_13 ZINDO\\0,1\
 Mg,0,46.865,24.475,28.288\C,0,47.434,26.645,31.091\C,0,46.153,22.083,3
 0.732\C,0,47.011,22.361,25.94\C,0,48.132,26.984,26.263\N,0,46.943,24.3
 69,30.7\C,0,47.094,25.39,31.586\C,0,46.8,24.996,33.063\C,0,46.558,23.4
 08,32.984\C,0,46.537,23.273,31.382\C,0,47.668,22.518,33.698\C,0,45.656
 ,25.808,33.699\C,0,45.836,26.062,35.182\C,0,44.57,25.912,36.069\O,0,43

 Normal termination of Gaussian 16 at Tue Apr 26 20:42:45 2022.
