 Gaussian 16, Revision A.03,
 Gaussian 16:  ES64L-G16RevA.03 25-Dec-2016

 ------------------------------
 #p blyp/Def2SVP td=(nstates=5)
 ------------------------------

 --------------------------------------------------
 step_701_chromophore_18 TDDFT with blyp functional
 --------------------------------------------------
 Symbolic Z-matrix:
 Charge =  0 Multiplicity = 1

                         Standard orientation:
 ---------------------------------------------------------------------
 Center     Atomic      Atomic             Coordinates (Angstroms)
 Number     Number       Type             X           Y           Z
 ---------------------------------------------------------------------
      1         12           0        5.196991    1.086711    0.124930
      2          6           0        4.215762   -2.255813    0.197830
      3          6           0        1.927588    1.978670    0.397312
      4          6           0        6.082990    4.424998   -0.030930
      5          6           0        8.473928    0.183362   -0.571538
      6          7           0        3.252586   -0.042634    0.069679
      7          6           0        3.141773   -1.426294    0.290361
      8          6           0        1.747630   -1.849767    0.657611
      9          6           0        1.007886   -0.408441    0.767904
     10          6           0        2.143763    0.592331    0.371075
     11          6           0       -0.235363   -0.241396   -0.045722
     12          6           0        1.575998   -2.567961    1.976552
     13          6           0        0.723662   -3.915700    1.900991
     14          6           0       -0.054796   -4.269521    0.586627
     15          8           0        0.230801   -5.065602   -0.282295
     16          8           0       -1.164868   -3.586633    0.488553
     17          7           0        4.186552    2.956538    0.158125
     18          6           0        2.802552    3.117504    0.254287
     19          6           0        2.462096    4.499836    0.023946
     20          6           0        3.702213    5.248221   -0.055197
     21          6           0        4.712695    4.226731    0.062274
     22          6           0        0.967617    4.946878   -0.101660
     23          6           0        3.941249    6.753267   -0.154758
     24          8           0        5.064122    7.236107   -0.270619
     25          6           0        2.671713    7.605143   -0.252328
     26          7           0        6.943080    2.122975   -0.346713
     27          6           0        7.100499    3.500180   -0.224724
     28          6           0        8.586882    3.894154   -0.003344
     29          6           0        9.319492    2.554045   -0.131144
     30          6           0        8.181291    1.541244   -0.379016
     31          6           0        9.111115    4.849292   -1.109117
     32          6           0       10.209205    2.193089    1.194348
     33          6           0       11.708345    2.516888    0.926222
     34          7           0        6.285488   -0.682104   -0.068069
     35          6           0        7.622510   -0.973874   -0.413919
     36          6           0        7.843597   -2.361576   -0.341398
     37          6           0        6.566284   -2.865046   -0.105774
     38          6           0        5.644462   -1.823164    0.016973
     39          6           0        9.200809   -3.044533   -0.506133
     40          6           0        5.808635   -4.136507   -0.044415
     41          8           0        6.183859   -5.245291   -0.116046
     42          6           0        4.222789   -3.800104    0.212360
     43          6           0        3.511577   -4.488541   -0.894440
     44          8           0        3.000312   -3.976019   -1.877097
     45          8           0        3.414124   -5.845100   -0.624483
     46          6           0        2.777774   -6.791988   -1.581189
     47          6           0       -2.203896   -4.016277   -0.508551
     48          6           0       -3.296325   -3.008906   -0.532030
     49          6           0       -4.354296   -3.082029   -1.322495
     50          6           0       -4.707345   -4.298272   -2.300112
     51          6           0       -5.506990   -2.216481   -1.033636
     52          6           0       -6.345392   -2.792199    0.163155
     53          6           0       -6.438245   -1.858940    1.310620
     54          6           0       -7.873216   -1.618383    1.793506
     55          6           0       -7.893286   -1.207608    3.250397
     56          6           0       -8.699984   -0.583097    0.939293
     57          6           0      -10.173162   -0.913714    0.908607
     58          6           0      -11.000557    0.249547    1.533024
     59          6           0      -11.800779    1.097707    0.462932
     60          6           0      -11.705688    2.593856    0.763170
     61          6           0      -13.332717    0.635334    0.396685
     62          6           0      -13.968345    0.874823   -0.973126
     63          6           0      -15.187834    1.885522   -0.972489
     64          6           0      -14.877987    3.325706   -1.264727
     65          6           0      -15.436979    4.259475   -0.195518
     66          6           0      -15.547364    3.702321   -2.657151
     67          1           0        0.881568    2.287746    0.451092
     68          1           0        6.516106    5.416297    0.119304
     69          1           0        9.513264   -0.110902   -0.730707
     70          1           0        1.287629   -2.401589   -0.162080
     71          1           0        0.793220   -0.210812    1.818024
     72          1           0       -0.258349   -0.846980   -0.951900
     73          1           0       -0.475654    0.795303   -0.282688
     74          1           0       -0.997181   -0.603754    0.643792
     75          1           0        1.107594   -1.931441    2.726663
     76          1           0        2.555674   -2.793466    2.396467
     77          1           0       -0.001054   -3.840993    2.712690
     78          1           0        1.391498   -4.750537    2.109775
     79          1           0        0.460670    4.466622    0.734518
     80          1           0        0.635789    4.496111   -1.036562
     81          1           0        0.805380    6.015334    0.042671
     82          1           0        2.970770    8.646925   -0.371011
     83          1           0        2.091924    7.614707    0.670504
     84          1           0        2.128386    7.424694   -1.179336
     85          1           0        8.624252    4.304590    1.006870
     86          1           0        9.977098    2.552292   -1.000426
     87          1           0        8.284375    5.398467   -1.559795
     88          1           0        9.767170    4.399364   -1.853664
     89          1           0        9.531189    5.695008   -0.564253
     90          1           0       10.149638    1.164111    1.551534
     91          1           0        9.986659    2.837081    2.045295
     92          1           0       11.934897    3.138704    0.060309
     93          1           0       12.217825    1.568879    0.753613
     94          1           0       12.184946    3.129645    1.691948
     95          1           0        9.124722   -3.990735    0.030868
     96          1           0       10.037708   -2.522478   -0.043247
     97          1           0        9.439447   -3.206419   -1.557124
     98          1           0        3.939171   -4.131427    1.211564
     99          1           0        3.640023   -7.098374   -2.173588
    100          1           0        2.152588   -6.318497   -2.336618
    101          1           0        2.321018   -7.630941   -1.055789
    102          1           0       -2.457966   -5.064046   -0.349194
    103          1           0       -1.767518   -4.019618   -1.507701
    104          1           0       -3.111630   -2.175510    0.144840
    105          1           0       -3.827982   -4.765887   -2.743943
    106          1           0       -5.208245   -3.850729   -3.158864
    107          1           0       -5.304288   -5.068861   -1.811520
    108          1           0       -5.960436   -2.097923   -2.017935
    109          1           0       -5.008977   -1.254370   -0.915001
    110          1           0       -5.764724   -3.613800    0.582508
    111          1           0       -7.297448   -3.028589   -0.312396
    112          1           0       -5.988786   -0.934791    0.948479
    113          1           0       -5.802002   -2.180819    2.135019
    114          1           0       -8.393734   -2.574892    1.759494
    115          1           0       -6.893688   -1.158510    3.682651
    116          1           0       -8.436693   -2.047050    3.684270
    117          1           0       -8.514454   -0.338434    3.466388
    118          1           0       -8.254702   -0.755398   -0.039971
    119          1           0       -8.413713    0.405707    1.298018
    120          1           0      -10.352320   -1.870182    1.401068
    121          1           0      -10.526670   -1.074120   -0.109303
    122          1           0      -10.333640    0.889157    2.111752
    123          1           0      -11.629680   -0.152480    2.327077
    124          1           0      -11.489724    0.890868   -0.561358
    125          1           0      -11.191225    3.142624   -0.025949
    126          1           0      -11.092018    2.740060    1.652598
    127          1           0      -12.700258    3.032510    0.845524
    128          1           0      -13.855309    1.188941    1.177094
    129          1           0      -13.417481   -0.422446    0.643089
    130          1           0      -14.466940   -0.050242   -1.262561
    131          1           0      -13.214997    1.072534   -1.736122
    132          1           0      -15.815049    1.798223   -0.085341
    133          1           0      -15.841987    1.491259   -1.750394
    134          1           0      -13.830440    3.627377   -1.236294
    135          1           0      -14.755442    4.307662    0.654328
    136          1           0      -16.435541    4.086870    0.205934
    137          1           0      -15.460839    5.206232   -0.736045
    138          1           0      -15.217685    4.665569   -3.046716
    139          1           0      -16.618259    3.820675   -2.495853
    140          1           0      -15.387107    2.902274   -3.379691
 ---------------------------------------------------------------------

 SCF Done:  E(RB-LYP) =  -3007.35302945     A.U. after   20 cycles

 Excitation energies and oscillator strengths:

 Excited State   1:      Singlet-A      1.7494 eV  708.73 nm  f=0.2656  <S**2>=0.000
     245 -> 248       -0.14386
     245 -> 249       -0.10107
     246 -> 247        0.69344
     246 <- 247       -0.16330
 This state for optimization and/or second-order correction.
 Total Energy, E(TD-HF/TD-DFT) =  -3007.28874094
 Copying the excited state density for this state as the 1-particle RhoCI density.

 Excited State   2:      Singlet-A      1.8000 eV  688.81 nm  f=0.0078  <S**2>=0.000
     244 -> 247        0.68648
     245 -> 247        0.15729

 Excited State   3:      Singlet-A      1.9634 eV  631.47 nm  f=0.1212  <S**2>=0.000
     244 -> 247       -0.15996
     245 -> 247        0.63830
     246 -> 248        0.17336
     246 -> 249        0.13239

 Excited State   4:      Singlet-A      2.1319 eV  581.57 nm  f=0.0030  <S**2>=0.000
     243 -> 247        0.69867

 Excited State   5:      Singlet-A      2.3364 eV  530.67 nm  f=0.0049  <S**2>=0.000
     241 -> 247        0.48344
     242 -> 247        0.50594

 The electronic state is 1-A.
 Alpha  occ. eigenvalues --  -46.27054 -18.82157 -18.79210 -18.76352 -18.75930
 Alpha  occ. eigenvalues --  -18.75667 -18.74781 -14.02875 -14.02822 -14.00808
 Alpha  occ. eigenvalues --  -14.00093 -10.03806 -10.02305 -10.00624  -9.99249
 Alpha  occ. eigenvalues --   -9.98250  -9.96185  -9.96184  -9.95805  -9.95785
 Alpha  occ. eigenvalues --   -9.95777  -9.95680  -9.95204  -9.94806  -9.94379
 Alpha  occ. eigenvalues --   -9.94212  -9.93892  -9.93700  -9.93665  -9.93557
 Alpha  occ. eigenvalues --   -9.93540  -9.93530  -9.93496  -9.93469  -9.93290
 Alpha  occ. eigenvalues --   -9.92998  -9.92984  -9.92880  -9.92772  -9.92703
 Alpha  occ. eigenvalues --   -9.92671  -9.92637  -9.92303  -9.92203  -9.92139
 Alpha  occ. eigenvalues --   -9.91963  -9.91869  -9.91735  -9.91735  -9.91714
 Alpha  occ. eigenvalues --   -9.91590  -9.91533  -9.91525  -9.91363  -9.91328
 Alpha  occ. eigenvalues --   -9.91301  -9.91282  -9.91100  -9.91009  -9.90967
 Alpha  occ. eigenvalues --   -9.90966  -9.90865  -9.90823  -9.90539  -9.90518
 Alpha  occ. eigenvalues --   -9.90489  -2.91597  -1.72018  -1.71471  -1.71322
 Alpha  occ. eigenvalues --   -0.99488  -0.94792  -0.93524  -0.91734  -0.89295
 Alpha  occ. eigenvalues --   -0.87154  -0.86236  -0.85525  -0.84955  -0.84050
 Alpha  occ. eigenvalues --   -0.74771  -0.73935  -0.73200  -0.72618  -0.72401
 Alpha  occ. eigenvalues --   -0.71496  -0.71148  -0.71001  -0.70189  -0.69644
 Alpha  occ. eigenvalues --   -0.69396  -0.69314  -0.68177  -0.67259  -0.66725
 Alpha  occ. eigenvalues --   -0.66374  -0.65526  -0.65333  -0.64554  -0.64289
 Alpha  occ. eigenvalues --   -0.63840  -0.62301  -0.62215  -0.61080  -0.61022
 Alpha  occ. eigenvalues --   -0.60042  -0.59926  -0.59566  -0.59302  -0.59022
 Alpha  occ. eigenvalues --   -0.58354  -0.57783  -0.55768  -0.55508  -0.53951
 Alpha  occ. eigenvalues --   -0.53874  -0.53308  -0.52682  -0.52189  -0.51722
 Alpha  occ. eigenvalues --   -0.51333  -0.51210  -0.50387  -0.49912  -0.49685
 Alpha  occ. eigenvalues --   -0.49569  -0.49522  -0.49093  -0.46887  -0.46510
 Alpha  occ. eigenvalues --   -0.46266  -0.45592  -0.45215  -0.44400  -0.43876
 Alpha  occ. eigenvalues --   -0.43411  -0.43085  -0.42573  -0.42159  -0.42050
 Alpha  occ. eigenvalues --   -0.41688  -0.41297  -0.41106  -0.40836  -0.40754
 Alpha  occ. eigenvalues --   -0.40381  -0.40249  -0.40008  -0.39936  -0.39886
 Alpha  occ. eigenvalues --   -0.39480  -0.39467  -0.39339  -0.38915  -0.38880
 Alpha  occ. eigenvalues --   -0.38649  -0.38543  -0.38367  -0.38294  -0.38170
 Alpha  occ. eigenvalues --   -0.37817  -0.37728  -0.37645  -0.37171  -0.37088
 Alpha  occ. eigenvalues --   -0.37039  -0.36763  -0.36607  -0.36381  -0.36212
 Alpha  occ. eigenvalues --   -0.36117  -0.36008  -0.35888  -0.35703  -0.35519
 Alpha  occ. eigenvalues --   -0.35467  -0.35284  -0.35106  -0.34905  -0.34706
 Alpha  occ. eigenvalues --   -0.34492  -0.34039  -0.33886  -0.33584  -0.33521
 Alpha  occ. eigenvalues --   -0.33449  -0.33211  -0.33146  -0.33112  -0.32945
 Alpha  occ. eigenvalues --   -0.32882  -0.32720  -0.32588  -0.32520  -0.32389
 Alpha  occ. eigenvalues --   -0.32234  -0.32065  -0.31901  -0.31581  -0.31362
 Alpha  occ. eigenvalues --   -0.31341  -0.31152  -0.31027  -0.30644  -0.30585
 Alpha  occ. eigenvalues --   -0.30520  -0.30339  -0.30134  -0.29727  -0.29644
 Alpha  occ. eigenvalues --   -0.29353  -0.29256  -0.29124  -0.28904  -0.28591
 Alpha  occ. eigenvalues --   -0.28505  -0.28417  -0.28232  -0.27613  -0.27443
 Alpha  occ. eigenvalues --   -0.27360  -0.27138  -0.26790  -0.26765  -0.26310
 Alpha  occ. eigenvalues --   -0.26114  -0.25894  -0.25685  -0.25349  -0.24903
 Alpha  occ. eigenvalues --   -0.24648  -0.24396  -0.23766  -0.23340  -0.23161
 Alpha  occ. eigenvalues --   -0.22248  -0.21897  -0.21203  -0.20566  -0.20355
 Alpha  occ. eigenvalues --   -0.20236  -0.20092  -0.19340  -0.18193  -0.16972
 Alpha  occ. eigenvalues --   -0.15607
 Alpha virt. eigenvalues --   -0.11629  -0.06616  -0.05386  -0.04019  -0.02801
 Alpha virt. eigenvalues --   -0.02124  -0.01945  -0.01096  -0.00807   0.00563
 Alpha virt. eigenvalues --    0.01702   0.02025   0.02608   0.02912   0.02974

 Mulliken charges:
               1
     1  Mg   0.669817
     2  C    0.005914
     3  C   -0.066796
     4  C   -0.059012
     5  C   -0.057766
     6  N   -0.195497
     7  C   -0.077634
     8  C    0.044890
     9  C   -0.041982
    10  C    0.042228
    11  C    0.138712
    12  C    0.126320
    13  C    0.135012
    14  C    0.037472
    15  O   -0.185500
    16  O   -0.253899
    17  N   -0.282260
    18  C    0.114663
    19  C   -0.150817
    20  C    0.024131
    21  C    0.122659
    22  C    0.168536
    23  C   -0.060166
    24  O   -0.152484
    25  C    0.114274
    26  N   -0.237603
    27  C    0.015660
    28  C   -0.004835
    29  C    0.053117
    30  C    0.059087
    31  C    0.134783
    32  C    0.085934
    33  C    0.025081
    34  N   -0.271981
    35  C    0.069067
    36  C   -0.165773
    37  C    0.085397
    38  C    0.068386
    39  C    0.162911
    40  C   -0.087797
    41  O   -0.062798
    42  C    0.029615
    43  C    0.146014
    44  O   -0.184942
    45  O   -0.297427
    46  C    0.238512
    47  C    0.299051
    48  C   -0.097702
    49  C   -0.187277
    50  C    0.115426
    51  C    0.124575
    52  C    0.135944
    53  C    0.116050
    54  C   -0.136615
    55  C    0.128666
    56  C    0.114105
    57  C    0.106087
    58  C    0.098932
    59  C   -0.090277
    60  C    0.124155
    61  C    0.092953
    62  C    0.080733
    63  C    0.123892
    64  C   -0.069869
    65  C    0.078305
    66  C    0.077534
    67  H   -0.074459
    68  H   -0.043597
    69  H   -0.065971
    70  H    0.021152
    71  H   -0.022581
    72  H    0.001770
    73  H   -0.012283
    74  H   -0.012156
    75  H   -0.029029
    76  H   -0.022297
    77  H   -0.015573
    78  H    0.001716
    79  H    0.003032
    80  H    0.015847
    81  H   -0.014294
    82  H   -0.025314
    83  H    0.022541
    84  H    0.023734
    85  H   -0.007777
    86  H   -0.017691
    87  H   -0.009809
    88  H    0.006452
    89  H   -0.018476
    90  H   -0.008364
    91  H   -0.021454
    92  H   -0.015426
    93  H   -0.002598
    94  H   -0.011095
    95  H    0.003719
    96  H   -0.010794
    97  H    0.010475
    98  H    0.011593
    99  H   -0.003204
   100  H    0.016747
   101  H    0.024021
   102  H    0.005166
   103  H    0.015410
   104  H   -0.025541
   105  H   -0.011594
   106  H   -0.008244
   107  H    0.016246
   108  H   -0.045566
   109  H   -0.027145
   110  H   -0.016570
   111  H   -0.012674
   112  H   -0.043157
   113  H   -0.039351
   114  H   -0.039501
   115  H   -0.016211
   116  H   -0.027220
   117  H   -0.019041
   118  H   -0.051344
   119  H   -0.022682
   120  H   -0.035867
   121  H   -0.031905
   122  H   -0.036236
   123  H   -0.038824
   124  H   -0.032578
   125  H   -0.019102
   126  H   -0.021642
   127  H   -0.010822
   128  H   -0.032808
   129  H   -0.037468
   130  H   -0.041639
   131  H   -0.026573
   132  H   -0.041546
   133  H   -0.049201
   134  H   -0.029115
   135  H   -0.013252
   136  H   -0.016124
   137  H   -0.027543
   138  H   -0.016685
   139  H   -0.016969
   140  H   -0.009531
 Sum of Mulliken charges =  -0.00000

 Dipole moment (field-independent basis, Debye):
    X=             -4.1757    Y=              1.7524    Z=              2.8222  Tot=              5.3359
 Quadrupole moment (field-independent basis, Debye-Ang):
   XX=           -379.3979   YY=           -429.6557   ZZ=           -402.1371
   XY=             21.1668   XZ=             13.4009   YZ=             -0.9261

 Normal termination of Gaussian 16 at Thu May  5 06:43:26 2022.
